                               Psi4 1.3.2 release

  ==> Input File <==

--------------------------------------------------------------------------
#psi4
#
memory 32 gb

molecule  {
1 1
  N       -0.0000070     0.5428950     0.0000130
  C        1.2598200    -0.2771790    -0.0000010
  C       -1.2598080    -0.2771790    -0.0000030
  H       -0.0000060     1.1640620     0.8196270
  H       -0.0000048     1.2244318    -0.8993806
  H        1.2623770    -0.8971870     0.8951090
  H        1.2610580    -0.8992150    -0.8937010
  H        2.1166910     0.3953100    -0.0014200
  H       -2.1167010     0.3952880     0.0003870
  H       -1.2619210    -0.8979260    -0.8945960
  H       -1.2615120    -0.8984910     0.8942090
units angstrom
no_reorient  #important for SAPT in psi4, default
symmetry c1  #important for SAPT in psi4, default
}

set PROPERTIES_ORIGIN ["COM"]
properties('MP2/aug-cc-pvtz', properties = ['dipole'])
--------------------------------------------------------------------------

    Molecular point group: c1
  Charge       = 1
  Multiplicity = 1
  Basis Set: AUG-CC-PVTZ
    Blend: AUG-CC-PVTZ
  Basis Set: (AUG-CC-PVTZ AUX)
    Blend: AUG-CC-PVTZ-JKFIT

    Orbital Energies [Eh]
    ---------------------

    Doubly Occupied:

       1A    -15.899277     2A    -11.475081     3A    -11.475067
       4A     -1.500938     5A     -1.187986     6A     -1.120669
       7A     -0.960341     8A     -0.896680     9A     -0.841578
      10A     -0.775803    11A     -0.762423    12A     -0.751026
      13A     -0.750040

  @DF-RHF Final Energy:  -134.65968032041465

   => Energetics <=

    Nuclear Repulsion Energy =             90.4536682644369137
    One-Electron Energy =                -353.4328819143686928
    Two-Electron Energy =                 128.3195333295171565
    Total Energy =                       -134.6596803204146511
  Basis Set: (AUG-CC-PVTZ AUX)
    Blend: AUG-CC-PVTZ-RI
    Molecular point group: c1

    Geometry (in Angstrom), charge = 1, multiplicity = 1:

       Center              X                  Y                   Z               Mass
    ------------   -----------------  -----------------  -----------------  -----------------
         N           -0.000007586801     0.531325903455     0.001755202404    14.003074004430
         C            1.259819413199    -0.288748096545     0.001741202404    12.000000000000
         C           -1.259808586801    -0.288748096545     0.001739202404    12.000000000000
         H           -0.000006586801     1.152492903455     0.821369202404     1.007825032230
         H           -0.000005386801     1.212862703455    -0.897638397596     1.007825032230
         H            1.262376413199    -0.908756096545     0.896851202404     1.007825032230
         H            1.261057413199    -0.910784096545    -0.891958797596     1.007825032230
         H            2.116690413199     0.383740903455     0.000322202404     1.007825032230
         H           -2.116701586801     0.383718903455     0.002129202404     1.007825032230
         H           -1.261921586801    -0.909495096545    -0.892853797596     1.007825032230
         H           -1.261512586801    -0.910060096545     0.895951202404     1.007825032230

  Basis Set: AUG-CC-PVTZ
    Blend: AUG-CC-PVTZ
  Basis Set: (AUG-CC-PVTZ AUX)
    Blend: AUG-CC-PVTZ-JKFIT
	 Reference Energy          =    -134.6596803204146511 [Eh]
	 Singles Energy            =      -0.0000000000000000 [Eh]
	 Same-Spin Energy          =      -0.1309681141097904 [Eh]
	 Opposite-Spin Energy      =      -0.5036046061851487 [Eh]
	 Correlation Energy        =      -0.6345727202949391 [Eh]
	 Total Energy              =    -135.2942530407095774 [Eh]

	 ================> DF-SCS-MP2 Energies <==================
	-----------------------------------------------------------
	 SCS Same-Spin Scale       =       0.3333333333333333 [-]
	 SCS Opposite-Spin Scale   =       1.2000000000000000 [-]
	 SCS Same-Spin Energy      =      -0.0436560380365968 [Eh]
	 SCS Opposite-Spin Energy  =      -0.6043255274221784 [Eh]
	 SCS Correlation Energy    =      -0.6479815654587752 [Eh]
	 SCS Total Energy          =    -135.3076618858734150 [Eh]
	-----------------------------------------------------------

  Dipole Moment: [D]
     X:     0.0000      Y:     1.5151      Z:    -0.1037     Total:     1.5187

*** Psi4 exiting successfully. Buy a developer a beer!
