                               Psi4 1.4a3.dev225

  ==> Input File <==

--------------------------------------------------------------------------
#psi4
#
memory 32 gb

molecule  {
1 1
  N        0.0000000     0.5403170    -0.0000070
  C       -1.2353585    -0.2657934     0.0000098
  C        1.2521080    -0.2767230    -0.0000030
  H       -0.0000040     1.1617250    -0.8174450
  H        0.0000040     1.1617460     0.8174160
  H       -1.2523940    -0.8957080    -0.8943280
  H       -1.2523830    -0.8956890     0.8943600
  H       -2.1045790     0.3988920     0.0000070
  H        2.1045790     0.3988920    -0.0000120
  H        1.2523910    -0.8956900     0.8943470
  H        1.2523860    -0.8957070    -0.8943410
units angstrom
no_reorient  #important for SAPT in psi4, default
symmetry c1  #important for SAPT in psi4, default
}

set PROPERTIES_ORIGIN ["COM"]
properties('MP2/aug-cc-pvtz', properties = ['dipole'])
--------------------------------------------------------------------------

    Molecular point group: c1
  Charge       = 1
  Multiplicity = 1
  Basis Set: AUG-CC-PVTZ
    Blend: AUG-CC-PVTZ
  Basis Set: (AUG-CC-PVTZ AUX)
    Blend: AUG-CC-PVTZ-JKFIT

    Orbital Energies [Eh]
    ---------------------

    Doubly Occupied:

       1A    -15.894810     2A    -11.476053     3A    -11.474596
       4A     -1.523514     5A     -1.192951     6A     -1.130324
       7A     -0.984276     8A     -0.907575     9A     -0.849624
      10A     -0.776160    11A     -0.766517    12A     -0.756351
      13A     -0.749398

  @DF-RHF Final Energy:  -134.66927200349943

   => Energetics <=

    Nuclear Repulsion Energy =             91.5343329823100191
    One-Electron Energy =                -355.4429111966992991
    Two-Electron Energy =                 129.2393062108898789
    Total Energy =                       -134.6692720034994295
  Basis Set: (AUG-CC-PVTZ AUX)
    Blend: AUG-CC-PVTZ-RI
    Molecular point group: c1

    Geometry (in Angstrom), charge = 1, multiplicity = 1:

       Center              X                  Y                   Z               Mass
    ------------   -----------------  -----------------  -----------------  -----------------
         N           -0.004363205428     0.527492883372    -0.000006731031    14.003074004430
         C           -1.239721705428    -0.278617516628     0.000010068969    12.000000000000
         C            1.247744794572    -0.289547116628    -0.000002731031    12.000000000000
         H           -0.004367205428     1.148900883372    -0.817444731031     1.007825032230
         H           -0.004359205428     1.148921883372     0.817416268969     1.007825032230
         H           -1.256757205428    -0.908532116628    -0.894327731031     1.007825032230
         H           -1.256746205428    -0.908513116628     0.894360268969     1.007825032230
         H           -2.108942205428     0.386067883372     0.000007268969     1.007825032230
         H            2.100215794572     0.386067883372    -0.000011731031     1.007825032230
         H            1.248027794572    -0.908514116628     0.894347268969     1.007825032230
         H            1.248022794572    -0.908531116628    -0.894340731031     1.007825032230

  Basis Set: AUG-CC-PVTZ
    Blend: AUG-CC-PVTZ
  Basis Set: (AUG-CC-PVTZ AUX)
    Blend: AUG-CC-PVTZ-JKFIT
	 Reference Energy          =    -134.6692720034994295 [Eh]
	 Singles Energy            =      -0.0000000000000000 [Eh]
	 Same-Spin Energy          =      -0.1306262928337627 [Eh]
	 Opposite-Spin Energy      =      -0.5016016235056323 [Eh]
	 Correlation Energy        =      -0.6322279163393950 [Eh]
	 Total Energy              =    -135.3014999198388182 [Eh]

	 ================> DF-SCS-MP2 Energies <==================
	-----------------------------------------------------------
	 SCS Same-Spin Scale       =       0.3333333333333333 [-]
	 SCS Opposite-Spin Scale   =       1.2000000000000000 [-]
	 SCS Same-Spin Energy      =      -0.0435420976112542 [Eh]
	 SCS Opposite-Spin Energy  =      -0.6019219482067587 [Eh]
	 SCS Correlation Energy    =      -0.6454640458180130 [Eh]
	 SCS Total Energy          =    -135.3147360493174460 [Eh]
	-----------------------------------------------------------

  Dipole Moment: [D]
     X:     0.0191      Y:     1.4564      Z:    -0.0000     Total:     1.4566

*** Psi4 exiting successfully. Buy a developer a beer!
