                               Psi4 1.3.2 release

  ==> Input File <==

--------------------------------------------------------------------------
#psi4
#
memory 32 gb

molecule  {
1 1
  N       -0.0000070     0.5428950     0.0000130
  C        1.2673008    -0.2652667    -0.0221473
  C       -1.2598080    -0.2771790    -0.0000030
  H       -0.0000060     1.1640620     0.8196270
  H       -0.0000050     1.1640360    -0.8196790
  H        1.2623770    -0.8971870     0.8951090
  H        1.2610580    -0.8992150    -0.8937010
  H        2.1166910     0.3953100    -0.0014200
  H       -2.1167010     0.3952880     0.0003870
  H       -1.2619210    -0.8979260    -0.8945960
  H       -1.2615120    -0.8984910     0.8942090
units angstrom
no_reorient  #important for SAPT in psi4, default
symmetry c1  #important for SAPT in psi4, default
}

set PROPERTIES_ORIGIN ["COM"]
properties('MP2/aug-cc-pvtz', properties = ['dipole'])
--------------------------------------------------------------------------

    Molecular point group: c1
  Charge       = 1
  Multiplicity = 1
  Basis Set: AUG-CC-PVTZ
    Blend: AUG-CC-PVTZ
  Basis Set: (AUG-CC-PVTZ AUX)
    Blend: AUG-CC-PVTZ-JKFIT

    Orbital Energies [Eh]
    ---------------------

    Doubly Occupied:

       1A    -15.893433     2A    -11.476497     3A    -11.476345
       4A     -1.514008     5A     -1.190242     6A     -1.128910
       7A     -0.978614     8A     -0.903117     9A     -0.843901
      10A     -0.776482    11A     -0.766541    12A     -0.755699
      13A     -0.752719

  @DF-RHF Final Energy:  -134.66865504688997

   => Energetics <=

    Nuclear Repulsion Energy =             90.8940516127732820
    One-Electron Energy =                -354.2123976059259007
    Two-Electron Energy =                 128.6496909462626377
    Total Energy =                       -134.6686550468899668
  Basis Set: (AUG-CC-PVTZ AUX)
    Blend: AUG-CC-PVTZ-RI
    Molecular point group: c1

    Geometry (in Angstrom), charge = 1, multiplicity = 1:

       Center              X                  Y                   Z               Mass
    ------------   -----------------  -----------------  -----------------  -----------------
         N           -0.001956313263     0.529544116859     0.005780549593    14.003074004430
         C            1.265351486737    -0.278617583141    -0.016379750407    12.000000000000
         C           -1.261757313263    -0.290529883141     0.005764549593    12.000000000000
         H           -0.001955313263     1.150711116859     0.825394549593     1.007825032230
         H           -0.001954313263     1.150685116859    -0.813911450407     1.007825032230
         H            1.260427686737    -0.910537883141     0.900876549593     1.007825032230
         H            1.259108686737    -0.912565883141    -0.887933450407     1.007825032230
         H            2.114741686737     0.381959116859     0.004347549593     1.007825032230
         H           -2.118650313263     0.381937116859     0.006154549593     1.007825032230
         H           -1.263870313263    -0.911276883141    -0.888828450407     1.007825032230
         H           -1.263461313263    -0.911841883141     0.899976549593     1.007825032230

  Basis Set: AUG-CC-PVTZ
    Blend: AUG-CC-PVTZ
  Basis Set: (AUG-CC-PVTZ AUX)
    Blend: AUG-CC-PVTZ-JKFIT
	 Reference Energy          =    -134.6686550468899668 [Eh]
	 Singles Energy            =      -0.0000000000000000 [Eh]
	 Same-Spin Energy          =      -0.1303875026102316 [Eh]
	 Opposite-Spin Energy      =      -0.5017472013759590 [Eh]
	 Correlation Energy        =      -0.6321347039861906 [Eh]
	 Total Energy              =    -135.3007897508761630 [Eh]

	 ================> DF-SCS-MP2 Energies <==================
	-----------------------------------------------------------
	 SCS Same-Spin Scale       =       0.3333333333333333 [-]
	 SCS Opposite-Spin Scale   =       1.2000000000000000 [-]
	 SCS Same-Spin Energy      =      -0.0434625008700772 [Eh]
	 SCS Opposite-Spin Energy  =      -0.6020966416511507 [Eh]
	 SCS Correlation Energy    =      -0.6455591425212279 [Eh]
	 SCS Total Energy          =    -135.3142141894111887 [Eh]
	-----------------------------------------------------------

  Dipole Moment: [D]
     X:    -0.0101      Y:     1.4249      Z:     0.0170     Total:     1.4250

*** Psi4 exiting successfully. Buy a developer a beer!
