                               Psi4 1.3.2 release

  ==> Input File <==

--------------------------------------------------------------------------
#psi4
#
memory 32 gb

molecule  {
1 1
  N       -0.0000070     0.5428950     0.0000130
  C        1.2598200    -0.2771790    -0.0000010
  C       -1.2598080    -0.2771790    -0.0000030
  H       -0.0000058     1.2197223     0.7743000
  H       -0.0000050     1.1640360    -0.8196790
  H        1.2623770    -0.8971870     0.8951090
  H        1.2610580    -0.8992150    -0.8937010
  H        2.1166910     0.3953100    -0.0014200
  H       -2.1167010     0.3952880     0.0003870
  H       -1.2619210    -0.8979260    -0.8945960
  H       -1.2615120    -0.8984910     0.8942090
units angstrom
no_reorient  #important for SAPT in psi4, default
symmetry c1  #important for SAPT in psi4, default
}

set PROPERTIES_ORIGIN ["COM"]
properties('MP2/aug-cc-pvtz', properties = ['dipole'])
--------------------------------------------------------------------------

    Molecular point group: c1
  Charge       = 1
  Multiplicity = 1
  Basis Set: AUG-CC-PVTZ
    Blend: AUG-CC-PVTZ
  Basis Set: (AUG-CC-PVTZ AUX)
    Blend: AUG-CC-PVTZ-JKFIT

    Orbital Energies [Eh]
    ---------------------

    Doubly Occupied:

       1A    -15.893254     2A    -11.476446     3A    -11.476432
       4A     -1.513890     5A     -1.189409     6A     -1.132335
       7A     -0.971637     8A     -0.904941     9A     -0.843797
      10A     -0.776736    11A     -0.767473    12A     -0.756926
      13A     -0.751293

  @DF-RHF Final Energy:  -134.66884253777314

   => Energetics <=

    Nuclear Repulsion Energy =             90.8874065669641169
    One-Electron Energy =                -354.2033582413332624
    Two-Electron Energy =                 128.6471091365960149
    Total Energy =                       -134.6688425377731448
  Basis Set: (AUG-CC-PVTZ AUX)
    Blend: AUG-CC-PVTZ-RI
    Molecular point group: c1

    Geometry (in Angstrom), charge = 1, multiplicity = 1:

       Center              X                  Y                   Z               Mass
    ------------   -----------------  -----------------  -----------------  -----------------
         N           -0.000007586801     0.531429506745     0.001003154748    14.003074004430
         C            1.259819413199    -0.288644493255     0.000989154748    12.000000000000
         C           -1.259808586801    -0.288644493255     0.000987154748    12.000000000000
         H           -0.000006386801     1.208256806745     0.775290154748     1.007825032230
         H           -0.000005586801     1.152570506745    -0.818688845252     1.007825032230
         H            1.262376413199    -0.908652493255     0.896099154748     1.007825032230
         H            1.261057413199    -0.910680493255    -0.892710845252     1.007825032230
         H            2.116690413199     0.383844506745    -0.000429845252     1.007825032230
         H           -2.116701586801     0.383822506745     0.001377154748     1.007825032230
         H           -1.261921586801    -0.909391493255    -0.893605845252     1.007825032230
         H           -1.261512586801    -0.909956493255     0.895199154748     1.007825032230

  Basis Set: AUG-CC-PVTZ
    Blend: AUG-CC-PVTZ
  Basis Set: (AUG-CC-PVTZ AUX)
    Blend: AUG-CC-PVTZ-JKFIT
	 Reference Energy          =    -134.6688425377731448 [Eh]
	 Singles Energy            =      -0.0000000000000000 [Eh]
	 Same-Spin Energy          =      -0.1303849034877024 [Eh]
	 Opposite-Spin Energy      =      -0.5017187644930726 [Eh]
	 Correlation Energy        =      -0.6321036679807750 [Eh]
	 Total Energy              =    -135.3009462057539167 [Eh]

	 ================> DF-SCS-MP2 Energies <==================
	-----------------------------------------------------------
	 SCS Same-Spin Scale       =       0.3333333333333333 [-]
	 SCS Opposite-Spin Scale   =       1.2000000000000000 [-]
	 SCS Same-Spin Energy      =      -0.0434616344959008 [Eh]
	 SCS Opposite-Spin Energy  =      -0.6020625173916871 [Eh]
	 SCS Correlation Energy    =      -0.6455241518875879 [Eh]
	 SCS Total Energy          =    -135.3143666896607442 [Eh]
	-----------------------------------------------------------

  Dipole Moment: [D]
     X:     0.0000      Y:     1.4837      Z:    -0.0427     Total:     1.4844

*** Psi4 exiting successfully. Buy a developer a beer!
