                               Psi4 1.3.2 release

  ==> Input File <==

--------------------------------------------------------------------------
#psi4
#
memory 32 gb

molecule  {
1 1
  N       -0.0000070     0.5428950     0.0000130
  C        1.2598200    -0.2771790    -0.0000010
  C       -1.2598080    -0.2771790    -0.0000030
  H       -0.0000060     1.1496632     0.8303430
  H       -0.0000050     1.1640360    -0.8196790
  H        1.2623770    -0.8971870     0.8951090
  H        1.2610580    -0.8992150    -0.8937010
  H        2.1166910     0.3953100    -0.0014200
  H       -2.1167010     0.3952880     0.0003870
  H       -1.2619210    -0.8979260    -0.8945960
  H       -1.2615120    -0.8984910     0.8942090
units angstrom
no_reorient  #important for SAPT in psi4, default
symmetry c1  #important for SAPT in psi4, default
}

set PROPERTIES_ORIGIN ["COM"]
properties('MP2/aug-cc-pvtz', properties = ['dipole'])
--------------------------------------------------------------------------

    Molecular point group: c1
  Charge       = 1
  Multiplicity = 1
  Basis Set: AUG-CC-PVTZ
    Blend: AUG-CC-PVTZ
  Basis Set: (AUG-CC-PVTZ AUX)
    Blend: AUG-CC-PVTZ-JKFIT

    Orbital Energies [Eh]
    ---------------------

    Doubly Occupied:

       1A    -15.893448     2A    -11.476223     3A    -11.476210
       4A     -1.514080     5A     -1.189722     6A     -1.128804
       7A     -0.980671     8A     -0.901187     9A     -0.843909
      10A     -0.777185    11A     -0.764805    12A     -0.758926
      13A     -0.751353

  @DF-RHF Final Energy:  -134.66941903715261

   => Energetics <=

    Nuclear Repulsion Energy =             90.9301618508615235
    One-Electron Energy =                -354.2861163713918700
    Two-Electron Energy =                 128.6865354833777531
    Total Energy =                       -134.6694190371526076
  Basis Set: (AUG-CC-PVTZ AUX)
    Blend: AUG-CC-PVTZ-RI
    Molecular point group: c1

    Geometry (in Angstrom), charge = 1, multiplicity = 1:

       Center              X                  Y                   Z               Mass
    ------------   -----------------  -----------------  -----------------  -----------------
         N           -0.000007582425     0.532962260056    -0.000222954263    14.003074004430
         C            1.259819417575    -0.287111739944    -0.000236954263    12.000000000000
         C           -1.259808582425    -0.287111739944    -0.000238954263    12.000000000000
         H           -0.000006582425     1.139730460056     0.830107045737     1.007825032230
         H           -0.000005582425     1.154103260056    -0.819914954263     1.007825032230
         H            1.262376417575    -0.907119739944     0.894873045737     1.007825032230
         H            1.261057417575    -0.909147739944    -0.893936954263     1.007825032230
         H            2.116690417575     0.385377260056    -0.001655954263     1.007825032230
         H           -2.116701582425     0.385355260056     0.000151045737     1.007825032230
         H           -1.261921582425    -0.907858739944    -0.894831954263     1.007825032230
         H           -1.261512582425    -0.908423739944     0.893973045737     1.007825032230

  Basis Set: AUG-CC-PVTZ
    Blend: AUG-CC-PVTZ
  Basis Set: (AUG-CC-PVTZ AUX)
    Blend: AUG-CC-PVTZ-JKFIT
	 Reference Energy          =    -134.6694190371526076 [Eh]
	 Singles Energy            =      -0.0000000000000000 [Eh]
	 Same-Spin Energy          =      -0.1303832737844101 [Eh]
	 Opposite-Spin Energy      =      -0.5017325283802689 [Eh]
	 Correlation Energy        =      -0.6321158021646791 [Eh]
	 Total Energy              =    -135.3015348393172985 [Eh]

	 ================> DF-SCS-MP2 Energies <==================
	-----------------------------------------------------------
	 SCS Same-Spin Scale       =       0.3333333333333333 [-]
	 SCS Opposite-Spin Scale   =       1.2000000000000000 [-]
	 SCS Same-Spin Energy      =      -0.0434610912614700 [Eh]
	 SCS Opposite-Spin Energy  =      -0.6020790340563227 [Eh]
	 SCS Correlation Energy    =      -0.6455401253177927 [Eh]
	 SCS Total Energy          =    -135.3149591624703874 [Eh]
	-----------------------------------------------------------

  Dipole Moment: [D]
     X:     0.0000      Y:     1.4213      Z:     0.0097     Total:     1.4213

*** Psi4 exiting successfully. Buy a developer a beer!
