                               Psi4 1.3.2 release

  ==> Input File <==

--------------------------------------------------------------------------
#psi4
#
memory 32 gb

molecule  {
1 1
  N       -0.0000070     0.5428950     0.0000130
  C        1.2598200    -0.2771790    -0.0000010
  C       -1.2598080    -0.2771790    -0.0000030
  H       -0.0000060     1.1640620     0.8196270
  H       -0.0000052     1.1036402    -0.7399774
  H        1.2623770    -0.8971870     0.8951090
  H        1.2610580    -0.8992150    -0.8937010
  H        2.1166910     0.3953100    -0.0014200
  H       -2.1167010     0.3952880     0.0003870
  H       -1.2619210    -0.8979260    -0.8945960
  H       -1.2615120    -0.8984910     0.8942090
units angstrom
no_reorient  #important for SAPT in psi4, default
symmetry c1  #important for SAPT in psi4, default
}

set PROPERTIES_ORIGIN ["COM"]
properties('MP2/aug-cc-pvtz', properties = ['dipole'])
--------------------------------------------------------------------------

    Molecular point group: c1
  Charge       = 1
  Multiplicity = 1
  Basis Set: AUG-CC-PVTZ
    Blend: AUG-CC-PVTZ
  Basis Set: (AUG-CC-PVTZ AUX)
    Blend: AUG-CC-PVTZ-JKFIT

    Orbital Energies [Eh]
    ---------------------

    Doubly Occupied:

       1A    -15.885898     2A    -11.477457     3A    -11.477444
       4A     -1.531490     5A     -1.191312     6A     -1.141569
       7A     -0.998523     8A     -0.906072     9A     -0.846320
      10A     -0.778314    11A     -0.770223    12A     -0.762851
      13A     -0.752631

  @DF-RHF Final Energy:  -134.66378752997343

   => Energetics <=

    Nuclear Repulsion Energy =             91.4625419912406699
    One-Electron Energy =                -355.2124517588570711
    Two-Electron Energy =                 129.0861222376429396
    Total Energy =                       -134.6637875299734333
  Basis Set: (AUG-CC-PVTZ AUX)
    Blend: AUG-CC-PVTZ-RI
    Molecular point group: c1

    Geometry (in Angstrom), charge = 1, multiplicity = 1:

       Center              X                  Y                   Z               Mass
    ------------   -----------------  -----------------  -----------------  -----------------
         N           -0.000007578050     0.533968582632    -0.001732221535    14.003074004430
         C            1.259819421950    -0.286105417368    -0.001746221535    12.000000000000
         C           -1.259808578050    -0.286105417368    -0.001748221535    12.000000000000
         H           -0.000006578050     1.155135582632     0.817881778465     1.007825032230
         H           -0.000005778050     1.094713782632    -0.741722621535     1.007825032230
         H            1.262376421950    -0.906113417368     0.893363778465     1.007825032230
         H            1.261057421950    -0.908141417368    -0.895446221535     1.007825032230
         H            2.116690421950     0.386383582632    -0.003165221535     1.007825032230
         H           -2.116701578050     0.386361582632    -0.001358221535     1.007825032230
         H           -1.261921578050    -0.906852417368    -0.896341221535     1.007825032230
         H           -1.261512578050    -0.907417417368     0.892463778465     1.007825032230

  Basis Set: AUG-CC-PVTZ
    Blend: AUG-CC-PVTZ
  Basis Set: (AUG-CC-PVTZ AUX)
    Blend: AUG-CC-PVTZ-JKFIT
	 Reference Energy          =    -134.6637875299734333 [Eh]
	 Singles Energy            =      -0.0000000000000000 [Eh]
	 Same-Spin Energy          =      -0.1298431118129516 [Eh]
	 Opposite-Spin Energy      =      -0.5001527655959379 [Eh]
	 Correlation Energy        =      -0.6299958774088894 [Eh]
	 Total Energy              =    -135.2937834073823353 [Eh]

	 ================> DF-SCS-MP2 Energies <==================
	-----------------------------------------------------------
	 SCS Same-Spin Scale       =       0.3333333333333333 [-]
	 SCS Opposite-Spin Scale   =       1.2000000000000000 [-]
	 SCS Same-Spin Energy      =      -0.0432810372709838 [Eh]
	 SCS Opposite-Spin Energy  =      -0.6001833187151254 [Eh]
	 SCS Correlation Energy    =      -0.6434643559861093 [Eh]
	 SCS Total Energy          =    -135.3072518859595448 [Eh]
	-----------------------------------------------------------

  Dipole Moment: [D]
     X:     0.0000      Y:     1.3538      Z:     0.0994     Total:     1.3574

*** Psi4 exiting successfully. Buy a developer a beer!
