                               Psi4 1.3.2 release

  ==> Input File <==

--------------------------------------------------------------------------
#psi4
#
memory 32 gb

molecule  {
1 1
  N       -0.0000070     0.5428950     0.0000130
  C        1.1760117    -0.2226247    -0.0000001
  C       -1.2598080    -0.2771790    -0.0000030
  H       -0.0000060     1.1640620     0.8196270
  H       -0.0000050     1.1640360    -0.8196790
  H        1.2623770    -0.8971870     0.8951090
  H        1.2610580    -0.8992150    -0.8937010
  H        2.1166910     0.3953100    -0.0014200
  H       -2.1167010     0.3952880     0.0003870
  H       -1.2619210    -0.8979260    -0.8945960
  H       -1.2615120    -0.8984910     0.8942090
units angstrom
no_reorient  #important for SAPT in psi4, default
symmetry c1  #important for SAPT in psi4, default
}

set PROPERTIES_ORIGIN ["COM"]
properties('MP2/aug-cc-pvtz', properties = ['dipole'])
--------------------------------------------------------------------------

    Molecular point group: c1
  Charge       = 1
  Multiplicity = 1
  Basis Set: AUG-CC-PVTZ
    Blend: AUG-CC-PVTZ
  Basis Set: (AUG-CC-PVTZ AUX)
    Blend: AUG-CC-PVTZ-JKFIT

    Orbital Energies [Eh]
    ---------------------

    Doubly Occupied:

       1A    -15.899821     2A    -11.479634     3A    -11.474099
       4A     -1.541064     5A     -1.195748     6A     -1.127317
       7A     -0.992646     8A     -0.918248     9A     -0.861557
      10A     -0.774779    11A     -0.771464    12A     -0.737800
      13A     -0.730527

  @DF-RHF Final Energy:  -134.65957420381949

   => Energetics <=

    Nuclear Repulsion Energy =             92.1706547697151706
    One-Electron Energy =                -356.6510501859980877
    Two-Electron Energy =                 129.8208212124634429
    Total Energy =                       -134.6595742038194885
  Basis Set: (AUG-CC-PVTZ AUX)
    Blend: AUG-CC-PVTZ-RI
    Molecular point group: c1

    Geometry (in Angstrom), charge = 1, multiplicity = 1:

       Center              X                  Y                   Z               Mass
    ------------   -----------------  -----------------  -----------------  -----------------
         N            0.021824282974     0.518435975967     0.000011255986    14.003074004430
         C            1.197842982974    -0.247083724033    -0.000001844014    12.000000000000
         C           -1.237976717026    -0.301638024033    -0.000004744014    12.000000000000
         H            0.021825282974     1.139602975967     0.819625255986     1.007825032230
         H            0.021826282974     1.139576975967    -0.819680744014     1.007825032230
         H            1.284208282974    -0.921646024033     0.895107255986     1.007825032230
         H            1.282889282974    -0.923674024033    -0.893702744014     1.007825032230
         H            2.138522282974     0.370850975967    -0.001421744014     1.007825032230
         H           -2.094869717026     0.370828975967     0.000385255986     1.007825032230
         H           -1.240089717026    -0.922385024033    -0.894597744014     1.007825032230
         H           -1.239680717026    -0.922950024033     0.894207255986     1.007825032230

  Basis Set: AUG-CC-PVTZ
    Blend: AUG-CC-PVTZ
  Basis Set: (AUG-CC-PVTZ AUX)
    Blend: AUG-CC-PVTZ-JKFIT
	 Reference Energy          =    -134.6595742038194885 [Eh]
	 Singles Energy            =      -0.0000000000000000 [Eh]
	 Same-Spin Energy          =      -0.1313340523060444 [Eh]
	 Opposite-Spin Energy      =      -0.5021945408157986 [Eh]
	 Correlation Energy        =      -0.6335285931218431 [Eh]
	 Total Energy              =    -135.2931027969413265 [Eh]

	 ================> DF-SCS-MP2 Energies <==================
	-----------------------------------------------------------
	 SCS Same-Spin Scale       =       0.3333333333333333 [-]
	 SCS Opposite-Spin Scale   =       1.2000000000000000 [-]
	 SCS Same-Spin Energy      =      -0.0437780174353481 [Eh]
	 SCS Opposite-Spin Energy  =      -0.6026334489789583 [Eh]
	 SCS Correlation Energy    =      -0.6464114664143065 [Eh]
	 SCS Total Energy          =    -135.3059856702337811 [Eh]
	-----------------------------------------------------------

  Dipole Moment: [D]
     X:    -0.0789      Y:     1.4616      Z:    -0.0001     Total:     1.4637

*** Psi4 exiting successfully. Buy a developer a beer!
