                               Psi4 1.3.2 release

  ==> Input File <==

--------------------------------------------------------------------------
#psi4
#
memory 32 gb

molecule  {
1 1
  N       -0.0000070     0.5428950     0.0000130
  C        1.2743955    -0.2531083    -0.0442868
  C       -1.2598080    -0.2771790    -0.0000030
  H       -0.0000060     1.1640620     0.8196270
  H       -0.0000050     1.1640360    -0.8196790
  H        1.2623770    -0.8971870     0.8951090
  H        1.2610580    -0.8992150    -0.8937010
  H        2.1166910     0.3953100    -0.0014200
  H       -2.1167010     0.3952880     0.0003870
  H       -1.2619210    -0.8979260    -0.8945960
  H       -1.2615120    -0.8984910     0.8942090
units angstrom
no_reorient  #important for SAPT in psi4, default
symmetry c1  #important for SAPT in psi4, default
}

set PROPERTIES_ORIGIN ["COM"]
properties('MP2/aug-cc-pvtz', properties = ['dipole'])
--------------------------------------------------------------------------

    Molecular point group: c1
  Charge       = 1
  Multiplicity = 1
  Basis Set: AUG-CC-PVTZ
    Blend: AUG-CC-PVTZ
  Basis Set: (AUG-CC-PVTZ AUX)
    Blend: AUG-CC-PVTZ-JKFIT

    Orbital Energies [Eh]
    ---------------------

    Doubly Occupied:

       1A    -15.893534     2A    -11.476767     3A    -11.476630
       4A     -1.514068     5A     -1.190916     6A     -1.128487
       7A     -0.978403     8A     -0.904411     9A     -0.844607
      10A     -0.778791    11A     -0.767760    12A     -0.756877
      13A     -0.746103

  @DF-RHF Final Energy:  -134.66632442607076

   => Energetics <=

    Nuclear Repulsion Energy =             90.8683649247551699
    One-Electron Energy =                -354.1546692498835114
    Two-Electron Energy =                 128.6199798990575971
    Total Energy =                       -134.6663244260707586
  Basis Set: (AUG-CC-PVTZ AUX)
    Blend: AUG-CC-PVTZ-RI
    Molecular point group: c1

    Geometry (in Angstrom), charge = 1, multiplicity = 1:

       Center              X                  Y                   Z               Mass
    ------------   -----------------  -----------------  -----------------  -----------------
         N           -0.003804465957     0.526376882203     0.011547837368    14.003074004430
         C            1.270598034043    -0.269626417797    -0.032751962632    12.000000000000
         C           -1.263605465957    -0.293697117797     0.011531837368    12.000000000000
         H           -0.003803465957     1.147543882203     0.831161837368     1.007825032230
         H           -0.003802465957     1.147517882203    -0.808144162632     1.007825032230
         H            1.258579534043    -0.913705117797     0.906643837368     1.007825032230
         H            1.257260534043    -0.915733117797    -0.882166162632     1.007825032230
         H            2.112893534043     0.378791882203     0.010114837368     1.007825032230
         H           -2.120498465957     0.378769882203     0.011921837368     1.007825032230
         H           -1.265718465957    -0.914444117797    -0.883061162632     1.007825032230
         H           -1.265309465957    -0.915009117797     0.905743837368     1.007825032230

  Basis Set: AUG-CC-PVTZ
    Blend: AUG-CC-PVTZ
  Basis Set: (AUG-CC-PVTZ AUX)
    Blend: AUG-CC-PVTZ-JKFIT
	 Reference Energy          =    -134.6663244260707586 [Eh]
	 Singles Energy            =      -0.0000000000000000 [Eh]
	 Same-Spin Energy          =      -0.1304243080905473 [Eh]
	 Opposite-Spin Energy      =      -0.5018538564920392 [Eh]
	 Correlation Energy        =      -0.6322781645825866 [Eh]
	 Total Energy              =    -135.2986025906533314 [Eh]

	 ================> DF-SCS-MP2 Energies <==================
	-----------------------------------------------------------
	 SCS Same-Spin Scale       =       0.3333333333333333 [-]
	 SCS Opposite-Spin Scale   =       1.2000000000000000 [-]
	 SCS Same-Spin Energy      =      -0.0434747693635158 [Eh]
	 SCS Opposite-Spin Energy  =      -0.6022246277904469 [Eh]
	 SCS Correlation Energy    =      -0.6456993971539627 [Eh]
	 SCS Total Energy          =    -135.3120238232247345 [Eh]
	-----------------------------------------------------------

  Dipole Moment: [D]
     X:    -0.0215      Y:     1.4168      Z:     0.0331     Total:     1.4174

*** Psi4 exiting successfully. Buy a developer a beer!
