                               Psi4 1.4a3.dev225

  ==> Input File <==

--------------------------------------------------------------------------
#psi4
#
memory 32 gb

molecule  {
1 1
  N        0.0000000     0.5403170    -0.0000070
  C       -1.2521080    -0.2767230     0.0000100
  C        1.2521080    -0.2767230    -0.0000030
  H       -0.0000040     1.1617250    -0.8174450
  H        0.0000042     1.1920060     0.8572197
  H       -1.2523940    -0.8957080    -0.8943280
  H       -1.2523830    -0.8956890     0.8943600
  H       -2.1045790     0.3988920     0.0000070
  H        2.1045790     0.3988920    -0.0000120
  H        1.2523910    -0.8956900     0.8943470
  H        1.2523860    -0.8957070    -0.8943410
units angstrom
no_reorient  #important for SAPT in psi4, default
symmetry c1  #important for SAPT in psi4, default
}

set PROPERTIES_ORIGIN ["COM"]
properties('MP2/aug-cc-pvtz', properties = ['dipole'])
--------------------------------------------------------------------------

    Molecular point group: c1
  Charge       = 1
  Multiplicity = 1
  Basis Set: AUG-CC-PVTZ
    Blend: AUG-CC-PVTZ
  Basis Set: (AUG-CC-PVTZ AUX)
    Blend: AUG-CC-PVTZ-JKFIT

    Orbital Energies [Eh]
    ---------------------

    Doubly Occupied:

       1A    -15.896456     2A    -11.474746     3A    -11.474732
       4A     -1.511515     5A     -1.191104     6A     -1.125788
       7A     -0.972078     8A     -0.902088     9A     -0.844973
      10A     -0.777214    11A     -0.764937    12A     -0.755617
      13A     -0.750905

  @DF-RHF Final Energy:  -134.66635198154228

   => Energetics <=

    Nuclear Repulsion Energy =             91.0478096241622552
    One-Electron Energy =                -354.5440132577870145
    Two-Electron Energy =                 128.8298516520824819
    Total Energy =                       -134.6663519815422774
  Basis Set: (AUG-CC-PVTZ AUX)
    Blend: AUG-CC-PVTZ-RI
    Molecular point group: c1

    Geometry (in Angstrom), charge = 1, multiplicity = 1:

       Center              X                  Y                   Z               Mass
    ------------   -----------------  -----------------  -----------------  -----------------
         N           -0.000000004376     0.529677990095    -0.000877608662    14.003074004430
         C           -1.252108004376    -0.287362009905    -0.000860608662    12.000000000000
         C            1.252107995624    -0.287362009905    -0.000873608662    12.000000000000
         H           -0.000004004376     1.151085990095    -0.818315608662     1.007825032230
         H            0.000004195624     1.181366990095     0.856349091338     1.007825032230
         H           -1.252394004376    -0.906347009905    -0.895198608662     1.007825032230
         H           -1.252383004376    -0.906328009905     0.893489391338     1.007825032230
         H           -2.104579004376     0.388252990095    -0.000863608662     1.007825032230
         H            2.104578995624     0.388252990095    -0.000882608662     1.007825032230
         H            1.252390995624    -0.906329009905     0.893476391338     1.007825032230
         H            1.252385995624    -0.906346009905    -0.895211608662     1.007825032230

  Basis Set: AUG-CC-PVTZ
    Blend: AUG-CC-PVTZ
  Basis Set: (AUG-CC-PVTZ AUX)
    Blend: AUG-CC-PVTZ-JKFIT
	 Reference Energy          =    -134.6663519815422774 [Eh]
	 Singles Energy            =      -0.0000000000000000 [Eh]
	 Same-Spin Energy          =      -0.1307648048213258 [Eh]
	 Opposite-Spin Energy      =      -0.5024890982857424 [Eh]
	 Correlation Energy        =      -0.6332539031070682 [Eh]
	 Total Energy              =    -135.2996058846493383 [Eh]

	 ================> DF-SCS-MP2 Energies <==================
	-----------------------------------------------------------
	 SCS Same-Spin Scale       =       0.3333333333333333 [-]
	 SCS Opposite-Spin Scale   =       1.2000000000000000 [-]
	 SCS Same-Spin Energy      =      -0.0435882682737753 [Eh]
	 SCS Opposite-Spin Energy  =      -0.6029869179428908 [Eh]
	 SCS Correlation Energy    =      -0.6465751862166661 [Eh]
	 SCS Total Energy          =    -135.3129271677589429 [Eh]
	-----------------------------------------------------------

  Dipole Moment: [D]
     X:     0.0000      Y:     1.4893      Z:     0.0511     Total:     1.4902

*** Psi4 exiting successfully. Buy a developer a beer!
