                               Psi4 1.3.2 release

  ==> Input File <==

--------------------------------------------------------------------------
#psi4
#
memory 32 gb

molecule  {
0 1
  C        0.3607500    -0.1378060     0.4783360
  C        1.7144850    -0.5067070    -0.0610140
  C        1.2123340     0.9079950    -0.1890090
  C       -0.9791611    -0.6585511    -0.2457681
  C       -2.0823580     0.3074100     0.0307800
  H        0.2884170    -0.0635660     1.5625600
  H        1.7473340    -1.1149480    -0.9600470
  H        2.5174380    -0.7063170     0.6411980
  H        1.6733330     1.6758980     0.4236460
  H        0.9069420     1.2477170    -1.1746190
  H       -1.1377290    -1.6353390     0.1563050
  H       -0.7014120    -0.7176330    -1.2773050
  H       -2.3027070     0.3979840     1.0988780
  H       -1.8634650     1.3083430    -0.3520570
  H       -2.9839190    -0.0602930    -0.4684290
units angstrom
no_reorient  #important for SAPT in psi4, default
symmetry c1  #important for SAPT in psi4, default
}

set PROPERTIES_ORIGIN ["COM"]
properties('MP2/aug-cc-pvtz', properties = ['dipole'])
--------------------------------------------------------------------------

    Molecular point group: c1
  Charge       = 0
  Multiplicity = 1
  Basis Set: AUG-CC-PVTZ
    Blend: AUG-CC-PVTZ
  Basis Set: (AUG-CC-PVTZ AUX)
    Blend: AUG-CC-PVTZ-JKFIT

    Orbital Energies [Eh]
    ---------------------

    Doubly Occupied:

       1A    -11.226876     2A    -11.219237     3A    -11.218306
       4A    -11.217650     5A    -11.209179     6A     -1.135449
       7A     -1.025283     8A     -0.857304     9A     -0.814264
      10A     -0.767902    11A     -0.660007    12A     -0.618053
      13A     -0.601576    14A     -0.551396    15A     -0.531676
      16A     -0.506394    17A     -0.494828    18A     -0.451911
      19A     -0.404193    20A     -0.402111

  @DF-RHF Final Energy:  -195.19145497567720

   => Energetics <=

    Nuclear Repulsion Energy =            178.7313968543024032
    One-Electron Energy =                -616.0185169534960323
    Two-Electron Energy =                 242.0956651235164543
    Total Energy =                       -195.1914549756772033
  Basis Set: (AUG-CC-PVTZ AUX)
    Blend: AUG-CC-PVTZ-RI
    Molecular point group: c1

    Geometry (in Angstrom), charge = 0, multiplicity = 1:

       Center              X                  Y                   Z               Mass
    ------------   -----------------  -----------------  -----------------  -----------------
         C            0.348730445406    -0.127567923406     0.481085910894    12.000000000000
         C            1.702465445406    -0.496468923406    -0.058264089106    12.000000000000
         C            1.200314445406     0.918233076594    -0.186259089106    12.000000000000
         C           -0.991180654594    -0.648313023406    -0.243018189106    12.000000000000
         C           -2.094377554594     0.317648076594     0.033529910894    12.000000000000
         H            0.276397445406    -0.053327923406     1.565309910894     1.007825032230
         H            1.735314445406    -1.104709923406    -0.957297089106     1.007825032230
         H            2.505418445406    -0.696078923406     0.643947910894     1.007825032230
         H            1.661313445406     1.686136076594     0.426395910894     1.007825032230
         H            0.894922445406     1.257955076594    -1.171869089106     1.007825032230
         H           -1.149748554594    -1.625100923406     0.159054910894     1.007825032230
         H           -0.713431554594    -0.707394923406    -1.274555089106     1.007825032230
         H           -2.314726554594     0.408222076594     1.101627910894     1.007825032230
         H           -1.875484554594     1.318581076594    -0.349307089106     1.007825032230
         H           -2.995938554594    -0.050054923406    -0.465679089106     1.007825032230

  Basis Set: AUG-CC-PVTZ
    Blend: AUG-CC-PVTZ
  Basis Set: (AUG-CC-PVTZ AUX)
    Blend: AUG-CC-PVTZ-JKFIT
	 Reference Energy          =    -195.1914549756772033 [Eh]
	 Singles Energy            =      -0.0000000000000000 [Eh]
	 Same-Spin Energy          =      -0.2099501667877625 [Eh]
	 Opposite-Spin Energy      =      -0.7639421725861755 [Eh]
	 Correlation Energy        =      -0.9738923393739380 [Eh]
	 Total Energy              =    -196.1653473150511502 [Eh]

	 ================> DF-SCS-MP2 Energies <==================
	-----------------------------------------------------------
	 SCS Same-Spin Scale       =       0.3333333333333333 [-]
	 SCS Opposite-Spin Scale   =       1.2000000000000000 [-]
	 SCS Same-Spin Energy      =      -0.0699833889292542 [Eh]
	 SCS Opposite-Spin Energy  =      -0.9167306071034105 [Eh]
	 SCS Correlation Energy    =      -0.9867139960326646 [Eh]
	 SCS Total Energy          =    -196.1781689717098800 [Eh]
	-----------------------------------------------------------

  Dipole Moment: [D]
     X:    -0.1567      Y:    -0.0719      Z:     0.0645     Total:     0.1841

*** Psi4 exiting successfully. Buy a developer a beer!
