                               Psi4 1.3.2 release

  ==> Input File <==

--------------------------------------------------------------------------
#psi4
#
memory 32 gb

molecule  {
0 1
  C        0.3632349    -0.1834612     0.5045270
  C        1.7144850    -0.5067070    -0.0610140
  C        1.2123340     0.9079950    -0.1890090
  C       -0.8959170    -0.6261990    -0.2007820
  C       -2.0823580     0.3074100     0.0307800
  H        0.2884170    -0.0635660     1.5625600
  H        1.7473340    -1.1149480    -0.9600470
  H        2.5174380    -0.7063170     0.6411980
  H        1.6733330     1.6758980     0.4236460
  H        0.9069420     1.2477170    -1.1746190
  H       -1.1377290    -1.6353390     0.1563050
  H       -0.7014120    -0.7176330    -1.2773050
  H       -2.3027070     0.3979840     1.0988780
  H       -1.8634650     1.3083430    -0.3520570
  H       -2.9839190    -0.0602930    -0.4684290
units angstrom
no_reorient  #important for SAPT in psi4, default
symmetry c1  #important for SAPT in psi4, default
}

set PROPERTIES_ORIGIN ["COM"]
properties('MP2/aug-cc-pvtz', properties = ['dipole'])
--------------------------------------------------------------------------

    Molecular point group: c1
  Charge       = 0
  Multiplicity = 1
  Basis Set: AUG-CC-PVTZ
    Blend: AUG-CC-PVTZ
  Basis Set: (AUG-CC-PVTZ AUX)
    Blend: AUG-CC-PVTZ-JKFIT

    Orbital Energies [Eh]
    ---------------------

    Doubly Occupied:

       1A    -11.225293     2A    -11.221732     3A    -11.219609
       4A    -11.219056     5A    -11.209913     6A     -1.136605
       7A     -1.018292     8A     -0.866859     9A     -0.814633
      10A     -0.770186    11A     -0.660130    12A     -0.621320
      13A     -0.591843    14A     -0.553988    15A     -0.521295
      16A     -0.506314    17A     -0.488586    18A     -0.475473
      19A     -0.414990    20A     -0.387478

  @DF-RHF Final Energy:  -195.19759780195929

   => Energetics <=

    Nuclear Repulsion Energy =            179.2689000240548864
    One-Electron Energy =                -617.0858053628434163
    Two-Electron Energy =                 242.6193075368292114
    Total Energy =                       -195.1975978019592901
  Basis Set: (AUG-CC-PVTZ AUX)
    Blend: AUG-CC-PVTZ-RI
    Molecular point group: c1

    Geometry (in Angstrom), charge = 0, multiplicity = 1:

       Center              X                  Y                   Z               Mass
    ------------   -----------------  -----------------  -----------------  -----------------
         C            0.336535355605    -0.170945138450     0.495088747005    12.000000000000
         C            1.687785455605    -0.494190938450    -0.070452252995    12.000000000000
         C            1.185634455605     0.920511061550    -0.198447252995    12.000000000000
         C           -0.922616544395    -0.613682938450    -0.210220252995    12.000000000000
         C           -2.109057544395     0.319926061550     0.021341747005    12.000000000000
         H            0.261717455605    -0.051049938450     1.553121747005     1.007825032230
         H            1.720634455605    -1.102431938450    -0.969485252995     1.007825032230
         H            2.490738455605    -0.693800938450     0.631759747005     1.007825032230
         H            1.646633455605     1.688414061550     0.414207747005     1.007825032230
         H            0.880242455605     1.260233061550    -1.184057252995     1.007825032230
         H           -1.164428544395    -1.622822938450     0.146866747005     1.007825032230
         H           -0.728111544395    -0.705116938450    -1.286743252995     1.007825032230
         H           -2.329406544395     0.410500061550     1.089439747005     1.007825032230
         H           -1.890164544395     1.320859061550    -0.361495252995     1.007825032230
         H           -3.010618544395    -0.047776938450    -0.477867252995     1.007825032230

  Basis Set: AUG-CC-PVTZ
    Blend: AUG-CC-PVTZ
  Basis Set: (AUG-CC-PVTZ AUX)
    Blend: AUG-CC-PVTZ-JKFIT
	 Reference Energy          =    -195.1975978019592901 [Eh]
	 Singles Energy            =      -0.0000000000000000 [Eh]
	 Same-Spin Energy          =      -0.2100427410631503 [Eh]
	 Opposite-Spin Energy      =      -0.7640265269394304 [Eh]
	 Correlation Energy        =      -0.9740692680025806 [Eh]
	 Total Energy              =    -196.1716670699618703 [Eh]

	 ================> DF-SCS-MP2 Energies <==================
	-----------------------------------------------------------
	 SCS Same-Spin Scale       =       0.3333333333333333 [-]
	 SCS Opposite-Spin Scale   =       1.2000000000000000 [-]
	 SCS Same-Spin Energy      =      -0.0700142470210501 [Eh]
	 SCS Opposite-Spin Energy  =      -0.9168318323273165 [Eh]
	 SCS Correlation Energy    =      -0.9868460793483665 [Eh]
	 SCS Total Energy          =    -196.1844438813076579 [Eh]
	-----------------------------------------------------------

  Dipole Moment: [D]
     X:    -0.0687      Y:    -0.0838      Z:     0.0666     Total:     0.1272

*** Psi4 exiting successfully. Buy a developer a beer!
