                               Psi4 1.3.2 release

  ==> Input File <==

--------------------------------------------------------------------------
#psi4
#
memory 32 gb

molecule  {
0 1
  C        0.3607500    -0.1378060     0.4783360
  C        1.7144850    -0.5067070    -0.0610140
  C        1.2123340     0.9079950    -0.1890090
  C       -0.8126729    -0.5938469    -0.1557959
  C       -2.0823580     0.3074100     0.0307800
  H        0.2884170    -0.0635660     1.5625600
  H        1.7473340    -1.1149480    -0.9600470
  H        2.5174380    -0.7063170     0.6411980
  H        1.6733330     1.6758980     0.4236460
  H        0.9069420     1.2477170    -1.1746190
  H       -1.1377290    -1.6353390     0.1563050
  H       -0.7014120    -0.7176330    -1.2773050
  H       -2.3027070     0.3979840     1.0988780
  H       -1.8634650     1.3083430    -0.3520570
  H       -2.9839190    -0.0602930    -0.4684290
units angstrom
no_reorient  #important for SAPT in psi4, default
symmetry c1  #important for SAPT in psi4, default
}

set PROPERTIES_ORIGIN ["COM"]
properties('MP2/aug-cc-pvtz', properties = ['dipole'])
--------------------------------------------------------------------------

    Molecular point group: c1
  Charge       = 0
  Multiplicity = 1
  Basis Set: AUG-CC-PVTZ
    Blend: AUG-CC-PVTZ
  Basis Set: (AUG-CC-PVTZ AUX)
    Blend: AUG-CC-PVTZ-JKFIT

    Orbital Energies [Eh]
    ---------------------

    Doubly Occupied:

       1A    -11.222836     2A    -11.221710     3A    -11.220809
       4A    -11.220579     5A    -11.211330     6A     -1.151801
       7A     -1.015221     8A     -0.877304     9A     -0.818635
      10A     -0.763696    11A     -0.665720    12A     -0.630277
      13A     -0.584948    14A     -0.551971    15A     -0.517599
      16A     -0.507161    17A     -0.494971    18A     -0.473502
      19A     -0.409612    20A     -0.391247

  @DF-RHF Final Energy:  -195.18762989938074

   => Energetics <=

    Nuclear Repulsion Energy =            180.5952138424776479
    One-Electron Energy =                -619.6638327031046174
    Two-Electron Energy =                 243.8809889612462598
    Total Energy =                       -195.1876298993807382
  Basis Set: (AUG-CC-PVTZ AUX)
    Blend: AUG-CC-PVTZ-RI
    Molecular point group: c1

    Geometry (in Angstrom), charge = 0, multiplicity = 1:

       Center              X                  Y                   Z               Mass
    ------------   -----------------  -----------------  -----------------  -----------------
         C            0.320221480202    -0.138647686335     0.465679327610    12.000000000000
         C            1.673956480202    -0.507548686335    -0.073670672390    12.000000000000
         C            1.171805480202     0.907153313665    -0.201665672390    12.000000000000
         C           -0.853201419798    -0.594688586335    -0.168452572390    12.000000000000
         C           -2.122886519798     0.306568313665     0.018123327610    12.000000000000
         H            0.247888480202    -0.064407686335     1.549903327610     1.007825032230
         H            1.706805480202    -1.115789686335    -0.972703672390     1.007825032230
         H            2.476909480202    -0.707158686335     0.628541327610     1.007825032230
         H            1.632804480202     1.675056313665     0.410989327610     1.007825032230
         H            0.866413480202     1.246875313665    -1.187275672390     1.007825032230
         H           -1.178257519798    -1.636180686335     0.143648327610     1.007825032230
         H           -0.741940519798    -0.718474686335    -1.289961672390     1.007825032230
         H           -2.343235519798     0.397142313665     1.086221327610     1.007825032230
         H           -1.903993519798     1.307501313665    -0.364713672390     1.007825032230
         H           -3.024447519798    -0.061134686335    -0.481085672390     1.007825032230

  Basis Set: AUG-CC-PVTZ
    Blend: AUG-CC-PVTZ
  Basis Set: (AUG-CC-PVTZ AUX)
    Blend: AUG-CC-PVTZ-JKFIT
	 Reference Energy          =    -195.1876298993807382 [Eh]
	 Singles Energy            =      -0.0000000000000000 [Eh]
	 Same-Spin Energy          =      -0.2110235782382391 [Eh]
	 Opposite-Spin Energy      =      -0.7651242999936378 [Eh]
	 Correlation Energy        =      -0.9761478782318769 [Eh]
	 Total Energy              =    -196.1637777776126086 [Eh]

	 ================> DF-SCS-MP2 Energies <==================
	-----------------------------------------------------------
	 SCS Same-Spin Scale       =       0.3333333333333333 [-]
	 SCS Opposite-Spin Scale   =       1.2000000000000000 [-]
	 SCS Same-Spin Energy      =      -0.0703411927460797 [Eh]
	 SCS Opposite-Spin Energy  =      -0.9181491599923653 [Eh]
	 SCS Correlation Energy    =      -0.9884903527384450 [Eh]
	 SCS Total Energy          =    -196.1761202521191763 [Eh]
	-----------------------------------------------------------

  Dipole Moment: [D]
     X:     0.0025      Y:    -0.0283      Z:     0.0736     Total:     0.0789

*** Psi4 exiting successfully. Buy a developer a beer!
