                               Psi4 1.3.2 release

  ==> Input File <==

--------------------------------------------------------------------------
#psi4
#
memory 32 gb

molecule  {
0 1
  C        0.3641856    -0.2296558     0.5298586
  C        1.7144850    -0.5067070    -0.0610140
  C        1.2123340     0.9079950    -0.1890090
  C       -0.8959170    -0.6261990    -0.2007820
  C       -2.0823580     0.3074100     0.0307800
  H        0.2884170    -0.0635660     1.5625600
  H        1.7473340    -1.1149480    -0.9600470
  H        2.5174380    -0.7063170     0.6411980
  H        1.6733330     1.6758980     0.4236460
  H        0.9069420     1.2477170    -1.1746190
  H       -1.1377290    -1.6353390     0.1563050
  H       -0.7014120    -0.7176330    -1.2773050
  H       -2.3027070     0.3979840     1.0988780
  H       -1.8634650     1.3083430    -0.3520570
  H       -2.9839190    -0.0602930    -0.4684290
units angstrom
no_reorient  #important for SAPT in psi4, default
symmetry c1  #important for SAPT in psi4, default
}

set PROPERTIES_ORIGIN ["COM"]
properties('MP2/aug-cc-pvtz', properties = ['dipole'])
--------------------------------------------------------------------------

    Molecular point group: c1
  Charge       = 0
  Multiplicity = 1
  Basis Set: AUG-CC-PVTZ
    Blend: AUG-CC-PVTZ
  Basis Set: (AUG-CC-PVTZ AUX)
    Blend: AUG-CC-PVTZ-JKFIT

    Orbital Energies [Eh]
    ---------------------

    Doubly Occupied:

       1A    -11.226498     2A    -11.224373     3A    -11.219883
       4A    -11.219040     5A    -11.210109     6A     -1.131209
       7A     -1.017261     8A     -0.868501     9A     -0.813347
      10A     -0.773745    11A     -0.657834    12A     -0.619292
      13A     -0.590885    14A     -0.555868    15A     -0.523349
      16A     -0.506474    17A     -0.487438    18A     -0.478851
      19A     -0.422400    20A     -0.373431

  @DF-RHF Final Energy:  -195.19231793687879

   => Energetics <=

    Nuclear Repulsion Energy =            178.8938163673134056
    One-Electron Energy =                -616.3326876843377704
    Two-Electron Energy =                 242.2465533801455422
    Total Energy =                       -195.1923179368787942
  Basis Set: (AUG-CC-PVTZ AUX)
    Blend: AUG-CC-PVTZ-RI
    Molecular point group: c1

    Geometry (in Angstrom), charge = 0, multiplicity = 1:

       Center              X                  Y                   Z               Mass
    ------------   -----------------  -----------------  -----------------  -----------------
         C            0.337323260445    -0.209229506710     0.516082635966    12.000000000000
         C            1.687622660445    -0.486280706710    -0.074789964034    12.000000000000
         C            1.185471660445     0.928421293290    -0.202784964034    12.000000000000
         C           -0.922779339555    -0.605772706710    -0.214557964034    12.000000000000
         C           -2.109220339555     0.327836293290     0.017004035966    12.000000000000
         H            0.261554660445    -0.043139706710     1.548784035966     1.007825032230
         H            1.720471660445    -1.094521706710    -0.973822964034     1.007825032230
         H            2.490575660445    -0.685890706710     0.627422035966     1.007825032230
         H            1.646470660445     1.696324293290     0.409870035966     1.007825032230
         H            0.880079660445     1.268143293290    -1.188394964034     1.007825032230
         H           -1.164591339555    -1.614912706710     0.142529035966     1.007825032230
         H           -0.728274339555    -0.697206706710    -1.291080964034     1.007825032230
         H           -2.329569339555     0.418410293290     1.085102035966     1.007825032230
         H           -1.890327339555     1.328769293290    -0.365832964034     1.007825032230
         H           -3.010781339555    -0.039866706710    -0.482204964034     1.007825032230

  Basis Set: AUG-CC-PVTZ
    Blend: AUG-CC-PVTZ
  Basis Set: (AUG-CC-PVTZ AUX)
    Blend: AUG-CC-PVTZ-JKFIT
	 Reference Energy          =    -195.1923179368787942 [Eh]
	 Singles Energy            =      -0.0000000000000000 [Eh]
	 Same-Spin Energy          =      -0.2101740099441657 [Eh]
	 Opposite-Spin Energy      =      -0.7646108661832551 [Eh]
	 Correlation Energy        =      -0.9747848761274209 [Eh]
	 Total Energy              =    -196.1671028130062098 [Eh]

	 ================> DF-SCS-MP2 Energies <==================
	-----------------------------------------------------------
	 SCS Same-Spin Scale       =       0.3333333333333333 [-]
	 SCS Opposite-Spin Scale   =       1.2000000000000000 [-]
	 SCS Same-Spin Energy      =      -0.0700580033147219 [Eh]
	 SCS Opposite-Spin Energy  =      -0.9175330394199062 [Eh]
	 SCS Correlation Energy    =      -0.9875910427346281 [Eh]
	 SCS Total Energy          =    -196.1799089796134297 [Eh]
	-----------------------------------------------------------

  Dipole Moment: [D]
     X:    -0.0546      Y:    -0.1062      Z:     0.0626     Total:     0.1348

*** Psi4 exiting successfully. Buy a developer a beer!
