                               Psi4 1.4a3.dev225

  ==> Input File <==

--------------------------------------------------------------------------
#psi4
#
memory 32 gb

molecule  {
0 1
  C        0.3607500    -0.1378060     0.4783360
  C        1.7144850    -0.5067070    -0.0610140
  C        1.2123340     0.9079950    -0.1890090
  C       -0.8959170    -0.6261990    -0.2007820
  C       -2.0823580     0.3074100     0.0307800
  H        0.2897452    -0.0649292     1.5426508
  H        1.7473340    -1.1149480    -0.9600470
  H        2.5174380    -0.7063170     0.6411980
  H        1.6733330     1.6758980     0.4236460
  H        0.9069420     1.2477170    -1.1746190
  H       -1.1377290    -1.6353390     0.1563050
  H       -0.7014120    -0.7176330    -1.2773050
  H       -2.3027070     0.3979840     1.0988780
  H       -1.8634650     1.3083430    -0.3520570
  H       -2.9839190    -0.0602930    -0.4684290
units angstrom
no_reorient  #important for SAPT in psi4, default
symmetry c1  #important for SAPT in psi4, default
}

set PROPERTIES_ORIGIN ["COM"]
properties('MP2/aug-cc-pvtz', properties = ['dipole'])
--------------------------------------------------------------------------

    Molecular point group: c1
  Charge       = 0
  Multiplicity = 1
  Basis Set: AUG-CC-PVTZ
    Blend: AUG-CC-PVTZ
  Basis Set: (AUG-CC-PVTZ AUX)
    Blend: AUG-CC-PVTZ-JKFIT

    Orbital Energies [Eh]
    ---------------------

    Doubly Occupied:

       1A    -11.222556     2A    -11.219460     3A    -11.219321
       4A    -11.218753     5A    -11.209788     6A     -1.142550
       7A     -1.019386     8A     -0.865811     9A     -0.816132
      10A     -0.769268    11A     -0.662986    12A     -0.623594
      13A     -0.592789    14A     -0.552988    15A     -0.519983
      16A     -0.506121    17A     -0.489911    18A     -0.471955
      19A     -0.409572    20A     -0.399066

  @DF-RHF Final Energy:  -195.19954014739332

   => Energetics <=

    Nuclear Repulsion Energy =            179.7197333341664773
    One-Electron Energy =                -617.9745673036716198
    Two-Electron Energy =                 243.0552938221118495
    Total Energy =                       -195.1995401473933214
  Basis Set: (AUG-CC-PVTZ AUX)
    Blend: AUG-CC-PVTZ-RI
    Molecular point group: c1

    Geometry (in Angstrom), charge = 0, multiplicity = 1:

       Center              X                  Y                   Z               Mass
    ------------   -----------------  -----------------  -----------------  -----------------
         C            0.334456861397    -0.133088200113     0.473668941899    12.000000000000
         C            1.688191861397    -0.501989200113    -0.065681058101    12.000000000000
         C            1.186040861397     0.912712799887    -0.193676058101    12.000000000000
         C           -0.922210138603    -0.621481200113    -0.205449058101    12.000000000000
         C           -2.108651138603     0.312127799887     0.026112941899    12.000000000000
         H            0.263452061397    -0.060211400113     1.537983741899     1.007825032230
         H            1.721040861397    -1.110230200113    -0.964714058101     1.007825032230
         H            2.491144861397    -0.701599200113     0.636530941899     1.007825032230
         H            1.647039861397     1.680615799887     0.418978941899     1.007825032230
         H            0.880648861397     1.252434799887    -1.179286058101     1.007825032230
         H           -1.164022138603    -1.630621200113     0.151637941899     1.007825032230
         H           -0.727705138603    -0.712915200113    -1.281972058101     1.007825032230
         H           -2.329000138603     0.402701799887     1.094210941899     1.007825032230
         H           -1.889758138603     1.313060799887    -0.356724058101     1.007825032230
         H           -3.010212138603    -0.055575200113    -0.473096058101     1.007825032230

  Basis Set: AUG-CC-PVTZ
    Blend: AUG-CC-PVTZ
  Basis Set: (AUG-CC-PVTZ AUX)
    Blend: AUG-CC-PVTZ-JKFIT
	 Reference Energy          =    -195.1995401473933214 [Eh]
	 Singles Energy            =      -0.0000000000000000 [Eh]
	 Same-Spin Energy          =      -0.2100445177579643 [Eh]
	 Opposite-Spin Energy      =      -0.7636807698089187 [Eh]
	 Correlation Energy        =      -0.9737252875668830 [Eh]
	 Total Energy              =    -196.1732654349602001 [Eh]

	 ================> DF-SCS-MP2 Energies <==================
	-----------------------------------------------------------
	 SCS Same-Spin Scale       =       0.3333333333333333 [-]
	 SCS Opposite-Spin Scale   =       1.2000000000000000 [-]
	 SCS Same-Spin Energy      =      -0.0700148392526548 [Eh]
	 SCS Opposite-Spin Energy  =      -0.9164169237707025 [Eh]
	 SCS Correlation Energy    =      -0.9864317630233572 [Eh]
	 SCS Total Energy          =    -196.1859719104166686 [Eh]
	-----------------------------------------------------------

  Dipole Moment: [D]
     X:    -0.0882      Y:    -0.0581      Z:     0.0763     Total:     0.1302

*** Psi4 exiting successfully. Buy a developer a beer!
