                               Psi4 1.3.2 release

  ==> Input File <==

--------------------------------------------------------------------------
#psi4
#
memory 32 gb

molecule  {
0 1
  C        0.3607500    -0.1378060     0.4783360
  C        1.7144850    -0.5067070    -0.0610140
  C        1.2123340     0.9079950    -0.1890090
  C       -0.8959170    -0.6261990    -0.2007820
  C       -2.0823580     0.3074100     0.0307800
  H        0.2751347    -0.0499336     1.7616523
  H        1.7473340    -1.1149480    -0.9600470
  H        2.5174380    -0.7063170     0.6411980
  H        1.6733330     1.6758980     0.4236460
  H        0.9069420     1.2477170    -1.1746190
  H       -1.1377290    -1.6353390     0.1563050
  H       -0.7014120    -0.7176330    -1.2773050
  H       -2.3027070     0.3979840     1.0988780
  H       -1.8634650     1.3083430    -0.3520570
  H       -2.9839190    -0.0602930    -0.4684290
units angstrom
no_reorient  #important for SAPT in psi4, default
symmetry c1  #important for SAPT in psi4, default
}

set PROPERTIES_ORIGIN ["COM"]
properties('MP2/aug-cc-pvtz', properties = ['dipole'])
--------------------------------------------------------------------------

    Molecular point group: c1
  Charge       = 0
  Multiplicity = 1
  Basis Set: AUG-CC-PVTZ
    Blend: AUG-CC-PVTZ
  Basis Set: (AUG-CC-PVTZ AUX)
    Blend: AUG-CC-PVTZ-JKFIT

    Orbital Energies [Eh]
    ---------------------

    Doubly Occupied:

       1A    -11.247342     2A    -11.222406     3A    -11.222027
       4A    -11.221363     5A    -11.210021     6A     -1.141760
       7A     -1.020733     8A     -0.864250     9A     -0.818113
      10A     -0.747338    11A     -0.656416    12A     -0.623288
      13A     -0.593554    14A     -0.544092    15A     -0.518371
      16A     -0.507330    17A     -0.490258    18A     -0.459360
      19A     -0.406959    20A     -0.401905

  @DF-RHF Final Energy:  -195.17863511563274

   => Energetics <=

    Nuclear Repulsion Energy =            178.7773997178218508
    One-Electron Energy =                -616.0782970382648500
    Two-Electron Energy =                 242.1222622048102835
    Total Energy =                       -195.1786351156327441
  Basis Set: (AUG-CC-PVTZ AUX)
    Blend: AUG-CC-PVTZ-RI
    Molecular point group: c1

    Geometry (in Angstrom), charge = 0, multiplicity = 1:

       Center              X                  Y                   Z               Mass
    ------------   -----------------  -----------------  -----------------  -----------------
         C            0.334666981192    -0.133303858195     0.470519388468    12.000000000000
         C            1.688401981192    -0.502204858195    -0.068830611532    12.000000000000
         C            1.186250981192     0.912497141805    -0.196825611532    12.000000000000
         C           -0.922000018808    -0.621696858195    -0.208598611532    12.000000000000
         C           -2.108441018808     0.311912141805     0.022963388468    12.000000000000
         H            0.249051681192    -0.045431458195     1.753835688468     1.007825032230
         H            1.721250981192    -1.110445858195    -0.967863611532     1.007825032230
         H            2.491354981192    -0.701814858195     0.633381388468     1.007825032230
         H            1.647249981192     1.680400141805     0.415829388468     1.007825032230
         H            0.880858981192     1.252219141805    -1.182435611532     1.007825032230
         H           -1.163812018808    -1.630836858195     0.148488388468     1.007825032230
         H           -0.727495018808    -0.713130858195    -1.285121611532     1.007825032230
         H           -2.328790018808     0.402486141805     1.091061388468     1.007825032230
         H           -1.889548018808     1.312845141805    -0.359873611532     1.007825032230
         H           -3.010002018808    -0.055790858195    -0.476245611532     1.007825032230

  Basis Set: AUG-CC-PVTZ
    Blend: AUG-CC-PVTZ
  Basis Set: (AUG-CC-PVTZ AUX)
    Blend: AUG-CC-PVTZ-JKFIT
	 Reference Energy          =    -195.1786351156327441 [Eh]
	 Singles Energy            =      -0.0000000000000000 [Eh]
	 Same-Spin Energy          =      -0.2101867214290201 [Eh]
	 Opposite-Spin Energy      =      -0.7653285360820139 [Eh]
	 Correlation Energy        =      -0.9755152575110340 [Eh]
	 Total Energy              =    -196.1541503731437786 [Eh]

	 ================> DF-SCS-MP2 Energies <==================
	-----------------------------------------------------------
	 SCS Same-Spin Scale       =       0.3333333333333333 [-]
	 SCS Opposite-Spin Scale   =       1.2000000000000000 [-]
	 SCS Same-Spin Energy      =      -0.0700622404763400 [Eh]
	 SCS Opposite-Spin Energy  =      -0.9183942432984167 [Eh]
	 SCS Correlation Energy    =      -0.9884564837747567 [Eh]
	 SCS Total Energy          =    -196.1670915994075131 [Eh]
	-----------------------------------------------------------

  Dipole Moment: [D]
     X:    -0.0599      Y:    -0.0611      Z:    -0.0789     Total:     0.1164

*** Psi4 exiting successfully. Buy a developer a beer!
