                               Psi4 1.4a3.dev225

  ==> Input File <==

--------------------------------------------------------------------------
#psi4
#
memory 32 gb

molecule  {
0 1
  C        0.3607500    -0.1378060     0.4783360
  C        1.7144850    -0.5067070    -0.0610140
  C        1.2123340     0.9079950    -0.1890090
  C       -0.8959170    -0.6261990    -0.2007820
  C       -2.0823580     0.3074100     0.0307800
  H        0.2850964    -0.0601579     1.6123331
  H        1.7473340    -1.1149480    -0.9600470
  H        2.5174380    -0.7063170     0.6411980
  H        1.6733330     1.6758980     0.4236460
  H        0.9069420     1.2477170    -1.1746190
  H       -1.1377290    -1.6353390     0.1563050
  H       -0.7014120    -0.7176330    -1.2773050
  H       -2.3027070     0.3979840     1.0988780
  H       -1.8634650     1.3083430    -0.3520570
  H       -2.9839190    -0.0602930    -0.4684290
units angstrom
no_reorient  #important for SAPT in psi4, default
symmetry c1  #important for SAPT in psi4, default
}

set PROPERTIES_ORIGIN ["COM"]
properties('MP2/aug-cc-pvtz', properties = ['dipole'])
--------------------------------------------------------------------------

    Molecular point group: c1
  Charge       = 0
  Multiplicity = 1
  Basis Set: AUG-CC-PVTZ
    Blend: AUG-CC-PVTZ
  Basis Set: (AUG-CC-PVTZ AUX)
    Blend: AUG-CC-PVTZ-JKFIT

    Orbital Energies [Eh]
    ---------------------

    Doubly Occupied:

       1A    -11.230809     2A    -11.220257     3A    -11.220051
       4A    -11.219401     5A    -11.209827     6A     -1.141804
       7A     -1.019717     8A     -0.864831     9A     -0.816587
      10A     -0.760331    11A     -0.660690    12A     -0.623393
      13A     -0.592929    14A     -0.549649    15A     -0.519479
      16A     -0.506399    17A     -0.489937    18A     -0.468586
      19A     -0.409026    20A     -0.399757

  @DF-RHF Final Energy:  -195.19720004580907

   => Energetics <=

    Nuclear Repulsion Energy =            179.3948454886293860
    One-Electron Energy =                -617.3371652543297614
    Two-Electron Energy =                 242.7451197198913349
    Total Energy =                       -195.1972000458090690
  Basis Set: (AUG-CC-PVTZ AUX)
    Blend: AUG-CC-PVTZ-RI
    Molecular point group: c1

    Geometry (in Angstrom), charge = 0, multiplicity = 1:

       Center              X                  Y                   Z               Mass
    ------------   -----------------  -----------------  -----------------  -----------------
         C            0.334523717761    -0.133156818202     0.472666811197    12.000000000000
         C            1.688258717761    -0.502057818202    -0.066683188803    12.000000000000
         C            1.186107717761     0.912644181798    -0.194678188803    12.000000000000
         C           -0.922143282239    -0.621549818202    -0.206451188803    12.000000000000
         C           -2.108584282239     0.312059181798     0.025110811197    12.000000000000
         H            0.258870117761    -0.055508718202     1.606663911197     1.007825032230
         H            1.721107717761    -1.110298818202    -0.965716188803     1.007825032230
         H            2.491211717761    -0.701667818202     0.635528811197     1.007825032230
         H            1.647106717761     1.680547181798     0.417976811197     1.007825032230
         H            0.880715717761     1.252366181798    -1.180288188803     1.007825032230
         H           -1.163955282239    -1.630689818202     0.150635811197     1.007825032230
         H           -0.727638282239    -0.712983818202    -1.282974188803     1.007825032230
         H           -2.328933282239     0.402633181798     1.093208811197     1.007825032230
         H           -1.889691282239     1.312992181798    -0.357726188803     1.007825032230
         H           -3.010145282239    -0.055643818202    -0.474098188803     1.007825032230

  Basis Set: AUG-CC-PVTZ
    Blend: AUG-CC-PVTZ
  Basis Set: (AUG-CC-PVTZ AUX)
    Blend: AUG-CC-PVTZ-JKFIT
	 Reference Energy          =    -195.1972000458090690 [Eh]
	 Singles Energy            =      -0.0000000000000000 [Eh]
	 Same-Spin Energy          =      -0.2100846625937954 [Eh]
	 Opposite-Spin Energy      =      -0.7640660245703528 [Eh]
	 Correlation Energy        =      -0.9741506871641482 [Eh]
	 Total Energy              =    -196.1713507329732238 [Eh]

	 ================> DF-SCS-MP2 Energies <==================
	-----------------------------------------------------------
	 SCS Same-Spin Scale       =       0.3333333333333333 [-]
	 SCS Opposite-Spin Scale   =       1.2000000000000000 [-]
	 SCS Same-Spin Energy      =      -0.0700282208645985 [Eh]
	 SCS Opposite-Spin Energy  =      -0.9168792294844232 [Eh]
	 SCS Correlation Energy    =      -0.9869074503490217 [Eh]
	 SCS Total Energy          =    -196.1841074961580773 [Eh]
	-----------------------------------------------------------

  Dipole Moment: [D]
     X:    -0.0811      Y:    -0.0591      Z:     0.0377     Total:     0.1072

*** Psi4 exiting successfully. Buy a developer a beer!
