                               Psi4 1.3.2 release

  ==> Input File <==

--------------------------------------------------------------------------
#psi4
#
memory 32 gb

molecule  {
0 1
  C        0.2753867    -0.0151586     0.5297098
  C        1.7144850    -0.5067070    -0.0610140
  C        1.2123340     0.9079950    -0.1890090
  C       -0.8959170    -0.6261990    -0.2007820
  C       -2.0823580     0.3074100     0.0307800
  H        0.2884170    -0.0635660     1.5625600
  H        1.7473340    -1.1149480    -0.9600470
  H        2.5174380    -0.7063170     0.6411980
  H        1.6733330     1.6758980     0.4236460
  H        0.9069420     1.2477170    -1.1746190
  H       -1.1377290    -1.6353390     0.1563050
  H       -0.7014120    -0.7176330    -1.2773050
  H       -2.3027070     0.3979840     1.0988780
  H       -1.8634650     1.3083430    -0.3520570
  H       -2.9839190    -0.0602930    -0.4684290
units angstrom
no_reorient  #important for SAPT in psi4, default
symmetry c1  #important for SAPT in psi4, default
}

set PROPERTIES_ORIGIN ["COM"]
properties('MP2/aug-cc-pvtz', properties = ['dipole'])
--------------------------------------------------------------------------

    Molecular point group: c1
  Charge       = 0
  Multiplicity = 1
  Basis Set: AUG-CC-PVTZ
    Blend: AUG-CC-PVTZ
  Basis Set: (AUG-CC-PVTZ AUX)
    Blend: AUG-CC-PVTZ-JKFIT

    Orbital Energies [Eh]
    ---------------------

    Doubly Occupied:

       1A    -11.227757     2A    -11.226873     3A    -11.220454
       4A    -11.218890     5A    -11.207357     6A     -1.127805
       7A     -1.018260     8A     -0.862976     9A     -0.814419
      10A     -0.777618    11A     -0.659123    12A     -0.620140
      13A     -0.591581    14A     -0.558423    15A     -0.515475
      16A     -0.505911    17A     -0.490462    18A     -0.480792
      19A     -0.431225    20A     -0.360076

  @DF-RHF Final Energy:  -195.18397672881773

   => Energetics <=

    Nuclear Repulsion Energy =            179.0629645815888296
    One-Electron Energy =                -616.6626508862817673
    Two-Electron Energy =                 242.4157095758751836
    Total Energy =                       -195.1839767288177256
  Basis Set: (AUG-CC-PVTZ AUX)
    Blend: AUG-CC-PVTZ-RI
    Molecular point group: c1

    Geometry (in Angstrom), charge = 0, multiplicity = 1:

       Center              X                  Y                   Z               Mass
    ------------   -----------------  -----------------  -----------------  -----------------
         C            0.263730031179    -0.031462196343     0.515959316055    12.000000000000
         C            1.702828331179    -0.523010596343    -0.074764483945    12.000000000000
         C            1.200677331179     0.891691403657    -0.202759483945    12.000000000000
         C           -0.907573668821    -0.642502596343    -0.214532483945    12.000000000000
         C           -2.094014668821     0.291106403657     0.017029516055    12.000000000000
         H            0.276760331179    -0.079869596343     1.548809516055     1.007825032230
         H            1.735677331179    -1.131251596343    -0.973797483945     1.007825032230
         H            2.505781331179    -0.722620596343     0.627447516055     1.007825032230
         H            1.661676331179     1.659594403657     0.409895516055     1.007825032230
         H            0.895285331179     1.231413403657    -1.188369483945     1.007825032230
         H           -1.149385668821    -1.651642596343     0.142554516055     1.007825032230
         H           -0.713068668821    -0.733936596343    -1.291055483945     1.007825032230
         H           -2.314363668821     0.381680403657     1.085127516055     1.007825032230
         H           -1.875121668821     1.292039403657    -0.365807483945     1.007825032230
         H           -2.995575668821    -0.076596596343    -0.482179483945     1.007825032230

  Basis Set: AUG-CC-PVTZ
    Blend: AUG-CC-PVTZ
  Basis Set: (AUG-CC-PVTZ AUX)
    Blend: AUG-CC-PVTZ-JKFIT
	 Reference Energy          =    -195.1839767288177256 [Eh]
	 Singles Energy            =      -0.0000000000000000 [Eh]
	 Same-Spin Energy          =      -0.2105649455707436 [Eh]
	 Opposite-Spin Energy      =      -0.7657958086243744 [Eh]
	 Correlation Energy        =      -0.9763607541951179 [Eh]
	 Total Energy              =    -196.1603374830128530 [Eh]

	 ================> DF-SCS-MP2 Energies <==================
	-----------------------------------------------------------
	 SCS Same-Spin Scale       =       0.3333333333333333 [-]
	 SCS Opposite-Spin Scale   =       1.2000000000000000 [-]
	 SCS Same-Spin Energy      =      -0.0701883151902478 [Eh]
	 SCS Opposite-Spin Energy  =      -0.9189549703492492 [Eh]
	 SCS Correlation Energy    =      -0.9891432855394970 [Eh]
	 SCS Total Energy          =    -196.1731200143572096 [Eh]
	-----------------------------------------------------------

  Dipole Moment: [D]
     X:    -0.0700      Y:     0.0079      Z:     0.0382     Total:     0.0801

*** Psi4 exiting successfully. Buy a developer a beer!
