                               Psi4 1.3.2 release

  ==> Input File <==

--------------------------------------------------------------------------
#psi4
#
memory 32 gb

molecule  {
0 1
  C        0.3607500    -0.1378060     0.4783360
  C        1.7048403    -0.5055364    -0.0853841
  C        1.2123340     0.9079950    -0.1890090
  C       -0.8959170    -0.6261990    -0.2007820
  C       -2.0823580     0.3074100     0.0307800
  H        0.2884170    -0.0635660     1.5625600
  H        1.7473340    -1.1149480    -0.9600470
  H        2.5174380    -0.7063170     0.6411980
  H        1.6733330     1.6758980     0.4236460
  H        0.9069420     1.2477170    -1.1746190
  H       -1.1377290    -1.6353390     0.1563050
  H       -0.7014120    -0.7176330    -1.2773050
  H       -2.3027070     0.3979840     1.0988780
  H       -1.8634650     1.3083430    -0.3520570
  H       -2.9839190    -0.0602930    -0.4684290
units angstrom
no_reorient  #important for SAPT in psi4, default
symmetry c1  #important for SAPT in psi4, default
}

set PROPERTIES_ORIGIN ["COM"]
properties('MP2/aug-cc-pvtz', properties = ['dipole'])
--------------------------------------------------------------------------

    Molecular point group: c1
  Charge       = 0
  Multiplicity = 1
  Basis Set: AUG-CC-PVTZ
    Blend: AUG-CC-PVTZ
  Basis Set: (AUG-CC-PVTZ AUX)
    Blend: AUG-CC-PVTZ-JKFIT

    Orbital Energies [Eh]
    ---------------------

    Doubly Occupied:

       1A    -11.224669     2A    -11.219584     3A    -11.219340
       4A    -11.218913     5A    -11.209486     6A     -1.143355
       7A     -1.019339     8A     -0.865429     9A     -0.815951
      10A     -0.767201    11A     -0.660658    12A     -0.625963
      13A     -0.591508    14A     -0.552624    15A     -0.519886
      16A     -0.505770    17A     -0.489128    18A     -0.471038
      19A     -0.411263    20A     -0.397871

  @DF-RHF Final Energy:  -195.19862998267115

   => Energetics <=

    Nuclear Repulsion Energy =            179.7240655562443123
    One-Electron Energy =                -617.9874393240465906
    Two-Electron Energy =                 243.0647437851310997
    Total Energy =                       -195.1986299826711502
  Basis Set: (AUG-CC-PVTZ AUX)
    Blend: AUG-CC-PVTZ-RI
    Molecular point group: c1

    Geometry (in Angstrom), charge = 0, multiplicity = 1:

       Center              X                  Y                   Z               Mass
    ------------   -----------------  -----------------  -----------------  -----------------
         C            0.336127493764    -0.133308255080     0.477555685770    12.000000000000
         C            1.680217793764    -0.501038655080    -0.086164414230    12.000000000000
         C            1.187711493764     0.912492744920    -0.189789314230    12.000000000000
         C           -0.920539506236    -0.621701255080    -0.201562314230    12.000000000000
         C           -2.106980506236     0.311907744920     0.029999685770    12.000000000000
         H            0.263794493764    -0.059068255080     1.561779685770     1.007825032230
         H            1.722711493764    -1.110450255080    -0.960827314230     1.007825032230
         H            2.492815493764    -0.701819255080     0.640417685770     1.007825032230
         H            1.648710493764     1.680395744920     0.422865685770     1.007825032230
         H            0.882319493764     1.252214744920    -1.175399314230     1.007825032230
         H           -1.162351506236    -1.630841255080     0.155524685770     1.007825032230
         H           -0.726034506236    -0.713135255080    -1.278085314230     1.007825032230
         H           -2.327329506236     0.402481744920     1.098097685770     1.007825032230
         H           -1.888087506236     1.312840744920    -0.352837314230     1.007825032230
         H           -3.008541506236    -0.055795255080    -0.469209314230     1.007825032230

  Basis Set: AUG-CC-PVTZ
    Blend: AUG-CC-PVTZ
  Basis Set: (AUG-CC-PVTZ AUX)
    Blend: AUG-CC-PVTZ-JKFIT
	 Reference Energy          =    -195.1986299826711502 [Eh]
	 Singles Energy            =      -0.0000000000000000 [Eh]
	 Same-Spin Energy          =      -0.2100745900551096 [Eh]
	 Opposite-Spin Energy      =      -0.7637963072549965 [Eh]
	 Correlation Energy        =      -0.9738708973101060 [Eh]
	 Total Energy              =    -196.1725008799812429 [Eh]

	 ================> DF-SCS-MP2 Energies <==================
	-----------------------------------------------------------
	 SCS Same-Spin Scale       =       0.3333333333333333 [-]
	 SCS Opposite-Spin Scale   =       1.2000000000000000 [-]
	 SCS Same-Spin Energy      =      -0.0700248633517032 [Eh]
	 SCS Opposite-Spin Energy  =      -0.9165555687059957 [Eh]
	 SCS Correlation Energy    =      -0.9865804320576990 [Eh]
	 SCS Total Energy          =    -196.1852104147288571 [Eh]
	-----------------------------------------------------------

  Dipole Moment: [D]
     X:    -0.0832      Y:    -0.0587      Z:     0.0555     Total:     0.1160

*** Psi4 exiting successfully. Buy a developer a beer!
