                               Psi4 1.3.2 release

  ==> Input File <==

--------------------------------------------------------------------------
#psi4
#
memory 32 gb

molecule  {
0 1
  C        0.3607500    -0.1378060     0.4783360
  C        1.7144850    -0.5067070    -0.0610140
  C        1.2123340     0.9079950    -0.1890090
  C       -0.8959170    -0.6261990    -0.2007820
  C       -2.0823580     0.3074100     0.0307800
  H        0.2950581    -0.0703822     1.4630139
  H        1.7473340    -1.1149480    -0.9600470
  H        2.5174380    -0.7063170     0.6411980
  H        1.6733330     1.6758980     0.4236460
  H        0.9069420     1.2477170    -1.1746190
  H       -1.1377290    -1.6353390     0.1563050
  H       -0.7014120    -0.7176330    -1.2773050
  H       -2.3027070     0.3979840     1.0988780
  H       -1.8634650     1.3083430    -0.3520570
  H       -2.9839190    -0.0602930    -0.4684290
units angstrom
no_reorient  #important for SAPT in psi4, default
symmetry c1  #important for SAPT in psi4, default
}

set PROPERTIES_ORIGIN ["COM"]
properties('MP2/aug-cc-pvtz', properties = ['dipole'])
--------------------------------------------------------------------------

    Molecular point group: c1
  Charge       = 0
  Multiplicity = 1
  Basis Set: AUG-CC-PVTZ
    Blend: AUG-CC-PVTZ
  Basis Set: (AUG-CC-PVTZ AUX)
    Blend: AUG-CC-PVTZ-JKFIT

    Orbital Energies [Eh]
    ---------------------

    Doubly Occupied:

       1A    -11.218930     2A    -11.218716     3A    -11.218216
       4A    -11.212550     5A    -11.209768     6A     -1.144095
       7A     -1.019104     8A     -0.867871     9A     -0.815846
      10A     -0.781703    11A     -0.665585    12A     -0.623922
      13A     -0.592730    14A     -0.557030    15A     -0.520495
      16A     -0.505918    17A     -0.489962    18A     -0.475027
      19A     -0.410074    20A     -0.398522

  @DF-RHF Final Energy:  -195.19353481236817

   => Energetics <=

    Nuclear Repulsion Energy =            180.1269680142705170
    One-Electron Energy =                -618.7488759107706073
    Two-Electron Energy =                 243.4283730841319198
    Total Energy =                       -195.1935348123681706
  Basis Set: (AUG-CC-PVTZ AUX)
    Blend: AUG-CC-PVTZ-RI
    Molecular point group: c1

    Geometry (in Angstrom), charge = 0, multiplicity = 1:

       Center              X                  Y                   Z               Mass
    ------------   -----------------  -----------------  -----------------  -----------------
         C            0.334380454329    -0.133009778208     0.474814233926    12.000000000000
         C            1.688115454329    -0.501910778208    -0.064535766074    12.000000000000
         C            1.185964454329     0.912791221792    -0.192530766074    12.000000000000
         C           -0.922286545671    -0.621402778208    -0.204303766074    12.000000000000
         C           -2.108727545671     0.312206221792     0.027258233926    12.000000000000
         H            0.268688554329    -0.065585978208     1.459492133926     1.007825032230
         H            1.720964454329    -1.110151778208    -0.963568766074     1.007825032230
         H            2.491068454329    -0.701520778208     0.637676233926     1.007825032230
         H            1.646963454329     1.680694221792     0.420124233926     1.007825032230
         H            0.880572454329     1.252513221792    -1.178140766074     1.007825032230
         H           -1.164098545671    -1.630542778208     0.152783233926     1.007825032230
         H           -0.727781545671    -0.712836778208    -1.280826766074     1.007825032230
         H           -2.329076545671     0.402780221792     1.095356233926     1.007825032230
         H           -1.889834545671     1.313139221792    -0.355578766074     1.007825032230
         H           -3.010288545671    -0.055496778208    -0.471950766074     1.007825032230

  Basis Set: AUG-CC-PVTZ
    Blend: AUG-CC-PVTZ
  Basis Set: (AUG-CC-PVTZ AUX)
    Blend: AUG-CC-PVTZ-JKFIT
	 Reference Energy          =    -195.1935348123681706 [Eh]
	 Singles Energy            =      -0.0000000000000000 [Eh]
	 Same-Spin Energy          =      -0.2100230777511528 [Eh]
	 Opposite-Spin Energy      =      -0.7634624854180641 [Eh]
	 Correlation Energy        =      -0.9734855631692169 [Eh]
	 Total Energy              =    -196.1670203755373905 [Eh]

	 ================> DF-SCS-MP2 Energies <==================
	-----------------------------------------------------------
	 SCS Same-Spin Scale       =       0.3333333333333333 [-]
	 SCS Opposite-Spin Scale   =       1.2000000000000000 [-]
	 SCS Same-Spin Energy      =      -0.0700076925837176 [Eh]
	 SCS Opposite-Spin Energy  =      -0.9161549825016768 [Eh]
	 SCS Correlation Energy    =      -0.9861626750853945 [Eh]
	 SCS Total Energy          =    -196.1796974874535522 [Eh]
	-----------------------------------------------------------

  Dipole Moment: [D]
     X:    -0.0936      Y:    -0.0569      Z:     0.1081     Total:     0.1539

*** Psi4 exiting successfully. Buy a developer a beer!
