                               Psi4 1.3.2 release

  ==> Input File <==

--------------------------------------------------------------------------
#psi4
#
memory 32 gb

molecule  {
0 1
  C        0.3567341    -0.0927458     0.4513176
  C        1.7144850    -0.5067070    -0.0610140
  C        1.2123340     0.9079950    -0.1890090
  C       -0.8959170    -0.6261990    -0.2007820
  C       -2.0823580     0.3074100     0.0307800
  H        0.2884170    -0.0635660     1.5625600
  H        1.7473340    -1.1149480    -0.9600470
  H        2.5174380    -0.7063170     0.6411980
  H        1.6733330     1.6758980     0.4236460
  H        0.9069420     1.2477170    -1.1746190
  H       -1.1377290    -1.6353390     0.1563050
  H       -0.7014120    -0.7176330    -1.2773050
  H       -2.3027070     0.3979840     1.0988780
  H       -1.8634650     1.3083430    -0.3520570
  H       -2.9839190    -0.0602930    -0.4684290
units angstrom
no_reorient  #important for SAPT in psi4, default
symmetry c1  #important for SAPT in psi4, default
}

set PROPERTIES_ORIGIN ["COM"]
properties('MP2/aug-cc-pvtz', properties = ['dipole'])
--------------------------------------------------------------------------

    Molecular point group: c1
  Charge       = 0
  Multiplicity = 1
  Basis Set: AUG-CC-PVTZ
    Blend: AUG-CC-PVTZ
  Basis Set: (AUG-CC-PVTZ AUX)
    Blend: AUG-CC-PVTZ-JKFIT

    Orbital Energies [Eh]
    ---------------------

    Doubly Occupied:

       1A    -11.225445     2A    -11.220086     3A    -11.219421
       4A    -11.217063     5A    -11.209775     6A     -1.148224
       7A     -1.020831     8A     -0.864349     9A     -0.818189
      10A     -0.762866    11A     -0.664454    12A     -0.625899
      13A     -0.593831    14A     -0.549955    15A     -0.519083
      16A     -0.506106    17A     -0.491221    18A     -0.465912
      19A     -0.418785    20A     -0.395369

  @DF-RHF Final Energy:  -195.19737081125649

   => Energetics <=

    Nuclear Repulsion Energy =            179.9594542446969854
    One-Electron Energy =                -618.4399230362631670
    Two-Electron Energy =                 243.2830979803096909
    Total Energy =                       -195.1973708112564907
  Basis Set: (AUG-CC-PVTZ AUX)
    Blend: AUG-CC-PVTZ-RI
    Molecular point group: c1

    Geometry (in Angstrom), charge = 0, multiplicity = 1:

       Center              X                  Y                   Z               Mass
    ------------   -----------------  -----------------  -----------------  -----------------
         C            0.331147734083    -0.095763585185     0.450990773119    12.000000000000
         C            1.688898634083    -0.509724785185    -0.061340826881    12.000000000000
         C            1.186747634083     0.904977214815    -0.189335826881    12.000000000000
         C           -0.921503365917    -0.629216785185    -0.201108826881    12.000000000000
         C           -2.107944365917     0.304392214815     0.030453173119    12.000000000000
         H            0.262830634083    -0.066583785185     1.562233173119     1.007825032230
         H            1.721747634083    -1.117965785185    -0.960373826881     1.007825032230
         H            2.491851634083    -0.709334785185     0.640871173119     1.007825032230
         H            1.647746634083     1.672880214815     0.423319173119     1.007825032230
         H            0.881355634083     1.244699214815    -1.174945826881     1.007825032230
         H           -1.163315365917    -1.638356785185     0.155978173119     1.007825032230
         H           -0.726998365917    -0.720650785185    -1.277631826881     1.007825032230
         H           -2.328293365917     0.394966214815     1.098551173119     1.007825032230
         H           -1.889051365917     1.305325214815    -0.352383826881     1.007825032230
         H           -3.009505365917    -0.063310785185    -0.468755826881     1.007825032230

  Basis Set: AUG-CC-PVTZ
    Blend: AUG-CC-PVTZ
  Basis Set: (AUG-CC-PVTZ AUX)
    Blend: AUG-CC-PVTZ-JKFIT
	 Reference Energy          =    -195.1973708112564907 [Eh]
	 Singles Energy            =      -0.0000000000000000 [Eh]
	 Same-Spin Energy          =      -0.2102160146678856 [Eh]
	 Opposite-Spin Energy      =      -0.7638586068462168 [Eh]
	 Correlation Energy        =      -0.9740746215141023 [Eh]
	 Total Energy              =    -196.1714454327705823 [Eh]

	 ================> DF-SCS-MP2 Energies <==================
	-----------------------------------------------------------
	 SCS Same-Spin Scale       =       0.3333333333333333 [-]
	 SCS Opposite-Spin Scale   =       1.2000000000000000 [-]
	 SCS Same-Spin Energy      =      -0.0700720048892952 [Eh]
	 SCS Opposite-Spin Energy  =      -0.9166303282154601 [Eh]
	 SCS Correlation Energy    =      -0.9867023331047553 [Eh]
	 SCS Total Energy          =    -196.1840731443612356 [Eh]
	-----------------------------------------------------------

  Dipole Moment: [D]
     X:    -0.1087      Y:    -0.0315      Z:     0.0619     Total:     0.1290

*** Psi4 exiting successfully. Buy a developer a beer!
