                               Psi4 1.4a3.dev225

  ==> Input File <==

--------------------------------------------------------------------------
#psi4
#
memory 32 gb

molecule  {
0 1
  C        0.3607500    -0.1378060     0.4783360
  C        1.7144850    -0.5067070    -0.0610140
  C        1.2123340     0.9079950    -0.1890090
  C       -0.8792682    -0.6197286    -0.1917848
  C       -2.0823580     0.3074100     0.0307800
  H        0.2884170    -0.0635660     1.5625600
  H        1.7473340    -1.1149480    -0.9600470
  H        2.5174380    -0.7063170     0.6411980
  H        1.6733330     1.6758980     0.4236460
  H        0.9069420     1.2477170    -1.1746190
  H       -1.1377290    -1.6353390     0.1563050
  H       -0.7014120    -0.7176330    -1.2773050
  H       -2.3027070     0.3979840     1.0988780
  H       -1.8634650     1.3083430    -0.3520570
  H       -2.9839190    -0.0602930    -0.4684290
units angstrom
no_reorient  #important for SAPT in psi4, default
symmetry c1  #important for SAPT in psi4, default
}

set PROPERTIES_ORIGIN ["COM"]
properties('MP2/aug-cc-pvtz', properties = ['dipole'])
--------------------------------------------------------------------------

    Molecular point group: c1
  Charge       = 0
  Multiplicity = 1
  Basis Set: AUG-CC-PVTZ
    Blend: AUG-CC-PVTZ
  Basis Set: (AUG-CC-PVTZ AUX)
    Blend: AUG-CC-PVTZ-JKFIT

    Orbital Energies [Eh]
    ---------------------

    Doubly Occupied:

       1A    -11.224370     2A    -11.220070     3A    -11.219829
       4A    -11.219213     5A    -11.210041     6A     -1.143934
       7A     -1.018466     8A     -0.867552     9A     -0.816683
      10A     -0.766072    11A     -0.662916    12A     -0.624802
      13A     -0.591111    14A     -0.552050    15A     -0.518442
      16A     -0.505978    17A     -0.489973    18A     -0.473577
      19A     -0.409883    20A     -0.398033

  @DF-RHF Final Energy:  -195.19890100294944

   => Energetics <=

    Nuclear Repulsion Energy =            179.8106873271919710
    One-Electron Energy =                -618.1531867375622369
    Two-Electron Energy =                 243.1435984074207965
    Total Energy =                       -195.1989010029494409
  Basis Set: (AUG-CC-PVTZ AUX)
    Blend: AUG-CC-PVTZ-RI
    Molecular point group: c1

    Geometry (in Angstrom), charge = 0, multiplicity = 1:

       Center              X                  Y                   Z               Mass
    ------------   -----------------  -----------------  -----------------  -----------------
         C            0.331625069708    -0.134215777738     0.471841964349    12.000000000000
         C            1.685360069708    -0.503116777738    -0.067508035651    12.000000000000
         C            1.183209069708     0.911585222262    -0.195503035651    12.000000000000
         C           -0.908393130292    -0.616138377738    -0.198278835651    12.000000000000
         C           -2.111482930292     0.311000222262     0.024285964349    12.000000000000
         H            0.259292069708    -0.059975777738     1.556065964349     1.007825032230
         H            1.718209069708    -1.111357777738    -0.966541035651     1.007825032230
         H            2.488313069708    -0.702726777738     0.634703964349     1.007825032230
         H            1.644208069708     1.679488222262     0.417151964349     1.007825032230
         H            0.877817069708     1.251307222262    -1.181113035651     1.007825032230
         H           -1.166853930292    -1.631748777738     0.149810964349     1.007825032230
         H           -0.730536930292    -0.714042777738    -1.283799035651     1.007825032230
         H           -2.331831930292     0.401574222262     1.092383964349     1.007825032230
         H           -1.892589930292     1.311933222262    -0.358551035651     1.007825032230
         H           -3.013043930292    -0.056702777738    -0.474923035651     1.007825032230

  Basis Set: AUG-CC-PVTZ
    Blend: AUG-CC-PVTZ
  Basis Set: (AUG-CC-PVTZ AUX)
    Blend: AUG-CC-PVTZ-JKFIT
	 Reference Energy          =    -195.1989010029494409 [Eh]
	 Singles Energy            =      -0.0000000000000000 [Eh]
	 Same-Spin Energy          =      -0.2101744941599459 [Eh]
	 Opposite-Spin Energy      =      -0.7639157108875871 [Eh]
	 Correlation Energy        =      -0.9740902050475331 [Eh]
	 Total Energy              =    -196.1729912079969722 [Eh]

	 ================> DF-SCS-MP2 Energies <==================
	-----------------------------------------------------------
	 SCS Same-Spin Scale       =       0.3333333333333333 [-]
	 SCS Opposite-Spin Scale   =       1.2000000000000000 [-]
	 SCS Same-Spin Energy      =      -0.0700581647199820 [Eh]
	 SCS Opposite-Spin Energy  =      -0.9166988530651046 [Eh]
	 SCS Correlation Energy    =      -0.9867570177850865 [Eh]
	 SCS Total Energy          =    -196.1856580207345360 [Eh]
	-----------------------------------------------------------

  Dipole Moment: [D]
     X:    -0.0704      Y:    -0.0538      Z:     0.0672     Total:     0.1113

*** Psi4 exiting successfully. Buy a developer a beer!
