                               Psi4 1.3.2 release

  ==> Input File <==

--------------------------------------------------------------------------
#psi4
#
memory 32 gb

molecule  {
0 1
  C        0.3607500    -0.1378060     0.4783360
  C        1.6505387    -0.4980116    -0.2045123
  C        1.2123340     0.9079950    -0.1890090
  C       -0.8959170    -0.6261990    -0.2007820
  C       -2.0823580     0.3074100     0.0307800
  H        0.2884170    -0.0635660     1.5625600
  H        1.7473340    -1.1149480    -0.9600470
  H        2.5174380    -0.7063170     0.6411980
  H        1.6733330     1.6758980     0.4236460
  H        0.9069420     1.2477170    -1.1746190
  H       -1.1377290    -1.6353390     0.1563050
  H       -0.7014120    -0.7176330    -1.2773050
  H       -2.3027070     0.3979840     1.0988780
  H       -1.8634650     1.3083430    -0.3520570
  H       -2.9839190    -0.0602930    -0.4684290
units angstrom
no_reorient  #important for SAPT in psi4, default
symmetry c1  #important for SAPT in psi4, default
}

set PROPERTIES_ORIGIN ["COM"]
properties('MP2/aug-cc-pvtz', properties = ['dipole'])
--------------------------------------------------------------------------

    Molecular point group: c1
  Charge       = 0
  Multiplicity = 1
  Basis Set: AUG-CC-PVTZ
    Blend: AUG-CC-PVTZ
  Basis Set: (AUG-CC-PVTZ AUX)
    Blend: AUG-CC-PVTZ-JKFIT

    Orbital Energies [Eh]
    ---------------------

    Doubly Occupied:

       1A    -11.225220     2A    -11.222404     3A    -11.220690
       4A    -11.218510     5A    -11.208406     6A     -1.149759
       7A     -1.019301     8A     -0.866231     9A     -0.823018
      10A     -0.771000    11A     -0.655280    12A     -0.641108
      13A     -0.588264    14A     -0.554071    15A     -0.522128
      16A     -0.503670    17A     -0.479169    18A     -0.470575
      19A     -0.417751    20A     -0.389277

  @DF-RHF Final Energy:  -195.17156908744380

   => Energetics <=

    Nuclear Repulsion Energy =            180.2566119264635631
    One-Electron Energy =                -618.9646997347039132
    Two-Electron Energy =                 243.5365187207965505
    Total Energy =                       -195.1715690874437996
  Basis Set: (AUG-CC-PVTZ AUX)
    Blend: AUG-CC-PVTZ-RI
    Molecular point group: c1

    Geometry (in Angstrom), charge = 0, multiplicity = 1:

       Center              X                  Y                   Z               Mass
    ------------   -----------------  -----------------  -----------------  -----------------
         C            0.345425945095    -0.134596780402     0.497954859456    12.000000000000
         C            1.635214645095    -0.494802380402    -0.184893440544    12.000000000000
         C            1.197009945095     0.911204219598    -0.169390140544    12.000000000000
         C           -0.911241054905    -0.622989780402    -0.181163140544    12.000000000000
         C           -2.097682054905     0.310619219598     0.050398859456    12.000000000000
         H            0.273092945095    -0.060356780402     1.582178859456     1.007825032230
         H            1.732009945095    -1.111738780402    -0.940428140544     1.007825032230
         H            2.502113945095    -0.703107780402     0.660816859456     1.007825032230
         H            1.658008945095     1.679107219598     0.443264859456     1.007825032230
         H            0.891617945095     1.250926219598    -1.155000140544     1.007825032230
         H           -1.153053054905    -1.632129780402     0.175923859456     1.007825032230
         H           -0.716736054905    -0.714423780402    -1.257686140544     1.007825032230
         H           -2.318031054905     0.401193219598     1.118496859456     1.007825032230
         H           -1.878789054905     1.311552219598    -0.332438140544     1.007825032230
         H           -2.999243054905    -0.057083780402    -0.448810140544     1.007825032230

  Basis Set: AUG-CC-PVTZ
    Blend: AUG-CC-PVTZ
  Basis Set: (AUG-CC-PVTZ AUX)
    Blend: AUG-CC-PVTZ-JKFIT
	 Reference Energy          =    -195.1715690874437996 [Eh]
	 Singles Energy            =      -0.0000000000000000 [Eh]
	 Same-Spin Energy          =      -0.2104994542131118 [Eh]
	 Opposite-Spin Energy      =      -0.7650638925966695 [Eh]
	 Correlation Energy        =      -0.9755633468097813 [Eh]
	 Total Energy              =    -196.1471324342535922 [Eh]

	 ================> DF-SCS-MP2 Energies <==================
	-----------------------------------------------------------
	 SCS Same-Spin Scale       =       0.3333333333333333 [-]
	 SCS Opposite-Spin Scale   =       1.2000000000000000 [-]
	 SCS Same-Spin Energy      =      -0.0701664847377039 [Eh]
	 SCS Opposite-Spin Energy  =      -0.9180766711160033 [Eh]
	 SCS Correlation Energy    =      -0.9882431558537073 [Eh]
	 SCS Total Energy          =    -196.1598122432974947 [Eh]
	-----------------------------------------------------------

  Dipole Moment: [D]
     X:    -0.1188      Y:    -0.0251      Z:     0.0016     Total:     0.1214

*** Psi4 exiting successfully. Buy a developer a beer!
