                               Psi4 1.3.2 release

  ==> Input File <==

--------------------------------------------------------------------------
#psi4
#
memory 32 gb

molecule  {
0 1
  C        0.3607500    -0.1378060     0.4783360
  C        1.7144850    -0.5067070    -0.0610140
  C        1.2123340     0.9079950    -0.1890090
  C       -0.9404779    -0.6326428    -0.1055162
  C       -2.0823580     0.3074100     0.0307800
  H        0.2884170    -0.0635660     1.5625600
  H        1.7473340    -1.1149480    -0.9600470
  H        2.5174380    -0.7063170     0.6411980
  H        1.6733330     1.6758980     0.4236460
  H        0.9069420     1.2477170    -1.1746190
  H       -1.1377290    -1.6353390     0.1563050
  H       -0.7014120    -0.7176330    -1.2773050
  H       -2.3027070     0.3979840     1.0988780
  H       -1.8634650     1.3083430    -0.3520570
  H       -2.9839190    -0.0602930    -0.4684290
units angstrom
no_reorient  #important for SAPT in psi4, default
symmetry c1  #important for SAPT in psi4, default
}

set PROPERTIES_ORIGIN ["COM"]
properties('MP2/aug-cc-pvtz', properties = ['dipole'])
--------------------------------------------------------------------------

    Molecular point group: c1
  Charge       = 0
  Multiplicity = 1
  Basis Set: AUG-CC-PVTZ
    Blend: AUG-CC-PVTZ
  Basis Set: (AUG-CC-PVTZ AUX)
    Blend: AUG-CC-PVTZ-JKFIT

    Orbital Energies [Eh]
    ---------------------

    Doubly Occupied:

       1A    -11.225498     2A    -11.223572     3A    -11.220811
       4A    -11.220171     5A    -11.209577     6A     -1.141771
       7A     -1.028536     8A     -0.867265     9A     -0.816692
      10A     -0.762463    11A     -0.664225    12A     -0.626168
      13A     -0.592518    14A     -0.560280    15A     -0.529146
      16A     -0.508270    17A     -0.486667    18A     -0.444808
      19A     -0.411236    20A     -0.404378

  @DF-RHF Final Energy:  -195.18774515978043

   => Energetics <=

    Nuclear Repulsion Energy =            179.6689276535379634
    One-Electron Energy =                -617.8252382773798672
    Two-Electron Energy =                 242.9685654640614985
    Total Energy =                       -195.1877451597804338
  Basis Set: (AUG-CC-PVTZ AUX)
    Blend: AUG-CC-PVTZ-RI
    Molecular point group: c1

    Geometry (in Angstrom), charge = 0, multiplicity = 1:

       Center              X                  Y                   Z               Mass
    ------------   -----------------  -----------------  -----------------  -----------------
         C            0.342106444409    -0.132004386911     0.457069574981    12.000000000000
         C            1.695841444409    -0.500905386911    -0.082280425019    12.000000000000
         C            1.193690444409     0.913796613089    -0.210275425019    12.000000000000
         C           -0.959121455591    -0.626841186911    -0.126782625019    12.000000000000
         C           -2.101001555591     0.313211613089     0.009513574981    12.000000000000
         H            0.269773444409    -0.057764386911     1.541293574981     1.007825032230
         H            1.728690444409    -1.109146386911    -0.981313425019     1.007825032230
         H            2.498794444409    -0.700515386911     0.619931574981     1.007825032230
         H            1.654689444409     1.681699613089     0.402379574981     1.007825032230
         H            0.888298444409     1.253518613089    -1.195885425019     1.007825032230
         H           -1.156372555591    -1.629537386911     0.135038574981     1.007825032230
         H           -0.720055555591    -0.711831386911    -1.298571425019     1.007825032230
         H           -2.321350555591     0.403785613089     1.077611574981     1.007825032230
         H           -1.882108555591     1.314144613089    -0.373323425019     1.007825032230
         H           -3.002562555591    -0.054491386911    -0.489695425019     1.007825032230

  Basis Set: AUG-CC-PVTZ
    Blend: AUG-CC-PVTZ
  Basis Set: (AUG-CC-PVTZ AUX)
    Blend: AUG-CC-PVTZ-JKFIT
	 Reference Energy          =    -195.1877451597804338 [Eh]
	 Singles Energy            =      -0.0000000000000000 [Eh]
	 Same-Spin Energy          =      -0.2104905103198804 [Eh]
	 Opposite-Spin Energy      =      -0.7646348095065058 [Eh]
	 Correlation Energy        =      -0.9751253198263861 [Eh]
	 Total Energy              =    -196.1628704796068234 [Eh]

	 ================> DF-SCS-MP2 Energies <==================
	-----------------------------------------------------------
	 SCS Same-Spin Scale       =       0.3333333333333333 [-]
	 SCS Opposite-Spin Scale   =       1.2000000000000000 [-]
	 SCS Same-Spin Energy      =      -0.0701635034399601 [Eh]
	 SCS Opposite-Spin Energy  =      -0.9175617714078068 [Eh]
	 SCS Correlation Energy    =      -0.9877252748477670 [Eh]
	 SCS Total Energy          =    -196.1754704346282097 [Eh]
	-----------------------------------------------------------

  Dipole Moment: [D]
     X:    -0.1082      Y:    -0.0509      Z:     0.1197     Total:     0.1692

*** Psi4 exiting successfully. Buy a developer a beer!
