                               Psi4 1.3.2 release

  ==> Input File <==

--------------------------------------------------------------------------
#psi4
#
memory 32 gb

molecule  {
0 1
  C        0.3607500    -0.1378060     0.4783360
  C        1.7144850    -0.5067070    -0.0610140
  C        1.2123340     0.9079950    -0.1890090
  C       -0.8176723    -0.6120849    -0.3373364
  C       -2.0823580     0.3074100     0.0307800
  H        0.2884170    -0.0635660     1.5625600
  H        1.7473340    -1.1149480    -0.9600470
  H        2.5174380    -0.7063170     0.6411980
  H        1.6733330     1.6758980     0.4236460
  H        0.9069420     1.2477170    -1.1746190
  H       -1.1377290    -1.6353390     0.1563050
  H       -0.7014120    -0.7176330    -1.2773050
  H       -2.3027070     0.3979840     1.0988780
  H       -1.8634650     1.3083430    -0.3520570
  H       -2.9839190    -0.0602930    -0.4684290
units angstrom
no_reorient  #important for SAPT in psi4, default
symmetry c1  #important for SAPT in psi4, default
}

set PROPERTIES_ORIGIN ["COM"]
properties('MP2/aug-cc-pvtz', properties = ['dipole'])
--------------------------------------------------------------------------

    Molecular point group: c1
  Charge       = 0
  Multiplicity = 1
  Basis Set: AUG-CC-PVTZ
    Blend: AUG-CC-PVTZ
  Basis Set: (AUG-CC-PVTZ AUX)
    Blend: AUG-CC-PVTZ-JKFIT

    Orbital Energies [Eh]
    ---------------------

    Doubly Occupied:

       1A    -11.227363     2A    -11.219946     3A    -11.218508
       4A    -11.217837     5A    -11.212828     6A     -1.144960
       7A     -1.008489     8A     -0.867514     9A     -0.816414
      10A     -0.781470    11A     -0.659006    12A     -0.633055
      13A     -0.585186    14A     -0.548507    15A     -0.522669
      16A     -0.508786    17A     -0.490439    18A     -0.479297
      19A     -0.403205    20A     -0.387590

  @DF-RHF Final Energy:  -195.16898291077709

   => Energetics <=

    Nuclear Repulsion Energy =            179.5673931876975189
    One-Electron Energy =                -617.6066112745398868
    Two-Electron Energy =                 242.8702351760652789
    Total Energy =                       -195.1689829107770890
  Basis Set: (AUG-CC-PVTZ AUX)
    Blend: AUG-CC-PVTZ-RI
    Molecular point group: c1

    Geometry (in Angstrom), charge = 0, multiplicity = 1:

       Center              X                  Y                   Z               Mass
    ------------   -----------------  -----------------  -----------------  -----------------
         C            0.321077563220    -0.135524663157     0.496765805797    12.000000000000
         C            1.674812563220    -0.504425663157    -0.042584194203    12.000000000000
         C            1.172661563220     0.910276336843    -0.170579194203    12.000000000000
         C           -0.857344736780    -0.609803563157    -0.318906594203    12.000000000000
         C           -2.122030436780     0.309691336843     0.049209805797    12.000000000000
         H            0.248744563220    -0.061284663157     1.580989805797     1.007825032230
         H            1.707661563220    -1.112666663157    -0.941617194203     1.007825032230
         H            2.477765563220    -0.704035663157     0.659627805797     1.007825032230
         H            1.633660563220     1.678179336843     0.442075805797     1.007825032230
         H            0.867269563220     1.249998336843    -1.156189194203     1.007825032230
         H           -1.177401436780    -1.633057663157     0.174734805797     1.007825032230
         H           -0.741084436780    -0.715351663157    -1.258875194203     1.007825032230
         H           -2.342379436780     0.400265336843     1.117307805797     1.007825032230
         H           -1.903137436780     1.310624336843    -0.333627194203     1.007825032230
         H           -3.023591436780    -0.058011663157    -0.449999194203     1.007825032230

  Basis Set: AUG-CC-PVTZ
    Blend: AUG-CC-PVTZ
  Basis Set: (AUG-CC-PVTZ AUX)
    Blend: AUG-CC-PVTZ-JKFIT
	 Reference Energy          =    -195.1689829107770890 [Eh]
	 Singles Energy            =      -0.0000000000000000 [Eh]
	 Same-Spin Energy          =      -0.2102367822652744 [Eh]
	 Opposite-Spin Energy      =      -0.7649197482400971 [Eh]
	 Correlation Energy        =      -0.9751565305053715 [Eh]
	 Total Energy              =    -196.1441394412824479 [Eh]

	 ================> DF-SCS-MP2 Energies <==================
	-----------------------------------------------------------
	 SCS Same-Spin Scale       =       0.3333333333333333 [-]
	 SCS Opposite-Spin Scale   =       1.2000000000000000 [-]
	 SCS Same-Spin Energy      =      -0.0700789274217581 [Eh]
	 SCS Opposite-Spin Energy  =      -0.9179036978881165 [Eh]
	 SCS Correlation Energy    =      -0.9879826253098747 [Eh]
	 SCS Total Energy          =    -196.1569655360869717 [Eh]
	-----------------------------------------------------------

  Dipole Moment: [D]
     X:    -0.0434      Y:    -0.0190      Z:     0.0562     Total:     0.0734

*** Psi4 exiting successfully. Buy a developer a beer!
