                               Psi4 1.3.2 release

  ==> Input File <==

--------------------------------------------------------------------------
#psi4
#
memory 32 gb

molecule  {
0 1
  C        0.3621840    -0.1605627     0.4915369
  C        1.7144850    -0.5067070    -0.0610140
  C        1.2123340     0.9079950    -0.1890090
  C       -0.8959170    -0.6261990    -0.2007820
  C       -2.0823580     0.3074100     0.0307800
  H        0.2884170    -0.0635660     1.5625600
  H        1.7473340    -1.1149480    -0.9600470
  H        2.5174380    -0.7063170     0.6411980
  H        1.6733330     1.6758980     0.4236460
  H        0.9069420     1.2477170    -1.1746190
  H       -1.1377290    -1.6353390     0.1563050
  H       -0.7014120    -0.7176330    -1.2773050
  H       -2.3027070     0.3979840     1.0988780
  H       -1.8634650     1.3083430    -0.3520570
  H       -2.9839190    -0.0602930    -0.4684290
units angstrom
no_reorient  #important for SAPT in psi4, default
symmetry c1  #important for SAPT in psi4, default
}

set PROPERTIES_ORIGIN ["COM"]
properties('MP2/aug-cc-pvtz', properties = ['dipole'])
--------------------------------------------------------------------------

    Molecular point group: c1
  Charge       = 0
  Multiplicity = 1
  Basis Set: AUG-CC-PVTZ
    Blend: AUG-CC-PVTZ
  Basis Set: (AUG-CC-PVTZ AUX)
    Blend: AUG-CC-PVTZ-JKFIT

    Orbital Energies [Eh]
    ---------------------

    Doubly Occupied:

       1A    -11.225000     2A    -11.220522     3A    -11.219589
       4A    -11.219069     5A    -11.209844     6A     -1.139410
       7A     -1.018861     8A     -0.866131     9A     -0.815397
      10A     -0.768358    11A     -0.661238    12A     -0.622403
      13A     -0.592328    14A     -0.553006    15A     -0.520487
      16A     -0.506248    17A     -0.489244    18A     -0.473378
      19A     -0.411450    20A     -0.394188

  @DF-RHF Final Energy:  -195.19899298106620

   => Energetics <=

    Nuclear Repulsion Energy =            179.4490102058987588
    One-Electron Energy =                -617.4437028647404304
    Two-Electron Energy =                 242.7956996777755023
    Total Energy =                       -195.1989929810661977
  Basis Set: (AUG-CC-PVTZ AUX)
    Blend: AUG-CC-PVTZ-RI
    Molecular point group: c1

    Geometry (in Angstrom), charge = 0, multiplicity = 1:

       Center              X                  Y                   Z               Mass
    ------------   -----------------  -----------------  -----------------  -----------------
         C            0.335664408728    -0.151967712374     0.484323034733    12.000000000000
         C            1.687965408728    -0.498112012374    -0.068227865267    12.000000000000
         C            1.185814408728     0.916589987626    -0.196222865267    12.000000000000
         C           -0.922436591272    -0.617604012374    -0.207995865267    12.000000000000
         C           -2.108877591272     0.316004987626     0.023566134733    12.000000000000
         H            0.261897408728    -0.054971012374     1.555346134733     1.007825032230
         H            1.720814408728    -1.106353012374    -0.967260865267     1.007825032230
         H            2.490918408728    -0.697722012374     0.633984134733     1.007825032230
         H            1.646813408728     1.684492987626     0.416432134733     1.007825032230
         H            0.880422408728     1.256311987626    -1.181832865267     1.007825032230
         H           -1.164248591272    -1.626744012374     0.149091134733     1.007825032230
         H           -0.727931591272    -0.709038012374    -1.284518865267     1.007825032230
         H           -2.329226591272     0.406578987626     1.091664134733     1.007825032230
         H           -1.889984591272     1.316937987626    -0.359270865267     1.007825032230
         H           -3.010438591272    -0.051698012374    -0.475642865267     1.007825032230

  Basis Set: AUG-CC-PVTZ
    Blend: AUG-CC-PVTZ
  Basis Set: (AUG-CC-PVTZ AUX)
    Blend: AUG-CC-PVTZ-JKFIT
	 Reference Energy          =    -195.1989929810661977 [Eh]
	 Singles Energy            =      -0.0000000000000000 [Eh]
	 Same-Spin Energy          =      -0.2100303065313867 [Eh]
	 Opposite-Spin Energy      =      -0.7638582554873283 [Eh]
	 Correlation Energy        =      -0.9738885620187150 [Eh]
	 Total Energy              =    -196.1728815430849124 [Eh]

	 ================> DF-SCS-MP2 Energies <==================
	-----------------------------------------------------------
	 SCS Same-Spin Scale       =       0.3333333333333333 [-]
	 SCS Opposite-Spin Scale   =       1.2000000000000000 [-]
	 SCS Same-Spin Energy      =      -0.0700101021771289 [Eh]
	 SCS Opposite-Spin Energy  =      -0.9166299065847939 [Eh]
	 SCS Correlation Energy    =      -0.9866400087619228 [Eh]
	 SCS Total Energy          =    -196.1856329898281217 [Eh]
	-----------------------------------------------------------

  Dipole Moment: [D]
     X:    -0.0770      Y:    -0.0714      Z:     0.0669     Total:     0.1245

*** Psi4 exiting successfully. Buy a developer a beer!
