                               Psi4 1.4a3.dev225

  ==> Input File <==

--------------------------------------------------------------------------
#psi4
#
memory 32 gb

molecule  {
0 1
  C        0.3607500    -0.1378060     0.4783360
  C        1.7144850    -0.5067070    -0.0610140
  C        1.2123340     0.9079950    -0.1890090
  C       -0.8959170    -0.6261990    -0.2007820
  C       -2.0823580     0.3074100     0.0307800
  H        0.2917376    -0.0669741     1.5127869
  H        1.7473340    -1.1149480    -0.9600470
  H        2.5174380    -0.7063170     0.6411980
  H        1.6733330     1.6758980     0.4236460
  H        0.9069420     1.2477170    -1.1746190
  H       -1.1377290    -1.6353390     0.1563050
  H       -0.7014120    -0.7176330    -1.2773050
  H       -2.3027070     0.3979840     1.0988780
  H       -1.8634650     1.3083430    -0.3520570
  H       -2.9839190    -0.0602930    -0.4684290
units angstrom
no_reorient  #important for SAPT in psi4, default
symmetry c1  #important for SAPT in psi4, default
}

set PROPERTIES_ORIGIN ["COM"]
properties('MP2/aug-cc-pvtz', properties = ['dipole'])
--------------------------------------------------------------------------

    Molecular point group: c1
  Charge       = 0
  Multiplicity = 1
  Basis Set: AUG-CC-PVTZ
    Blend: AUG-CC-PVTZ
  Basis Set: (AUG-CC-PVTZ AUX)
    Blend: AUG-CC-PVTZ-JKFIT

    Orbital Energies [Eh]
    ---------------------

    Doubly Occupied:

       1A    -11.219602     2A    -11.219177     3A    -11.218528
       4A    -11.218361     5A    -11.209778     6A     -1.143037
       7A     -1.019269     8A     -0.866441     9A     -0.815992
      10A     -0.773675    11A     -0.663974    12A     -0.623705
      13A     -0.592755    14A     -0.554493    15A     -0.520184
      16A     -0.506031    17A     -0.489921    18A     -0.473199
      19A     -0.409769    20A     -0.398831

  @DF-RHF Final Energy:  -195.19858436827289

   => Energetics <=

    Nuclear Repulsion Energy =            179.8675789479385116
    One-Electron Energy =                -618.2588824978483899
    Two-Electron Energy =                 243.1927191816369884
    Total Energy =                       -195.1985843682728898
  Basis Set: (AUG-CC-PVTZ AUX)
    Blend: AUG-CC-PVTZ-RI
    Molecular point group: c1

    Geometry (in Angstrom), charge = 0, multiplicity = 1:

       Center              X                  Y                   Z               Mass
    ------------   -----------------  -----------------  -----------------  -----------------
         C            0.334428207848    -0.133058791539     0.474098427308    12.000000000000
         C            1.688163207848    -0.501959791539    -0.065251572692    12.000000000000
         C            1.186012207848     0.912742208461    -0.193246572692    12.000000000000
         C           -0.922238792152    -0.621451791539    -0.205019572692    12.000000000000
         C           -2.108679792152     0.312157208461     0.026542427308    12.000000000000
         H            0.265415807848    -0.062226891539     1.508549327308     1.007825032230
         H            1.721012207848    -1.110200791539    -0.964284572692     1.007825032230
         H            2.491116207848    -0.701569791539     0.636960427308     1.007825032230
         H            1.647011207848     1.680645208461     0.419408427308     1.007825032230
         H            0.880620207848     1.252464208461    -1.178856572692     1.007825032230
         H           -1.164050792152    -1.630591791539     0.152067427308     1.007825032230
         H           -0.727733792152    -0.712885791539    -1.281542572692     1.007825032230
         H           -2.329028792152     0.402731208461     1.094640427308     1.007825032230
         H           -1.889786792152     1.313090208461    -0.356294572692     1.007825032230
         H           -3.010240792152    -0.055545791539    -0.472666572692     1.007825032230

  Basis Set: AUG-CC-PVTZ
    Blend: AUG-CC-PVTZ
  Basis Set: (AUG-CC-PVTZ AUX)
    Blend: AUG-CC-PVTZ-JKFIT
	 Reference Energy          =    -195.1985843682728898 [Eh]
	 Singles Energy            =      -0.0000000000000000 [Eh]
	 Same-Spin Energy          =      -0.2100325380592704 [Eh]
	 Opposite-Spin Energy      =      -0.7635692685760264 [Eh]
	 Correlation Energy        =      -0.9736018066352967 [Eh]
	 Total Energy              =    -196.1721861749081768 [Eh]

	 ================> DF-SCS-MP2 Energies <==================
	-----------------------------------------------------------
	 SCS Same-Spin Scale       =       0.3333333333333333 [-]
	 SCS Opposite-Spin Scale   =       1.2000000000000000 [-]
	 SCS Same-Spin Energy      =      -0.0700108460197568 [Eh]
	 SCS Opposite-Spin Energy  =      -0.9162831222912315 [Eh]
	 SCS Correlation Energy    =      -0.9862939683109884 [Eh]
	 SCS Total Energy          =    -196.1848783365838642 [Eh]
	-----------------------------------------------------------

  Dipole Moment: [D]
     X:    -0.0905      Y:    -0.0576      Z:     0.0897     Total:     0.1399

*** Psi4 exiting successfully. Buy a developer a beer!
