                               Psi4 1.4a3.dev225

  ==> Input File <==

--------------------------------------------------------------------------
#psi4
#
memory 32 gb

molecule  {
0 1
  C        0.3607500    -0.1378060     0.4783360
  C        1.7144850    -0.5067070    -0.0610140
  C        1.2123340     0.9079950    -0.1890090
  C       -0.8542949    -0.6100229    -0.1782889
  C       -2.0823580     0.3074100     0.0307800
  H        0.2884170    -0.0635660     1.5625600
  H        1.7473340    -1.1149480    -0.9600470
  H        2.5174380    -0.7063170     0.6411980
  H        1.6733330     1.6758980     0.4236460
  H        0.9069420     1.2477170    -1.1746190
  H       -1.1377290    -1.6353390     0.1563050
  H       -0.7014120    -0.7176330    -1.2773050
  H       -2.3027070     0.3979840     1.0988780
  H       -1.8634650     1.3083430    -0.3520570
  H       -2.9839190    -0.0602930    -0.4684290
units angstrom
no_reorient  #important for SAPT in psi4, default
symmetry c1  #important for SAPT in psi4, default
}

set PROPERTIES_ORIGIN ["COM"]
properties('MP2/aug-cc-pvtz', properties = ['dipole'])
--------------------------------------------------------------------------

    Molecular point group: c1
  Charge       = 0
  Multiplicity = 1
  Basis Set: AUG-CC-PVTZ
    Blend: AUG-CC-PVTZ
  Basis Set: (AUG-CC-PVTZ AUX)
    Blend: AUG-CC-PVTZ-JKFIT

    Orbital Energies [Eh]
    ---------------------

    Doubly Occupied:

       1A    -11.223462     2A    -11.220832     3A    -11.220281
       4A    -11.219684     5A    -11.210470     6A     -1.146631
       7A     -1.017088     8A     -0.870956     9A     -0.817375
      10A     -0.765290    11A     -0.663884    12A     -0.626794
      13A     -0.588654    14A     -0.552070    15A     -0.517192
      16A     -0.505765    17A     -0.491545    18A     -0.475172
      19A     -0.410169    20A     -0.395870

  @DF-RHF Final Energy:  -195.19645811959879

   => Energetics <=

    Nuclear Repulsion Energy =            180.0971091998935378
    One-Electron Energy =                -618.7087685422978893
    Two-Electron Energy =                 243.4152012228055355
    Total Energy =                       -195.1964581195987876
  Basis Set: (AUG-CC-PVTZ AUX)
    Blend: AUG-CC-PVTZ-RI
    Molecular point group: c1

    Geometry (in Angstrom), charge = 0, multiplicity = 1:

       Center              X                  Y                   Z               Mass
    ------------   -----------------  -----------------  -----------------  -----------------
         C            0.327348712941    -0.135877754164     0.469530964869    12.000000000000
         C            1.681083712941    -0.504778754164    -0.069819035131    12.000000000000
         C            1.178932712941     0.909923245836    -0.197814035131    12.000000000000
         C           -0.887696187059    -0.608094654164    -0.187093935131    12.000000000000
         C           -2.115759287059     0.309338245836     0.021974964869    12.000000000000
         H            0.255015712941    -0.061637754164     1.553754964869     1.007825032230
         H            1.713932712941    -1.113019754164    -0.968852035131     1.007825032230
         H            2.484036712941    -0.704388754164     0.632392964869     1.007825032230
         H            1.639931712941     1.677826245836     0.414840964869     1.007825032230
         H            0.873540712941     1.249645245836    -1.183424035131     1.007825032230
         H           -1.171130287059    -1.633410754164     0.147499964869     1.007825032230
         H           -0.734813287059    -0.715704754164    -1.286110035131     1.007825032230
         H           -2.336108287059     0.399912245836     1.090072964869     1.007825032230
         H           -1.896866287059     1.310271245836    -0.360862035131     1.007825032230
         H           -3.017320287059    -0.058364754164    -0.477234035131     1.007825032230

  Basis Set: AUG-CC-PVTZ
    Blend: AUG-CC-PVTZ
  Basis Set: (AUG-CC-PVTZ AUX)
    Blend: AUG-CC-PVTZ-JKFIT
	 Reference Energy          =    -195.1964581195987876 [Eh]
	 Singles Energy            =      -0.0000000000000000 [Eh]
	 Same-Spin Energy          =      -0.2104216786092397 [Eh]
	 Opposite-Spin Energy      =      -0.7642458929078417 [Eh]
	 Correlation Energy        =      -0.9746675715170814 [Eh]
	 Total Energy              =    -196.1711256911158614 [Eh]

	 ================> DF-SCS-MP2 Energies <==================
	-----------------------------------------------------------
	 SCS Same-Spin Scale       =       0.3333333333333333 [-]
	 SCS Opposite-Spin Scale   =       1.2000000000000000 [-]
	 SCS Same-Spin Energy      =      -0.0701405595364132 [Eh]
	 SCS Opposite-Spin Energy  =      -0.9170950714894101 [Eh]
	 SCS Correlation Energy    =      -0.9872356310258232 [Eh]
	 SCS Total Energy          =    -196.1836937506245988 [Eh]
	-----------------------------------------------------------

  Dipole Moment: [D]
     X:    -0.0450      Y:    -0.0457      Z:     0.0691     Total:     0.0943

*** Psi4 exiting successfully. Buy a developer a beer!
