                               Psi4 1.3.2 release

  ==> Input File <==

--------------------------------------------------------------------------
#psi4
#
memory 32 gb

molecule  {
0 1
  C        0.4323450    -0.2658043     0.4195216
  C        1.7144850    -0.5067070    -0.0610140
  C        1.2123340     0.9079950    -0.1890090
  C       -0.8959170    -0.6261990    -0.2007820
  C       -2.0823580     0.3074100     0.0307800
  H        0.2884170    -0.0635660     1.5625600
  H        1.7473340    -1.1149480    -0.9600470
  H        2.5174380    -0.7063170     0.6411980
  H        1.6733330     1.6758980     0.4236460
  H        0.9069420     1.2477170    -1.1746190
  H       -1.1377290    -1.6353390     0.1563050
  H       -0.7014120    -0.7176330    -1.2773050
  H       -2.3027070     0.3979840     1.0988780
  H       -1.8634650     1.3083430    -0.3520570
  H       -2.9839190    -0.0602930    -0.4684290
units angstrom
no_reorient  #important for SAPT in psi4, default
symmetry c1  #important for SAPT in psi4, default
}

set PROPERTIES_ORIGIN ["COM"]
properties('MP2/aug-cc-pvtz', properties = ['dipole'])
--------------------------------------------------------------------------

    Molecular point group: c1
  Charge       = 0
  Multiplicity = 1
  Basis Set: AUG-CC-PVTZ
    Blend: AUG-CC-PVTZ
  Basis Set: (AUG-CC-PVTZ AUX)
    Blend: AUG-CC-PVTZ-JKFIT

    Orbital Energies [Eh]
    ---------------------

    Doubly Occupied:

       1A    -11.230169     2A    -11.222143     3A    -11.220333
       4A    -11.213776     5A    -11.213640     6A     -1.159089
       7A     -1.022230     8A     -0.870209     9A     -0.821565
      10A     -0.754494    11A     -0.666730    12A     -0.625166
      13A     -0.595144    14A     -0.552110    15A     -0.523342
      16A     -0.506161    17A     -0.491251    18A     -0.457125
      19A     -0.440717    20A     -0.375814

  @DF-RHF Final Energy:  -195.17991911693139

   => Energetics <=

    Nuclear Repulsion Energy =            180.0171134069409504
    One-Electron Energy =                -618.4716481244969373
    Two-Electron Energy =                 243.2746156006245997
    Total Energy =                       -195.1799191169313872
  Basis Set: (AUG-CC-PVTZ AUX)
    Blend: AUG-CC-PVTZ-RI
    Molecular point group: c1

    Geometry (in Angstrom), charge = 0, multiplicity = 1:

       Center              X                  Y                   Z               Mass
    ------------   -----------------  -----------------  -----------------  -----------------
         C            0.393811238909    -0.239188040522     0.424639429603    12.000000000000
         C            1.675951238909    -0.480090740522    -0.055896170397    12.000000000000
         C            1.173800238909     0.934611259478    -0.183891170397    12.000000000000
         C           -0.934450761091    -0.599582740522    -0.195664170397    12.000000000000
         C           -2.120891761091     0.334026259478     0.035897829603    12.000000000000
         H            0.249883238909    -0.036949740522     1.567677829603     1.007825032230
         H            1.708800238909    -1.088331740522    -0.954929170397     1.007825032230
         H            2.478904238909    -0.679700740522     0.646315829603     1.007825032230
         H            1.634799238909     1.702514259478     0.428763829603     1.007825032230
         H            0.868408238909     1.274333259478    -1.169501170397     1.007825032230
         H           -1.176262761091    -1.608722740522     0.161422829603     1.007825032230
         H           -0.739945761091    -0.691016740522    -1.272187170397     1.007825032230
         H           -2.341240761091     0.424600259478     1.103995829603     1.007825032230
         H           -1.901998761091     1.334959259478    -0.346939170397     1.007825032230
         H           -3.022452761091    -0.033676740522    -0.463311170397     1.007825032230

  Basis Set: AUG-CC-PVTZ
    Blend: AUG-CC-PVTZ
  Basis Set: (AUG-CC-PVTZ AUX)
    Blend: AUG-CC-PVTZ-JKFIT
	 Reference Energy          =    -195.1799191169313872 [Eh]
	 Singles Energy            =      -0.0000000000000000 [Eh]
	 Same-Spin Energy          =      -0.2109473845051151 [Eh]
	 Opposite-Spin Energy      =      -0.7648808683056678 [Eh]
	 Correlation Energy        =      -0.9758282528107829 [Eh]
	 Total Energy              =    -196.1557473697421585 [Eh]

	 ================> DF-SCS-MP2 Energies <==================
	-----------------------------------------------------------
	 SCS Same-Spin Scale       =       0.3333333333333333 [-]
	 SCS Opposite-Spin Scale   =       1.2000000000000000 [-]
	 SCS Same-Spin Energy      =      -0.0703157948350384 [Eh]
	 SCS Opposite-Spin Energy  =      -0.9178570419668013 [Eh]
	 SCS Correlation Energy    =      -0.9881728368018396 [Eh]
	 SCS Total Energy          =    -196.1680919537332386 [Eh]
	-----------------------------------------------------------

  Dipole Moment: [D]
     X:    -0.1237      Y:    -0.1611      Z:     0.0600     Total:     0.2118

*** Psi4 exiting successfully. Buy a developer a beer!
