                               Psi4 1.3.2 release

  ==> Input File <==

--------------------------------------------------------------------------
#psi4
#
memory 32 gb

molecule  {
0 1
  C        0.3607500    -0.1378060     0.4783360
  C        1.7144850    -0.5067070    -0.0610140
  C        1.2123340     0.9079950    -0.1890090
  C       -1.0624053    -0.6909033    -0.2907543
  C       -2.0823580     0.3074100     0.0307800
  H        0.2884170    -0.0635660     1.5625600
  H        1.7473340    -1.1149480    -0.9600470
  H        2.5174380    -0.7063170     0.6411980
  H        1.6733330     1.6758980     0.4236460
  H        0.9069420     1.2477170    -1.1746190
  H       -1.1377290    -1.6353390     0.1563050
  H       -0.7014120    -0.7176330    -1.2773050
  H       -2.3027070     0.3979840     1.0988780
  H       -1.8634650     1.3083430    -0.3520570
  H       -2.9839190    -0.0602930    -0.4684290
units angstrom
no_reorient  #important for SAPT in psi4, default
symmetry c1  #important for SAPT in psi4, default
}

set PROPERTIES_ORIGIN ["COM"]
properties('MP2/aug-cc-pvtz', properties = ['dipole'])
--------------------------------------------------------------------------

    Molecular point group: c1
  Charge       = 0
  Multiplicity = 1
  Basis Set: AUG-CC-PVTZ
    Blend: AUG-CC-PVTZ
  Basis Set: (AUG-CC-PVTZ AUX)
    Blend: AUG-CC-PVTZ-JKFIT

    Orbital Energies [Eh]
    ---------------------

    Doubly Occupied:

       1A    -11.227492     2A    -11.221777     3A    -11.217325
       4A    -11.216538     5A    -11.209675     6A     -1.130358
       7A     -1.031901     8A     -0.852388     9A     -0.812573
      10A     -0.768114    11A     -0.658659    12A     -0.615892
      13A     -0.607886    14A     -0.550119    15A     -0.546862
      16A     -0.505866    17A     -0.500227    18A     -0.436600
      19A     -0.404659    20A     -0.387556

  @DF-RHF Final Energy:  -195.16974758402162

   => Energetics <=

    Nuclear Repulsion Energy =            177.8760353848122406
    One-Electron Energy =                -614.2866347911250386
    Two-Electron Energy =                 241.2408518222912051
    Total Energy =                       -195.1697475840216214
  Basis Set: (AUG-CC-PVTZ AUX)
    Blend: AUG-CC-PVTZ-RI
    Molecular point group: c1

    Geometry (in Angstrom), charge = 0, multiplicity = 1:

       Center              X                  Y                   Z               Mass
    ------------   -----------------  -----------------  -----------------  -----------------
         C            0.362984945132    -0.122028024818     0.488789219660    12.000000000000
         C            1.716719945132    -0.490929024818    -0.050560780340    12.000000000000
         C            1.214568945132     0.923772975182    -0.178555780340    12.000000000000
         C           -1.060170354868    -0.675125324818    -0.280301080340    12.000000000000
         C           -2.080123054868     0.323187975182     0.041233219660    12.000000000000
         H            0.290651945132    -0.047788024818     1.573013219660     1.007825032230
         H            1.749568945132    -1.099170024818    -0.949593780340     1.007825032230
         H            2.519672945132    -0.690539024818     0.651651219660     1.007825032230
         H            1.675567945132     1.691675975182     0.434099219660     1.007825032230
         H            0.909176945132     1.263494975182    -1.164165780340     1.007825032230
         H           -1.135494054868    -1.619561024818     0.166758219660     1.007825032230
         H           -0.699177054868    -0.701855024818    -1.266851780340     1.007825032230
         H           -2.300472054868     0.413761975182     1.109331219660     1.007825032230
         H           -1.861230054868     1.324120975182    -0.341603780340     1.007825032230
         H           -2.981684054868    -0.044515024818    -0.457975780340     1.007825032230

  Basis Set: AUG-CC-PVTZ
    Blend: AUG-CC-PVTZ
  Basis Set: (AUG-CC-PVTZ AUX)
    Blend: AUG-CC-PVTZ-JKFIT
	 Reference Energy          =    -195.1697475840216214 [Eh]
	 Singles Energy            =      -0.0000000000000000 [Eh]
	 Same-Spin Energy          =      -0.2105756888516537 [Eh]
	 Opposite-Spin Energy      =      -0.7654488144229283 [Eh]
	 Correlation Energy        =      -0.9760245032745820 [Eh]
	 Total Energy              =    -196.1457720872961943 [Eh]

	 ================> DF-SCS-MP2 Energies <==================
	-----------------------------------------------------------
	 SCS Same-Spin Scale       =       0.3333333333333333 [-]
	 SCS Opposite-Spin Scale   =       1.2000000000000000 [-]
	 SCS Same-Spin Energy      =      -0.0701918962838846 [Eh]
	 SCS Opposite-Spin Energy  =      -0.9185385773075140 [Eh]
	 SCS Correlation Energy    =      -0.9887304735913985 [Eh]
	 SCS Total Energy          =    -196.1584780576130242 [Eh]
	-----------------------------------------------------------

  Dipole Moment: [D]
     X:    -0.2123      Y:    -0.0713      Z:     0.0682     Total:     0.2341

*** Psi4 exiting successfully. Buy a developer a beer!
