                               Psi4 1.3.2 release

  ==> Input File <==

--------------------------------------------------------------------------
#psi4
#
memory 32 gb

molecule  {
0 1
  C        0.3607500    -0.1378060     0.4783360
  C        1.7144850    -0.5067070    -0.0610140
  C        1.2123340     0.9079950    -0.1890090
  C       -0.9076402    -0.6280344    -0.1772579
  C       -2.0823580     0.3074100     0.0307800
  H        0.2884170    -0.0635660     1.5625600
  H        1.7473340    -1.1149480    -0.9600470
  H        2.5174380    -0.7063170     0.6411980
  H        1.6733330     1.6758980     0.4236460
  H        0.9069420     1.2477170    -1.1746190
  H       -1.1377290    -1.6353390     0.1563050
  H       -0.7014120    -0.7176330    -1.2773050
  H       -2.3027070     0.3979840     1.0988780
  H       -1.8634650     1.3083430    -0.3520570
  H       -2.9839190    -0.0602930    -0.4684290
units angstrom
no_reorient  #important for SAPT in psi4, default
symmetry c1  #important for SAPT in psi4, default
}

set PROPERTIES_ORIGIN ["COM"]
properties('MP2/aug-cc-pvtz', properties = ['dipole'])
--------------------------------------------------------------------------

    Molecular point group: c1
  Charge       = 0
  Multiplicity = 1
  Basis Set: AUG-CC-PVTZ
    Blend: AUG-CC-PVTZ
  Basis Set: (AUG-CC-PVTZ AUX)
    Blend: AUG-CC-PVTZ-JKFIT

    Orbital Energies [Eh]
    ---------------------

    Doubly Occupied:

       1A    -11.224907     2A    -11.220326     3A    -11.219825
       4A    -11.219197     5A    -11.209589     6A     -1.142064
       7A     -1.021657     8A     -0.865711     9A     -0.816318
      10A     -0.765076    11A     -0.662874    12A     -0.623583
      13A     -0.593120    14A     -0.553504    15A     -0.521978
      16A     -0.506916    17A     -0.488995    18A     -0.465084
      19A     -0.410239    20A     -0.400677

  @DF-RHF Final Energy:  -195.19854200732124

   => Energetics <=

    Nuclear Repulsion Energy =            179.6367976938154527
    One-Electron Energy =                -617.8073975149694661
    Two-Electron Energy =                 242.9720578138328051
    Total Energy =                       -195.1985420073212367
  Basis Set: (AUG-CC-PVTZ AUX)
    Blend: AUG-CC-PVTZ-RI
    Molecular point group: c1

    Geometry (in Angstrom), charge = 0, multiplicity = 1:

       Center              X                  Y                   Z               Mass
    ------------   -----------------  -----------------  -----------------  -----------------
         C            0.336483410184    -0.132793516202     0.469354419366    12.000000000000
         C            1.690218410184    -0.501694516202    -0.069995580634    12.000000000000
         C            1.188067410184     0.913007483798    -0.197990580634    12.000000000000
         C           -0.931906789816    -0.623021916202    -0.186239480634    12.000000000000
         C           -2.106624589816     0.312422483798     0.021798419366    12.000000000000
         H            0.264150410184    -0.058553516202     1.553578419366     1.007825032230
         H            1.723067410184    -1.109935516202    -0.969028580634     1.007825032230
         H            2.493171410184    -0.701304516202     0.632216419366     1.007825032230
         H            1.649066410184     1.680910483798     0.414664419366     1.007825032230
         H            0.882675410184     1.252729483798    -1.183600580634     1.007825032230
         H           -1.161995589816    -1.630326516202     0.147323419366     1.007825032230
         H           -0.725678589816    -0.712620516202    -1.286286580634     1.007825032230
         H           -2.326973589816     0.402996483798     1.089896419366     1.007825032230
         H           -1.887731589816     1.313355483798    -0.361038580634     1.007825032230
         H           -3.008185589816    -0.055280516202    -0.477410580634     1.007825032230

  Basis Set: AUG-CC-PVTZ
    Blend: AUG-CC-PVTZ
  Basis Set: (AUG-CC-PVTZ AUX)
    Blend: AUG-CC-PVTZ-JKFIT
	 Reference Energy          =    -195.1985420073212367 [Eh]
	 Singles Energy            =      -0.0000000000000000 [Eh]
	 Same-Spin Energy          =      -0.2101255522877179 [Eh]
	 Opposite-Spin Energy      =      -0.7638827315556841 [Eh]
	 Correlation Energy        =      -0.9740082838434020 [Eh]
	 Total Energy              =    -196.1725502911646402 [Eh]

	 ================> DF-SCS-MP2 Energies <==================
	-----------------------------------------------------------
	 SCS Same-Spin Scale       =       0.3333333333333333 [-]
	 SCS Opposite-Spin Scale   =       1.2000000000000000 [-]
	 SCS Same-Spin Energy      =      -0.0700418507625726 [Eh]
	 SCS Opposite-Spin Energy  =      -0.9166592778668209 [Eh]
	 SCS Correlation Energy    =      -0.9867011286293935 [Eh]
	 SCS Total Energy          =    -196.1852431359506284 [Eh]
	-----------------------------------------------------------

  Dipole Moment: [D]
     X:    -0.0921      Y:    -0.0590      Z:     0.0761     Total:     0.1332

*** Psi4 exiting successfully. Buy a developer a beer!
