                               Psi4 1.3.2 release

  ==> Input File <==

--------------------------------------------------------------------------
#psi4
#
memory 32 gb

molecule  {
0 1
  C        0.3607500    -0.1378060     0.4783360
  C        1.7144850    -0.5067070    -0.0610140
  C        1.2123340     0.9079950    -0.1890090
  C       -0.8452337    -0.6173758    -0.2927392
  C       -2.0823580     0.3074100     0.0307800
  H        0.2884170    -0.0635660     1.5625600
  H        1.7473340    -1.1149480    -0.9600470
  H        2.5174380    -0.7063170     0.6411980
  H        1.6733330     1.6758980     0.4236460
  H        0.9069420     1.2477170    -1.1746190
  H       -1.1377290    -1.6353390     0.1563050
  H       -0.7014120    -0.7176330    -1.2773050
  H       -2.3027070     0.3979840     1.0988780
  H       -1.8634650     1.3083430    -0.3520570
  H       -2.9839190    -0.0602930    -0.4684290
units angstrom
no_reorient  #important for SAPT in psi4, default
symmetry c1  #important for SAPT in psi4, default
}

set PROPERTIES_ORIGIN ["COM"]
properties('MP2/aug-cc-pvtz', properties = ['dipole'])
--------------------------------------------------------------------------

    Molecular point group: c1
  Charge       = 0
  Multiplicity = 1
  Basis Set: AUG-CC-PVTZ
    Blend: AUG-CC-PVTZ
  Basis Set: (AUG-CC-PVTZ AUX)
    Blend: AUG-CC-PVTZ-JKFIT

    Orbital Energies [Eh]
    ---------------------

    Doubly Occupied:

       1A    -11.226094     2A    -11.219048     3A    -11.218728
       4A    -11.218084     5A    -11.211520     6A     -1.143803
       7A     -1.011636     8A     -0.866105     9A     -0.816234
      10A     -0.775350    11A     -0.659938    12A     -0.628278
      13A     -0.588616    14A     -0.548793    15A     -0.518139
      16A     -0.506554    17A     -0.492336    18A     -0.481401
      19A     -0.405444    20A     -0.392142

  @DF-RHF Final Energy:  -195.18674624053648

   => Energetics <=

    Nuclear Repulsion Energy =            179.5791876580685482
    One-Electron Energy =                -617.6753858167370481
    Two-Electron Energy =                 242.9094519181319924
    Total Energy =                       -195.1867462405364790
  Basis Set: (AUG-CC-PVTZ AUX)
    Blend: AUG-CC-PVTZ-RI
    Molecular point group: c1

    Geometry (in Angstrom), charge = 0, multiplicity = 1:

       Center              X                  Y                   Z               Mass
    ------------   -----------------  -----------------  -----------------  -----------------
         C            0.325797098860    -0.134618664510     0.489129108283    12.000000000000
         C            1.679532098860    -0.503519664510    -0.050220891717    12.000000000000
         C            1.177381098860     0.911182335490    -0.178215891717    12.000000000000
         C           -0.880186601140    -0.614188464510    -0.281946091717    12.000000000000
         C           -2.117310901140     0.310597335490     0.041573108283    12.000000000000
         H            0.253464098860    -0.060378664510     1.573353108283     1.007825032230
         H            1.712381098860    -1.111760664510    -0.949253891717     1.007825032230
         H            2.482485098860    -0.703129664510     0.651991108283     1.007825032230
         H            1.638380098860     1.679085335490     0.434439108283     1.007825032230
         H            0.871989098860     1.250904335490    -1.163825891717     1.007825032230
         H           -1.172681901140    -1.632151664510     0.167098108283     1.007825032230
         H           -0.736364901140    -0.714445664510    -1.266511891717     1.007825032230
         H           -2.337659901140     0.401171335490     1.109671108283     1.007825032230
         H           -1.898417901140     1.311530335490    -0.341263891717     1.007825032230
         H           -3.018871901140    -0.057105664510    -0.457635891717     1.007825032230

  Basis Set: AUG-CC-PVTZ
    Blend: AUG-CC-PVTZ
  Basis Set: (AUG-CC-PVTZ AUX)
    Blend: AUG-CC-PVTZ-JKFIT
	 Reference Energy          =    -195.1867462405364790 [Eh]
	 Singles Energy            =      -0.0000000000000000 [Eh]
	 Same-Spin Energy          =      -0.2100529099843397 [Eh]
	 Opposite-Spin Energy      =      -0.7641646310453958 [Eh]
	 Correlation Energy        =      -0.9742175410297355 [Eh]
	 Total Energy              =    -196.1609637815662097 [Eh]

	 ================> DF-SCS-MP2 Energies <==================
	-----------------------------------------------------------
	 SCS Same-Spin Scale       =       0.3333333333333333 [-]
	 SCS Opposite-Spin Scale   =       1.2000000000000000 [-]
	 SCS Same-Spin Energy      =      -0.0700176366614466 [Eh]
	 SCS Opposite-Spin Energy  =      -0.9169975572544748 [Eh]
	 SCS Correlation Energy    =      -0.9870151939159214 [Eh]
	 SCS Total Energy          =    -196.1737614344523877 [Eh]
	-----------------------------------------------------------

  Dipole Moment: [D]
     X:    -0.0598      Y:    -0.0389      Z:     0.0506     Total:     0.0875

*** Psi4 exiting successfully. Buy a developer a beer!
