                               Psi4 1.3.2 release

  ==> Input File <==

--------------------------------------------------------------------------
#psi4
#
memory 32 gb

molecule  {
0 1
  C        0.3607500    -0.1378060     0.4783360
  C        1.6656108    -0.5604273    -0.1367366
  C        1.2123340     0.9079950    -0.1890090
  C       -0.8959170    -0.6261990    -0.2007820
  C       -2.0823580     0.3074100     0.0307800
  H        0.2884170    -0.0635660     1.5625600
  H        1.7473340    -1.1149480    -0.9600470
  H        2.5174380    -0.7063170     0.6411980
  H        1.6733330     1.6758980     0.4236460
  H        0.9069420     1.2477170    -1.1746190
  H       -1.1377290    -1.6353390     0.1563050
  H       -0.7014120    -0.7176330    -1.2773050
  H       -2.3027070     0.3979840     1.0988780
  H       -1.8634650     1.3083430    -0.3520570
  H       -2.9839190    -0.0602930    -0.4684290
units angstrom
no_reorient  #important for SAPT in psi4, default
symmetry c1  #important for SAPT in psi4, default
}

set PROPERTIES_ORIGIN ["COM"]
properties('MP2/aug-cc-pvtz', properties = ['dipole'])
--------------------------------------------------------------------------

    Molecular point group: c1
  Charge       = 0
  Multiplicity = 1
  Basis Set: AUG-CC-PVTZ
    Blend: AUG-CC-PVTZ
  Basis Set: (AUG-CC-PVTZ AUX)
    Blend: AUG-CC-PVTZ-JKFIT

    Orbital Energies [Eh]
    ---------------------

    Doubly Occupied:

       1A    -11.227498     2A    -11.220997     3A    -11.220137
       4A    -11.219054     5A    -11.209144     6A     -1.139533
       7A     -1.017505     8A     -0.864705     9A     -0.824179
      10A     -0.769483    11A     -0.655172    12A     -0.633102
      13A     -0.588088    14A     -0.553425    15A     -0.521493
      16A     -0.510406    17A     -0.485412    18A     -0.472199
      19A     -0.402313    20A     -0.399841

  @DF-RHF Final Energy:  -195.18609572045602

   => Energetics <=

    Nuclear Repulsion Energy =            179.6429985030750913
    One-Electron Energy =                -617.7908170340260767
    Two-Electron Energy =                 242.9617228104949618
    Total Energy =                       -195.1860957204560236
  Basis Set: (AUG-CC-PVTZ AUX)
    Blend: AUG-CC-PVTZ-RI
    Molecular point group: c1

    Geometry (in Angstrom), charge = 0, multiplicity = 1:

       Center              X                  Y                   Z               Mass
    ------------   -----------------  -----------------  -----------------  -----------------
         C            0.342845041617    -0.123908893696     0.486349141616    12.000000000000
         C            1.647705841617    -0.546530193696    -0.128723458384    12.000000000000
         C            1.194429041617     0.921892106304    -0.180995858384    12.000000000000
         C           -0.913821958383    -0.612301893696    -0.192768858384    12.000000000000
         C           -2.100262958383     0.321307106304     0.038793141616    12.000000000000
         H            0.270512041617    -0.049668893696     1.570573141616     1.007825032230
         H            1.729429041617    -1.101050893696    -0.952033858384     1.007825032230
         H            2.499533041617    -0.692419893696     0.649211141616     1.007825032230
         H            1.655428041617     1.689795106304     0.431659141616     1.007825032230
         H            0.889037041617     1.261614106304    -1.166605858384     1.007825032230
         H           -1.155633958383    -1.621441893696     0.164318141616     1.007825032230
         H           -0.719316958383    -0.703735893696    -1.269291858384     1.007825032230
         H           -2.320611958383     0.411881106304     1.106891141616     1.007825032230
         H           -1.881369958383     1.322240106304    -0.344043858384     1.007825032230
         H           -3.001823958383    -0.046395893696    -0.460415858384     1.007825032230

  Basis Set: AUG-CC-PVTZ
    Blend: AUG-CC-PVTZ
  Basis Set: (AUG-CC-PVTZ AUX)
    Blend: AUG-CC-PVTZ-JKFIT
	 Reference Energy          =    -195.1860957204560236 [Eh]
	 Singles Energy            =      -0.0000000000000000 [Eh]
	 Same-Spin Energy          =      -0.2101551981109656 [Eh]
	 Opposite-Spin Energy      =      -0.7645981424498436 [Eh]
	 Correlation Energy        =      -0.9747533405608091 [Eh]
	 Total Energy              =    -196.1608490610168190 [Eh]

	 ================> DF-SCS-MP2 Energies <==================
	-----------------------------------------------------------
	 SCS Same-Spin Scale       =       0.3333333333333333 [-]
	 SCS Opposite-Spin Scale   =       1.2000000000000000 [-]
	 SCS Same-Spin Energy      =      -0.0700517327036552 [Eh]
	 SCS Opposite-Spin Energy  =      -0.9175177709398122 [Eh]
	 SCS Correlation Energy    =      -0.9875695036434674 [Eh]
	 SCS Total Energy          =    -196.1736652240994943 [Eh]
	-----------------------------------------------------------

  Dipole Moment: [D]
     X:    -0.1254      Y:    -0.0415      Z:     0.0448     Total:     0.1395

*** Psi4 exiting successfully. Buy a developer a beer!
