                               Psi4 1.3.2 release

  ==> Input File <==

--------------------------------------------------------------------------
#psi4
#
memory 32 gb

molecule  {
0 1
  C        0.3607500    -0.1378060     0.4783360
  C        1.6387737    -0.5865312    -0.1734968
  C        1.2123340     0.9079950    -0.1890090
  C       -0.8959170    -0.6261990    -0.2007820
  C       -2.0823580     0.3074100     0.0307800
  H        0.2884170    -0.0635660     1.5625600
  H        1.7473340    -1.1149480    -0.9600470
  H        2.5174380    -0.7063170     0.6411980
  H        1.6733330     1.6758980     0.4236460
  H        0.9069420     1.2477170    -1.1746190
  H       -1.1377290    -1.6353390     0.1563050
  H       -0.7014120    -0.7176330    -1.2773050
  H       -2.3027070     0.3979840     1.0988780
  H       -1.8634650     1.3083430    -0.3520570
  H       -2.9839190    -0.0602930    -0.4684290
units angstrom
no_reorient  #important for SAPT in psi4, default
symmetry c1  #important for SAPT in psi4, default
}

set PROPERTIES_ORIGIN ["COM"]
properties('MP2/aug-cc-pvtz', properties = ['dipole'])
--------------------------------------------------------------------------

    Molecular point group: c1
  Charge       = 0
  Multiplicity = 1
  Basis Set: AUG-CC-PVTZ
    Blend: AUG-CC-PVTZ
  Basis Set: (AUG-CC-PVTZ AUX)
    Blend: AUG-CC-PVTZ-JKFIT

    Orbital Energies [Eh]
    ---------------------

    Doubly Occupied:

       1A    -11.229557     2A    -11.222447     3A    -11.221646
       4A    -11.219035     5A    -11.208967     6A     -1.138677
       7A     -1.016740     8A     -0.864718     9A     -0.831781
      10A     -0.771014    11A     -0.652743    12A     -0.638854
      13A     -0.586778    14A     -0.553487    15A     -0.522968
      16A     -0.510550    17A     -0.482477    18A     -0.472966
      19A     -0.402562    20A     -0.394783

  @DF-RHF Final Energy:  -195.16887438362050

   => Energetics <=

    Nuclear Repulsion Energy =            179.6731714069674979
    One-Electron Energy =                -617.7985905152584110
    Two-Electron Energy =                 242.9565447246703798
    Total Energy =                       -195.1688743836205049
  Basis Set: (AUG-CC-PVTZ AUX)
    Blend: AUG-CC-PVTZ-RI
    Molecular point group: c1

    Geometry (in Angstrom), charge = 0, multiplicity = 1:

       Center              X                  Y                   Z               Mass
    ------------   -----------------  -----------------  -----------------  -----------------
         C            0.347440550188    -0.119438936204     0.492643853570    12.000000000000
         C            1.625464250188    -0.568164136204    -0.159188946430    12.000000000000
         C            1.199024550188     0.926362063796    -0.174701146430    12.000000000000
         C           -0.909226449812    -0.607831936204    -0.186474146430    12.000000000000
         C           -2.095667449812     0.325777063796     0.045087853570    12.000000000000
         H            0.275107550188    -0.045198936204     1.576867853570     1.007825032230
         H            1.734024550188    -1.096580936204    -0.945739146430     1.007825032230
         H            2.504128550188    -0.687949936204     0.655505853570     1.007825032230
         H            1.660023550188     1.694265063796     0.437953853570     1.007825032230
         H            0.893632550188     1.266084063796    -1.160311146430     1.007825032230
         H           -1.151038449812    -1.616971936204     0.170612853570     1.007825032230
         H           -0.714721449812    -0.699265936204    -1.262997146430     1.007825032230
         H           -2.316016449812     0.416351063796     1.113185853570     1.007825032230
         H           -1.876774449812     1.326710063796    -0.337749146430     1.007825032230
         H           -2.997228449812    -0.041925936204    -0.454121146430     1.007825032230

  Basis Set: AUG-CC-PVTZ
    Blend: AUG-CC-PVTZ
  Basis Set: (AUG-CC-PVTZ AUX)
    Blend: AUG-CC-PVTZ-JKFIT
	 Reference Energy          =    -195.1688743836205049 [Eh]
	 Singles Energy            =      -0.0000000000000000 [Eh]
	 Same-Spin Energy          =      -0.2103457431194565 [Eh]
	 Opposite-Spin Energy      =      -0.7655029370391582 [Eh]
	 Correlation Energy        =      -0.9758486801586147 [Eh]
	 Total Energy              =    -196.1447230637791108 [Eh]

	 ================> DF-SCS-MP2 Energies <==================
	-----------------------------------------------------------
	 SCS Same-Spin Scale       =       0.3333333333333333 [-]
	 SCS Opposite-Spin Scale   =       1.2000000000000000 [-]
	 SCS Same-Spin Energy      =      -0.0701152477064855 [Eh]
	 SCS Opposite-Spin Energy  =      -0.9186035244469898 [Eh]
	 SCS Correlation Energy    =      -0.9887187721534753 [Eh]
	 SCS Total Energy          =    -196.1575931557739807 [Eh]
	-----------------------------------------------------------

  Dipole Moment: [D]
     X:    -0.1623      Y:    -0.0184      Z:     0.0390     Total:     0.1679

*** Psi4 exiting successfully. Buy a developer a beer!
