                               Psi4 1.3.2 release

  ==> Input File <==

--------------------------------------------------------------------------
#psi4
#
memory 32 gb

molecule  {
0 1
  C        0.3607500    -0.1378060     0.4783360
  C        1.6947862    -0.5042538    -0.1095825
  C        1.2123340     0.9079950    -0.1890090
  C       -0.8959170    -0.6261990    -0.2007820
  C       -2.0823580     0.3074100     0.0307800
  H        0.2884170    -0.0635660     1.5625600
  H        1.7473340    -1.1149480    -0.9600470
  H        2.5174380    -0.7063170     0.6411980
  H        1.6733330     1.6758980     0.4236460
  H        0.9069420     1.2477170    -1.1746190
  H       -1.1377290    -1.6353390     0.1563050
  H       -0.7014120    -0.7176330    -1.2773050
  H       -2.3027070     0.3979840     1.0988780
  H       -1.8634650     1.3083430    -0.3520570
  H       -2.9839190    -0.0602930    -0.4684290
units angstrom
no_reorient  #important for SAPT in psi4, default
symmetry c1  #important for SAPT in psi4, default
}

set PROPERTIES_ORIGIN ["COM"]
properties('MP2/aug-cc-pvtz', properties = ['dipole'])
--------------------------------------------------------------------------

    Molecular point group: c1
  Charge       = 0
  Multiplicity = 1
  Basis Set: AUG-CC-PVTZ
    Blend: AUG-CC-PVTZ
  Basis Set: (AUG-CC-PVTZ AUX)
    Blend: AUG-CC-PVTZ-JKFIT

    Orbital Energies [Eh]
    ---------------------

    Doubly Occupied:

       1A    -11.224538     2A    -11.219772     3A    -11.219079
       4A    -11.219031     5A    -11.209207     6A     -1.144497
       7A     -1.019247     8A     -0.865460     9A     -0.816238
      10A     -0.767963    11A     -0.659077    12A     -0.628763
      13A     -0.590351    14A     -0.553184    15A     -0.520086
      16A     -0.505135    17A     -0.487943    18A     -0.471055
      19A     -0.412948    20A     -0.396385

  @DF-RHF Final Energy:  -195.19619614133217

   => Energetics <=

    Nuclear Repulsion Energy =            179.8264845604715276
    One-Electron Energy =                -618.1854433404171232
    Two-Electron Energy =                 243.1627626386134580
    Total Energy =                       -195.1961961413321660
  Basis Set: (AUG-CC-PVTZ AUX)
    Blend: AUG-CC-PVTZ-RI
    Molecular point group: c1

    Geometry (in Angstrom), charge = 0, multiplicity = 1:

       Center              X                  Y                   Z               Mass
    ------------   -----------------  -----------------  -----------------  -----------------
         C            0.337849129213    -0.133527883852     0.481699350868    12.000000000000
         C            1.671885329213    -0.499975683852    -0.106219149132    12.000000000000
         C            1.189433129213     0.912273116148    -0.185645649132    12.000000000000
         C           -0.918817870787    -0.621920883852    -0.197418649132    12.000000000000
         C           -2.105258870787     0.311688116148     0.034143350868    12.000000000000
         H            0.265516129213    -0.059287883852     1.565923350868     1.007825032230
         H            1.724433129213    -1.110669883852    -0.956683649132     1.007825032230
         H            2.494537129213    -0.702038883852     0.644561350868     1.007825032230
         H            1.650432129213     1.680176116148     0.427009350868     1.007825032230
         H            0.884041129213     1.251995116148    -1.171255649132     1.007825032230
         H           -1.160629870787    -1.631060883852     0.159668350868     1.007825032230
         H           -0.724312870787    -0.713354883852    -1.273941649132     1.007825032230
         H           -2.325607870787     0.402262116148     1.102241350868     1.007825032230
         H           -1.886365870787     1.312621116148    -0.348693649132     1.007825032230
         H           -3.006819870787    -0.056014883852    -0.465065649132     1.007825032230

  Basis Set: AUG-CC-PVTZ
    Blend: AUG-CC-PVTZ
  Basis Set: (AUG-CC-PVTZ AUX)
    Blend: AUG-CC-PVTZ-JKFIT
	 Reference Energy          =    -195.1961961413321660 [Eh]
	 Singles Energy            =      -0.0000000000000000 [Eh]
	 Same-Spin Energy          =      -0.2101165804136967 [Eh]
	 Opposite-Spin Energy      =      -0.7638999264605031 [Eh]
	 Correlation Energy        =      -0.9740165068741997 [Eh]
	 Total Energy              =    -196.1702126482063591 [Eh]

	 ================> DF-SCS-MP2 Energies <==================
	-----------------------------------------------------------
	 SCS Same-Spin Scale       =       0.3333333333333333 [-]
	 SCS Opposite-Spin Scale   =       1.2000000000000000 [-]
	 SCS Same-Spin Energy      =      -0.0700388601378989 [Eh]
	 SCS Opposite-Spin Energy  =      -0.9166799117526037 [Eh]
	 SCS Correlation Energy    =      -0.9867187718905026 [Eh]
	 SCS Total Energy          =    -196.1829149132226746 [Eh]
	-----------------------------------------------------------

  Dipole Moment: [D]
     X:    -0.0836      Y:    -0.0566      Z:     0.0448     Total:     0.1104

*** Psi4 exiting successfully. Buy a developer a beer!
