                               Psi4 1.4a3.dev225

  ==> Input File <==

--------------------------------------------------------------------------
#psi4
#
memory 32 gb

molecule  {
0 1
  C        0.3607500    -0.1378060     0.4783360
  C        1.7144850    -0.5067070    -0.0610140
  C        1.2123340     0.9079950    -0.1890090
  C       -0.9125658    -0.6326694    -0.2097792
  C       -2.0823580     0.3074100     0.0307800
  H        0.2884170    -0.0635660     1.5625600
  H        1.7473340    -1.1149480    -0.9600470
  H        2.5174380    -0.7063170     0.6411980
  H        1.6733330     1.6758980     0.4236460
  H        0.9069420     1.2477170    -1.1746190
  H       -1.1377290    -1.6353390     0.1563050
  H       -0.7014120    -0.7176330    -1.2773050
  H       -2.3027070     0.3979840     1.0988780
  H       -1.8634650     1.3083430    -0.3520570
  H       -2.9839190    -0.0602930    -0.4684290
units angstrom
no_reorient  #important for SAPT in psi4, default
symmetry c1  #important for SAPT in psi4, default
}

set PROPERTIES_ORIGIN ["COM"]
properties('MP2/aug-cc-pvtz', properties = ['dipole'])
--------------------------------------------------------------------------

    Molecular point group: c1
  Charge       = 0
  Multiplicity = 1
  Basis Set: AUG-CC-PVTZ
    Blend: AUG-CC-PVTZ
  Basis Set: (AUG-CC-PVTZ AUX)
    Blend: AUG-CC-PVTZ-JKFIT

    Orbital Energies [Eh]
    ---------------------

    Doubly Occupied:

       1A    -11.225427     2A    -11.219366     3A    -11.219267
       4A    -11.218645     5A    -11.209590     6A     -1.140738
       7A     -1.020539     8A     -0.863537     9A     -0.815821
      10A     -0.766908    11A     -0.661777    12A     -0.622302
      13A     -0.594568    14A     -0.551933    15A     -0.521650
      16A     -0.506355    17A     -0.490468    18A     -0.467712
      19A     -0.408757    20A     -0.400279

  @DF-RHF Final Energy:  -195.19923570854706

   => Energetics <=

    Nuclear Repulsion Energy =            179.4407327071087934
    One-Electron Energy =                -617.4286567429794559
    Two-Electron Energy =                 242.7886883273235981
    Total Energy =                       -195.1992357085470644
  Basis Set: (AUG-CC-PVTZ AUX)
    Blend: AUG-CC-PVTZ-RI
    Molecular point group: c1

    Geometry (in Angstrom), charge = 0, multiplicity = 1:

       Center              X                  Y                   Z               Mass
    ------------   -----------------  -----------------  -----------------  -----------------
         C            0.337326855900    -0.131999832002     0.474923274156    12.000000000000
         C            1.691061855900    -0.500900832002    -0.064426725844    12.000000000000
         C            1.188910855900     0.913801167998    -0.192421725844    12.000000000000
         C           -0.935988944100    -0.626863232002    -0.213191925844    12.000000000000
         C           -2.105781144100     0.313216167998     0.027367274156    12.000000000000
         H            0.264993855900    -0.057759832002     1.559147274156     1.007825032230
         H            1.723910855900    -1.109141832002    -0.963459725844     1.007825032230
         H            2.494014855900    -0.700510832002     0.637785274156     1.007825032230
         H            1.649909855900     1.681704167998     0.420233274156     1.007825032230
         H            0.883518855900     1.253523167998    -1.178031725844     1.007825032230
         H           -1.161152144100    -1.629532832002     0.152892274156     1.007825032230
         H           -0.724835144100    -0.711826832002    -1.280717725844     1.007825032230
         H           -2.326130144100     0.403790167998     1.095465274156     1.007825032230
         H           -1.886888144100     1.314149167998    -0.355469725844     1.007825032230
         H           -3.007342144100    -0.054486832002    -0.471841725844     1.007825032230

  Basis Set: AUG-CC-PVTZ
    Blend: AUG-CC-PVTZ
  Basis Set: (AUG-CC-PVTZ AUX)
    Blend: AUG-CC-PVTZ-JKFIT
	 Reference Energy          =    -195.1992357085470644 [Eh]
	 Singles Energy            =      -0.0000000000000000 [Eh]
	 Same-Spin Energy          =      -0.2099691073680950 [Eh]
	 Opposite-Spin Energy      =      -0.7636925094427851 [Eh]
	 Correlation Energy        =      -0.9736616168108800 [Eh]
	 Total Energy              =    -196.1728973253579511 [Eh]

	 ================> DF-SCS-MP2 Energies <==================
	-----------------------------------------------------------
	 SCS Same-Spin Scale       =       0.3333333333333333 [-]
	 SCS Opposite-Spin Scale   =       1.2000000000000000 [-]
	 SCS Same-Spin Energy      =      -0.0699897024560317 [Eh]
	 SCS Opposite-Spin Energy  =      -0.9164310113313421 [Eh]
	 SCS Correlation Energy    =      -0.9864207137873737 [Eh]
	 SCS Total Energy          =    -196.1856564223344321 [Eh]
	-----------------------------------------------------------

  Dipole Moment: [D]
     X:    -0.1016      Y:    -0.0623      Z:     0.0655     Total:     0.1360

*** Psi4 exiting successfully. Buy a developer a beer!
