                               Psi4 1.3.2 release

  ==> Input File <==

--------------------------------------------------------------------------
#psi4
#
memory 32 gb

molecule  {
0 1
  C        0.3607500    -0.1378060     0.4783360
  C        1.7144850    -0.5067070    -0.0610140
  C        1.2123340     0.9079950    -0.1890090
  C       -0.8959170    -0.6261990    -0.2007820
  C       -2.0823580     0.3074100     0.0307800
  H        0.2884170    -0.0635660     1.5625600
  H        1.7473340    -1.1149480    -0.9600470
  H        2.5174380    -0.7063170     0.6411980
  H        1.6733330     1.6758980     0.4236460
  H        0.9069420     1.2477170    -1.1746190
  H       -1.1377290    -1.6353390     0.1563050
  H       -0.7014120    -0.7176330    -1.2773050
  H       -2.3027070     0.3979840     1.0988780
  H       -1.8634650     1.3083430    -0.3520570
  H       -2.9839190    -0.0602930    -0.4684290
units angstrom
no_reorient  #important for SAPT in psi4, default
symmetry c1  #important for SAPT in psi4, default
}

set PROPERTIES_ORIGIN ["COM"]
properties('MP2/aug-cc-pvtz', properties = ['dipole'])
--------------------------------------------------------------------------

    Molecular point group: c1
  Charge       = 0
  Multiplicity = 1
  Basis Set: AUG-CC-PVTZ
    Blend: AUG-CC-PVTZ
  Basis Set: (AUG-CC-PVTZ AUX)
    Blend: AUG-CC-PVTZ-JKFIT

    Orbital Energies [Eh]
    ---------------------

    Doubly Occupied:

       1A    -11.224924     2A    -11.219670     3A    -11.219540
       4A    -11.218921     5A    -11.209797     6A     -1.142283
       7A     -1.019472     8A     -0.865468     9A     -0.816244
      10A     -0.766519    11A     -0.662325    12A     -0.623528
      13A     -0.592820    14A     -0.552004    15A     -0.519844
      16A     -0.506190    17A     -0.489911    18A     -0.471060
      19A     -0.409430    20A     -0.399243

  @DF-RHF Final Energy:  -195.19946297039849

   => Energetics <=

    Nuclear Repulsion Energy =            179.6241531289164470
    One-Electron Energy =                -617.7888413274598634
    Two-Electron Energy =                 242.9652252281449591
    Total Energy =                       -195.1994629703984856
  Basis Set: (AUG-CC-PVTZ AUX)
    Blend: AUG-CC-PVTZ-RI
    Molecular point group: c1

    Geometry (in Angstrom), charge = 0, multiplicity = 1:

       Center              X                  Y                   Z               Mass
    ------------   -----------------  -----------------  -----------------  -----------------
         C            0.334475962804    -0.133107804870     0.473382619252    12.000000000000
         C            1.688210962804    -0.502008804870    -0.065967380748    12.000000000000
         C            1.186059962804     0.912693195130    -0.193962380748    12.000000000000
         C           -0.922191037196    -0.621500804870    -0.205735380748    12.000000000000
         C           -2.108632037196     0.312108195130     0.025826619252    12.000000000000
         H            0.262142962804    -0.058867804870     1.557606619252     1.007825032230
         H            1.721059962804    -1.110249804870    -0.965000380748     1.007825032230
         H            2.491163962804    -0.701618804870     0.636244619252     1.007825032230
         H            1.647058962804     1.680596195130     0.418692619252     1.007825032230
         H            0.880667962804     1.252415195130    -1.179572380748     1.007825032230
         H           -1.164003037196    -1.630640804870     0.151351619252     1.007825032230
         H           -0.727686037196    -0.712934804870    -1.282258380748     1.007825032230
         H           -2.328981037196     0.402682195130     1.093924619252     1.007825032230
         H           -1.889739037196     1.313041195130    -0.357010380748     1.007825032230
         H           -3.010193037196    -0.055594804870    -0.473382380748     1.007825032230

  Basis Set: AUG-CC-PVTZ
    Blend: AUG-CC-PVTZ
  Basis Set: (AUG-CC-PVTZ AUX)
    Blend: AUG-CC-PVTZ-JKFIT
	 Reference Energy          =    -195.1994629703984856 [Eh]
	 Singles Energy            =      -0.0000000000000000 [Eh]
	 Same-Spin Energy          =      -0.2100545527356180 [Eh]
	 Opposite-Spin Energy      =      -0.7637738195773223 [Eh]
	 Correlation Energy        =      -0.9738283723129402 [Eh]
	 Total Energy              =    -196.1732913427114227 [Eh]

	 ================> DF-SCS-MP2 Energies <==================
	-----------------------------------------------------------
	 SCS Same-Spin Scale       =       0.3333333333333333 [-]
	 SCS Opposite-Spin Scale   =       1.2000000000000000 [-]
	 SCS Same-Spin Energy      =      -0.0700181842452060 [Eh]
	 SCS Opposite-Spin Energy  =      -0.9165285834927867 [Eh]
	 SCS Correlation Energy    =      -0.9865467677379927 [Eh]
	 SCS Total Energy          =    -196.1860097381364767 [Eh]
	-----------------------------------------------------------

  Dipole Moment: [D]
     X:    -0.0864      Y:    -0.0584      Z:     0.0663     Total:     0.1235

*** Psi4 exiting successfully. Buy a developer a beer!
