                               Psi4 1.3.2 release

  ==> Input File <==

--------------------------------------------------------------------------
#psi4
#
memory 32 gb

molecule  {
0 1
  C        0.3607500    -0.1378060     0.4783360
  C        1.7237173    -0.5077652    -0.0364796
  C        1.2123340     0.9079950    -0.1890090
  C       -0.8959170    -0.6261990    -0.2007820
  C       -2.0823580     0.3074100     0.0307800
  H        0.2884170    -0.0635660     1.5625600
  H        1.7473340    -1.1149480    -0.9600470
  H        2.5174380    -0.7063170     0.6411980
  H        1.6733330     1.6758980     0.4236460
  H        0.9069420     1.2477170    -1.1746190
  H       -1.1377290    -1.6353390     0.1563050
  H       -0.7014120    -0.7176330    -1.2773050
  H       -2.3027070     0.3979840     1.0988780
  H       -1.8634650     1.3083430    -0.3520570
  H       -2.9839190    -0.0602930    -0.4684290
units angstrom
no_reorient  #important for SAPT in psi4, default
symmetry c1  #important for SAPT in psi4, default
}

set PROPERTIES_ORIGIN ["COM"]
properties('MP2/aug-cc-pvtz', properties = ['dipole'])
--------------------------------------------------------------------------

    Molecular point group: c1
  Charge       = 0
  Multiplicity = 1
  Basis Set: AUG-CC-PVTZ
    Blend: AUG-CC-PVTZ
  Basis Set: (AUG-CC-PVTZ AUX)
    Blend: AUG-CC-PVTZ-JKFIT

    Orbital Energies [Eh]
    ---------------------

    Doubly Occupied:

       1A    -11.225305     2A    -11.220022     3A    -11.219673
       4A    -11.219065     5A    -11.210137     6A     -1.141284
       7A     -1.019647     8A     -0.865580     9A     -0.817106
      10A     -0.765969    11A     -0.664029    12A     -0.621543
      13A     -0.594184    14A     -0.551392    15A     -0.519968
      16A     -0.506229    17A     -0.490389    18A     -0.471127
      19A     -0.407478    20A     -0.400486

  @DF-RHF Final Energy:  -195.19865173773084

   => Energetics <=

    Nuclear Repulsion Energy =            179.5269154175365713
    One-Electron Energy =                -617.5899107350287522
    Two-Electron Energy =                 242.8643435797613677
    Total Energy =                       -195.1986517377308417
  Basis Set: (AUG-CC-PVTZ AUX)
    Blend: AUG-CC-PVTZ-RI
    Molecular point group: c1

    Geometry (in Angstrom), charge = 0, multiplicity = 1:

       Center              X                  Y                   Z               Mass
    ------------   -----------------  -----------------  -----------------  -----------------
         C            0.332895050046    -0.132926601716     0.469181418471    12.000000000000
         C            1.695862350046    -0.502885801716    -0.045634181529    12.000000000000
         C            1.184479050046     0.912874398284    -0.198163581529    12.000000000000
         C           -0.923771949954    -0.621319601716    -0.209936581529    12.000000000000
         C           -2.110212949954     0.312289398284     0.021625418471    12.000000000000
         H            0.260562050046    -0.058686601716     1.553405418471     1.007825032230
         H            1.719479050046    -1.110068601716    -0.969201581529     1.007825032230
         H            2.489583050046    -0.701437601716     0.632043418471     1.007825032230
         H            1.645478050046     1.680777398284     0.414491418471     1.007825032230
         H            0.879087050046     1.252596398284    -1.183773581529     1.007825032230
         H           -1.165583949954    -1.630459601716     0.147150418471     1.007825032230
         H           -0.729266949954    -0.712753601716    -1.286459581529     1.007825032230
         H           -2.330561949954     0.402863398284     1.089723418471     1.007825032230
         H           -1.891319949954     1.313222398284    -0.361211581529     1.007825032230
         H           -3.011773949954    -0.055413601716    -0.477583581529     1.007825032230

  Basis Set: AUG-CC-PVTZ
    Blend: AUG-CC-PVTZ
  Basis Set: (AUG-CC-PVTZ AUX)
    Blend: AUG-CC-PVTZ-JKFIT
	 Reference Energy          =    -195.1986517377308417 [Eh]
	 Singles Energy            =      -0.0000000000000000 [Eh]
	 Same-Spin Energy          =      -0.2100566430215921 [Eh]
	 Opposite-Spin Energy      =      -0.7638344389000261 [Eh]
	 Correlation Energy        =      -0.9738910819216182 [Eh]
	 Total Energy              =    -196.1725428196524490 [Eh]

	 ================> DF-SCS-MP2 Energies <==================
	-----------------------------------------------------------
	 SCS Same-Spin Scale       =       0.3333333333333333 [-]
	 SCS Opposite-Spin Scale   =       1.2000000000000000 [-]
	 SCS Same-Spin Energy      =      -0.0700188810071974 [Eh]
	 SCS Opposite-Spin Energy  =      -0.9166013266800312 [Eh]
	 SCS Correlation Energy    =      -0.9866202076872286 [Eh]
	 SCS Total Energy          =    -196.1852719454180658 [Eh]
	-----------------------------------------------------------

  Dipole Moment: [D]
     X:    -0.0929      Y:    -0.0556      Z:     0.0772     Total:     0.1330

*** Psi4 exiting successfully. Buy a developer a beer!
