                               Psi4 1.3.2 release

  ==> Input File <==

--------------------------------------------------------------------------
#psi4
#
memory 32 gb

molecule  {
0 1
  C        0.3474555    -0.1169561     0.4874313
  C        1.7144850    -0.5067070    -0.0610140
  C        1.2123340     0.9079950    -0.1890090
  C       -0.8959170    -0.6261990    -0.2007820
  C       -2.0823580     0.3074100     0.0307800
  H        0.2884170    -0.0635660     1.5625600
  H        1.7473340    -1.1149480    -0.9600470
  H        2.5174380    -0.7063170     0.6411980
  H        1.6733330     1.6758980     0.4236460
  H        0.9069420     1.2477170    -1.1746190
  H       -1.1377290    -1.6353390     0.1563050
  H       -0.7014120    -0.7176330    -1.2773050
  H       -2.3027070     0.3979840     1.0988780
  H       -1.8634650     1.3083430    -0.3520570
  H       -2.9839190    -0.0602930    -0.4684290
units angstrom
no_reorient  #important for SAPT in psi4, default
symmetry c1  #important for SAPT in psi4, default
}

set PROPERTIES_ORIGIN ["COM"]
properties('MP2/aug-cc-pvtz', properties = ['dipole'])
--------------------------------------------------------------------------

    Molecular point group: c1
  Charge       = 0
  Multiplicity = 1
  Basis Set: AUG-CC-PVTZ
    Blend: AUG-CC-PVTZ
  Basis Set: (AUG-CC-PVTZ AUX)
    Blend: AUG-CC-PVTZ-JKFIT

    Orbital Energies [Eh]
    ---------------------

    Doubly Occupied:

       1A    -11.224854     2A    -11.220430     3A    -11.219597
       4A    -11.219078     5A    -11.209292     6A     -1.139685
       7A     -1.019179     8A     -0.864907     9A     -0.815698
      10A     -0.768521    11A     -0.661708    12A     -0.623094
      13A     -0.592553    14A     -0.552751    15A     -0.519007
      16A     -0.506178    17A     -0.489918    18A     -0.473300
      19A     -0.411900    20A     -0.394151

  @DF-RHF Final Energy:  -195.19898021277228

   => Energetics <=

    Nuclear Repulsion Energy =            179.5419373308363618
    One-Electron Energy =                -617.6302347235352954
    Two-Electron Energy =                 242.8893171799266213
    Total Energy =                       -195.1989802127722839
  Basis Set: (AUG-CC-PVTZ AUX)
    Blend: AUG-CC-PVTZ-RI
    Molecular point group: c1

    Geometry (in Angstrom), charge = 0, multiplicity = 1:

       Center              X                  Y                   Z               Mass
    ------------   -----------------  -----------------  -----------------  -----------------
         C            0.323457975121    -0.115828182365     0.480920465984    12.000000000000
         C            1.690487475121    -0.505579082365    -0.067524834016    12.000000000000
         C            1.188336475121     0.909122917635    -0.195519834016    12.000000000000
         C           -0.919914524879    -0.625071082365    -0.207292834016    12.000000000000
         C           -2.106355524879     0.308537917635     0.024269165984    12.000000000000
         H            0.264419475121    -0.062438082365     1.556049165984     1.007825032230
         H            1.723336475121    -1.113820082365    -0.966557834016     1.007825032230
         H            2.493440475121    -0.705189082365     0.634687165984     1.007825032230
         H            1.649335475121     1.677025917635     0.417135165984     1.007825032230
         H            0.882944475121     1.248844917635    -1.181129834016     1.007825032230
         H           -1.161726524879    -1.634211082365     0.149794165984     1.007825032230
         H           -0.725409524879    -0.716505082365    -1.283815834016     1.007825032230
         H           -2.326704524879     0.399111917635     1.092367165984     1.007825032230
         H           -1.887462524879     1.309470917635    -0.358567834016     1.007825032230
         H           -3.007916524879    -0.059165082365    -0.474939834016     1.007825032230

  Basis Set: AUG-CC-PVTZ
    Blend: AUG-CC-PVTZ
  Basis Set: (AUG-CC-PVTZ AUX)
    Blend: AUG-CC-PVTZ-JKFIT
	 Reference Energy          =    -195.1989802127722839 [Eh]
	 Singles Energy            =      -0.0000000000000000 [Eh]
	 Same-Spin Energy          =      -0.2100440118601967 [Eh]
	 Opposite-Spin Energy      =      -0.7639002820901314 [Eh]
	 Correlation Energy        =      -0.9739442939503280 [Eh]
	 Total Energy              =    -196.1729245067226088 [Eh]

	 ================> DF-SCS-MP2 Energies <==================
	-----------------------------------------------------------
	 SCS Same-Spin Scale       =       0.3333333333333333 [-]
	 SCS Opposite-Spin Scale   =       1.2000000000000000 [-]
	 SCS Same-Spin Energy      =      -0.0700146706200656 [Eh]
	 SCS Opposite-Spin Energy  =      -0.9166803385081577 [Eh]
	 SCS Correlation Energy    =      -0.9866950091282232 [Eh]
	 SCS Total Energy          =    -196.1856752219005102 [Eh]
	-----------------------------------------------------------

  Dipole Moment: [D]
     X:    -0.0834      Y:    -0.0444      Z:     0.0638     Total:     0.1140

*** Psi4 exiting successfully. Buy a developer a beer!
