                               Psi4 1.3.2 release

  ==> Input File <==

--------------------------------------------------------------------------
#psi4
#
memory 32 gb

molecule  {
0 1
  C        0.3337822    -0.0962613     0.4963169
  C        1.7144850    -0.5067070    -0.0610140
  C        1.2123340     0.9079950    -0.1890090
  C       -0.8959170    -0.6261990    -0.2007820
  C       -2.0823580     0.3074100     0.0307800
  H        0.2884170    -0.0635660     1.5625600
  H        1.7473340    -1.1149480    -0.9600470
  H        2.5174380    -0.7063170     0.6411980
  H        1.6733330     1.6758980     0.4236460
  H        0.9069420     1.2477170    -1.1746190
  H       -1.1377290    -1.6353390     0.1563050
  H       -0.7014120    -0.7176330    -1.2773050
  H       -2.3027070     0.3979840     1.0988780
  H       -1.8634650     1.3083430    -0.3520570
  H       -2.9839190    -0.0602930    -0.4684290
units angstrom
no_reorient  #important for SAPT in psi4, default
symmetry c1  #important for SAPT in psi4, default
}

set PROPERTIES_ORIGIN ["COM"]
properties('MP2/aug-cc-pvtz', properties = ['dipole'])
--------------------------------------------------------------------------

    Molecular point group: c1
  Charge       = 0
  Multiplicity = 1
  Basis Set: AUG-CC-PVTZ
    Blend: AUG-CC-PVTZ
  Basis Set: (AUG-CC-PVTZ AUX)
    Blend: AUG-CC-PVTZ-JKFIT

    Orbital Energies [Eh]
    ---------------------

    Doubly Occupied:

       1A    -11.225007     2A    -11.221600     3A    -11.219624
       4A    -11.219020     5A    -11.208827     6A     -1.137158
       7A     -1.018927     8A     -0.864408     9A     -0.815249
      10A     -0.770485    11A     -0.661123    12A     -0.622609
      13A     -0.592314    14A     -0.553667    15A     -0.518171
      16A     -0.506155    17A     -0.489976    18A     -0.475298
      19A     -0.415757    20A     -0.387534

  @DF-RHF Final Energy:  -195.19756589911484

   => Energetics <=

    Nuclear Repulsion Energy =            179.4551394733246070
    One-Electron Energy =                -617.4595934806196738
    Two-Electron Energy =                 242.8068881081802317
    Total Energy =                       -195.1975658991148350
  Basis Set: (AUG-CC-PVTZ AUX)
    Blend: AUG-CC-PVTZ-RI
    Molecular point group: c1

    Geometry (in Angstrom), charge = 0, multiplicity = 1:

       Center              X                  Y                   Z               Mass
    ------------   -----------------  -----------------  -----------------  -----------------
         C            0.312126052071    -0.098677100978     0.488284521147    12.000000000000
         C            1.692828852071    -0.509122800978    -0.069046378853    12.000000000000
         C            1.190677852071     0.905579199022    -0.197041378853    12.000000000000
         C           -0.917573147929    -0.628614800978    -0.208814378853    12.000000000000
         C           -2.104014147929     0.304994199022     0.022747621147    12.000000000000
         H            0.266760852071    -0.065981800978     1.554527621147     1.007825032230
         H            1.725677852071    -1.117363800978    -0.968079378853     1.007825032230
         H            2.495781852071    -0.708732800978     0.633165621147     1.007825032230
         H            1.651676852071     1.673482199022     0.415613621147     1.007825032230
         H            0.885285852071     1.245301199022    -1.182651378853     1.007825032230
         H           -1.159385147929    -1.637754800978     0.148272621147     1.007825032230
         H           -0.723068147929    -0.720048800978    -1.285337378853     1.007825032230
         H           -2.324363147929     0.395568199022     1.090845621147     1.007825032230
         H           -1.885121147929     1.305927199022    -0.360089378853     1.007825032230
         H           -3.005575147929    -0.062708800978    -0.476461378853     1.007825032230

  Basis Set: AUG-CC-PVTZ
    Blend: AUG-CC-PVTZ
  Basis Set: (AUG-CC-PVTZ AUX)
    Blend: AUG-CC-PVTZ-JKFIT
	 Reference Energy          =    -195.1975658991148350 [Eh]
	 Singles Energy            =      -0.0000000000000000 [Eh]
	 Same-Spin Energy          =      -0.2100724711747030 [Eh]
	 Opposite-Spin Energy      =      -0.7641134134238453 [Eh]
	 Correlation Energy        =      -0.9741858845985483 [Eh]
	 Total Energy              =    -196.1717517837133755 [Eh]

	 ================> DF-SCS-MP2 Energies <==================
	-----------------------------------------------------------
	 SCS Same-Spin Scale       =       0.3333333333333333 [-]
	 SCS Opposite-Spin Scale   =       1.2000000000000000 [-]
	 SCS Same-Spin Energy      =      -0.0700241570582343 [Eh]
	 SCS Opposite-Spin Energy  =      -0.9169360961086144 [Eh]
	 SCS Correlation Energy    =      -0.9869602531668487 [Eh]
	 SCS Total Energy          =    -196.1845261522816770 [Eh]
	-----------------------------------------------------------

  Dipole Moment: [D]
     X:    -0.0810      Y:    -0.0315      Z:     0.0604     Total:     0.1058

*** Psi4 exiting successfully. Buy a developer a beer!
