                               Psi4 1.3.2 release

  ==> Input File <==

--------------------------------------------------------------------------
#psi4
#
memory 32 gb

molecule  {
0 1
  C        0.3053162    -0.0553622     0.5134484
  C        1.7144850    -0.5067070    -0.0610140
  C        1.2123340     0.9079950    -0.1890090
  C       -0.8959170    -0.6261990    -0.2007820
  C       -2.0823580     0.3074100     0.0307800
  H        0.2884170    -0.0635660     1.5625600
  H        1.7473340    -1.1149480    -0.9600470
  H        2.5174380    -0.7063170     0.6411980
  H        1.6733330     1.6758980     0.4236460
  H        0.9069420     1.2477170    -1.1746190
  H       -1.1377290    -1.6353390     0.1563050
  H       -0.7014120    -0.7176330    -1.2773050
  H       -2.3027070     0.3979840     1.0988780
  H       -1.8634650     1.3083430    -0.3520570
  H       -2.9839190    -0.0602930    -0.4684290
units angstrom
no_reorient  #important for SAPT in psi4, default
symmetry c1  #important for SAPT in psi4, default
}

set PROPERTIES_ORIGIN ["COM"]
properties('MP2/aug-cc-pvtz', properties = ['dipole'])
--------------------------------------------------------------------------

    Molecular point group: c1
  Charge       = 0
  Multiplicity = 1
  Basis Set: AUG-CC-PVTZ
    Blend: AUG-CC-PVTZ
  Basis Set: (AUG-CC-PVTZ AUX)
    Blend: AUG-CC-PVTZ-JKFIT

    Orbital Energies [Eh]
    ---------------------

    Doubly Occupied:

       1A    -11.225963     2A    -11.224161     3A    -11.219911
       4A    -11.218907     5A    -11.208016     6A     -1.132327
       7A     -1.018533     8A     -0.863587     9A     -0.814643
      10A     -0.774231    11A     -0.660053    12A     -0.621482
      13A     -0.591910    14A     -0.555889    15A     -0.516636
      16A     -0.506065    17A     -0.490199    18A     -0.478537
      19A     -0.423752    20A     -0.373697

  @DF-RHF Final Energy:  -195.19221279635855

   => Energetics <=

    Nuclear Repulsion Energy =            179.2679648511716834
    One-Electron Energy =                -617.0833624525707819
    Two-Electron Energy =                 242.6231848050405802
    Total Energy =                       -195.1922127963585467
  Basis Set: (AUG-CC-PVTZ AUX)
    Blend: AUG-CC-PVTZ-RI
    Molecular point group: c1

    Geometry (in Angstrom), charge = 0, multiplicity = 1:

       Center              X                  Y                   Z               Mass
    ------------   -----------------  -----------------  -----------------  -----------------
         C            0.288534488839    -0.064781446380     0.502482471878    12.000000000000
         C            1.697703288839    -0.516126246380    -0.071979928122    12.000000000000
         C            1.195552288839     0.898575753620    -0.199974928122    12.000000000000
         C           -0.912698711161    -0.635618246380    -0.211747928122    12.000000000000
         C           -2.099139711161     0.297990753620     0.019814071878    12.000000000000
         H            0.271635288839    -0.072985246380     1.551594071878     1.007825032230
         H            1.730552288839    -1.124367246380    -0.971012928122     1.007825032230
         H            2.500656288839    -0.715736246380     0.630232071878     1.007825032230
         H            1.656551288839     1.666478753620     0.412680071878     1.007825032230
         H            0.890160288839     1.238297753620    -1.185584928122     1.007825032230
         H           -1.154510711161    -1.644758246380     0.145339071878     1.007825032230
         H           -0.718193711161    -0.727052246380    -1.288270928122     1.007825032230
         H           -2.319488711161     0.388564753620     1.087912071878     1.007825032230
         H           -1.880246711161     1.298923753620    -0.363022928122     1.007825032230
         H           -3.000700711161    -0.069712246380    -0.479394928122     1.007825032230

  Basis Set: AUG-CC-PVTZ
    Blend: AUG-CC-PVTZ
  Basis Set: (AUG-CC-PVTZ AUX)
    Blend: AUG-CC-PVTZ-JKFIT
	 Reference Energy          =    -195.1922127963585467 [Eh]
	 Singles Energy            =      -0.0000000000000000 [Eh]
	 Same-Spin Energy          =      -0.2102443050069405 [Eh]
	 Opposite-Spin Energy      =      -0.7647925269222304 [Eh]
	 Correlation Energy        =      -0.9750368319291709 [Eh]
	 Total Energy              =    -196.1672496282877205 [Eh]

	 ================> DF-SCS-MP2 Energies <==================
	-----------------------------------------------------------
	 SCS Same-Spin Scale       =       0.3333333333333333 [-]
	 SCS Opposite-Spin Scale   =       1.2000000000000000 [-]
	 SCS Same-Spin Energy      =      -0.0700814350023135 [Eh]
	 SCS Opposite-Spin Energy  =      -0.9177510323066764 [Eh]
	 SCS Correlation Energy    =      -0.9878324673089899 [Eh]
	 SCS Total Energy          =    -196.1800452636675232 [Eh]
	-----------------------------------------------------------

  Dipole Moment: [D]
     X:    -0.0764      Y:    -0.0091      Z:     0.0510     Total:     0.0923

*** Psi4 exiting successfully. Buy a developer a beer!
