                               Psi4 1.3.2 release

  ==> Input File <==

--------------------------------------------------------------------------
#psi4
#
memory 32 gb

molecule  {
0 1
  C        0.3607500    -0.1378060     0.4783360
  C        1.7635994    -0.5113607     0.0883935
  C        1.2123340     0.9079950    -0.1890090
  C       -0.8959170    -0.6261990    -0.2007820
  C       -2.0823580     0.3074100     0.0307800
  H        0.2884170    -0.0635660     1.5625600
  H        1.7473340    -1.1149480    -0.9600470
  H        2.5174380    -0.7063170     0.6411980
  H        1.6733330     1.6758980     0.4236460
  H        0.9069420     1.2477170    -1.1746190
  H       -1.1377290    -1.6353390     0.1563050
  H       -0.7014120    -0.7176330    -1.2773050
  H       -2.3027070     0.3979840     1.0988780
  H       -1.8634650     1.3083430    -0.3520570
  H       -2.9839190    -0.0602930    -0.4684290
units angstrom
no_reorient  #important for SAPT in psi4, default
symmetry c1  #important for SAPT in psi4, default
}

set PROPERTIES_ORIGIN ["COM"]
properties('MP2/aug-cc-pvtz', properties = ['dipole'])
--------------------------------------------------------------------------

    Molecular point group: c1
  Charge       = 0
  Multiplicity = 1
  Basis Set: AUG-CC-PVTZ
    Blend: AUG-CC-PVTZ
  Basis Set: (AUG-CC-PVTZ AUX)
    Blend: AUG-CC-PVTZ-JKFIT

    Orbital Energies [Eh]
    ---------------------

    Doubly Occupied:

       1A    -11.229147     2A    -11.222541     3A    -11.222460
       4A    -11.221722     5A    -11.212266     6A     -1.137386
       7A     -1.021139     8A     -0.867495     9A     -0.829080
      10A     -0.766605    11A     -0.671560    12A     -0.620262
      13A     -0.598022    14A     -0.550358    15A     -0.521919
      16A     -0.501039    17A     -0.489587    18A     -0.471818
      19A     -0.405056    20A     -0.395623

  @DF-RHF Final Energy:  -195.16891973382269

   => Energetics <=

    Nuclear Repulsion Energy =            179.0838170896893189
    One-Electron Energy =                -616.5953054048741251
    Two-Electron Energy =                 242.3425685813621158
    Total Energy =                       -195.1689197338226904
  Basis Set: (AUG-CC-PVTZ AUX)
    Blend: AUG-CC-PVTZ-RI
    Molecular point group: c1

    Geometry (in Angstrom), charge = 0, multiplicity = 1:

       Center              X                  Y                   Z               Mass
    ------------   -----------------  -----------------  -----------------  -----------------
         C            0.326065752828    -0.132310918536     0.447798504470    12.000000000000
         C            1.728915152828    -0.505865618536     0.057856004470    12.000000000000
         C            1.177649752828     0.913490081464    -0.219546495530    12.000000000000
         C           -0.930601247172    -0.620703918536    -0.231319495530    12.000000000000
         C           -2.117042247172     0.312905081464     0.000242504470    12.000000000000
         H            0.253732752828    -0.058070918536     1.532022504470     1.007825032230
         H            1.712649752828    -1.109452918536    -0.990584495530     1.007825032230
         H            2.482753752828    -0.700821918536     0.610660504470     1.007825032230
         H            1.638648752828     1.681393081464     0.393108504470     1.007825032230
         H            0.872257752828     1.253212081464    -1.205156495530     1.007825032230
         H           -1.172413247172    -1.629843918536     0.125767504470     1.007825032230
         H           -0.736096247172    -0.712137918536    -1.307842495530     1.007825032230
         H           -2.337391247172     0.403479081464     1.068340504470     1.007825032230
         H           -1.898149247172     1.313838081464    -0.382594495530     1.007825032230
         H           -3.018603247172    -0.054797918536    -0.498966495530     1.007825032230

  Basis Set: AUG-CC-PVTZ
    Blend: AUG-CC-PVTZ
  Basis Set: (AUG-CC-PVTZ AUX)
    Blend: AUG-CC-PVTZ-JKFIT
	 Reference Energy          =    -195.1689197338226904 [Eh]
	 Singles Energy            =      -0.0000000000000000 [Eh]
	 Same-Spin Energy          =      -0.2104004929174117 [Eh]
	 Opposite-Spin Energy      =      -0.7653872626363740 [Eh]
	 Correlation Energy        =      -0.9757877555537857 [Eh]
	 Total Energy              =    -196.1447074893764864 [Eh]

	 ================> DF-SCS-MP2 Energies <==================
	-----------------------------------------------------------
	 SCS Same-Spin Scale       =       0.3333333333333333 [-]
	 SCS Opposite-Spin Scale   =       1.2000000000000000 [-]
	 SCS Same-Spin Energy      =      -0.0701334976391372 [Eh]
	 SCS Opposite-Spin Energy  =      -0.9184647151636488 [Eh]
	 SCS Correlation Energy    =      -0.9885982128027860 [Eh]
	 SCS Total Energy          =    -196.1575179466254895 [Eh]
	-----------------------------------------------------------

  Dipole Moment: [D]
     X:    -0.1755      Y:    -0.0054      Z:     0.1374     Total:     0.2229

*** Psi4 exiting successfully. Buy a developer a beer!
