                               Psi4 1.3.2 release

  ==> Input File <==

--------------------------------------------------------------------------
#psi4
#
memory 32 gb

molecule  {
0 1
  C        0.3589332    -0.1151981     0.4649282
  C        1.7144850    -0.5067070    -0.0610140
  C        1.2123340     0.9079950    -0.1890090
  C       -0.8959170    -0.6261990    -0.2007820
  C       -2.0823580     0.3074100     0.0307800
  H        0.2884170    -0.0635660     1.5625600
  H        1.7473340    -1.1149480    -0.9600470
  H        2.5174380    -0.7063170     0.6411980
  H        1.6733330     1.6758980     0.4236460
  H        0.9069420     1.2477170    -1.1746190
  H       -1.1377290    -1.6353390     0.1563050
  H       -0.7014120    -0.7176330    -1.2773050
  H       -2.3027070     0.3979840     1.0988780
  H       -1.8634650     1.3083430    -0.3520570
  H       -2.9839190    -0.0602930    -0.4684290
units angstrom
no_reorient  #important for SAPT in psi4, default
symmetry c1  #important for SAPT in psi4, default
}

set PROPERTIES_ORIGIN ["COM"]
properties('MP2/aug-cc-pvtz', properties = ['dipole'])
--------------------------------------------------------------------------

    Molecular point group: c1
  Charge       = 0
  Multiplicity = 1
  Basis Set: AUG-CC-PVTZ
    Blend: AUG-CC-PVTZ
  Basis Set: (AUG-CC-PVTZ AUX)
    Blend: AUG-CC-PVTZ-JKFIT

    Orbital Energies [Eh]
    ---------------------

    Doubly Occupied:

       1A    -11.225072     2A    -11.219824     3A    -11.219364
       4A    -11.218071     5A    -11.209773     6A     -1.145223
       7A     -1.020127     8A     -0.864874     9A     -0.817175
      10A     -0.764685    11A     -0.663395    12A     -0.624694
      13A     -0.593321    14A     -0.550986    15A     -0.519375
      16A     -0.506143    17A     -0.490574    18A     -0.468554
      19A     -0.412581    20A     -0.398950

  @DF-RHF Final Energy:  -195.19894208434010

   => Energetics <=

    Nuclear Repulsion Energy =            179.7943116570805273
    One-Electron Energy =                -618.1209924760395324
    Two-Electron Energy =                 243.1277387346189016
    Total Energy =                       -195.1989420843401035
  Basis Set: (AUG-CC-PVTZ AUX)
    Blend: AUG-CC-PVTZ-RI
    Molecular point group: c1

    Geometry (in Angstrom), charge = 0, multiplicity = 1:

       Center              X                  Y                   Z               Mass
    ------------   -----------------  -----------------  -----------------  -----------------
         C            0.332970266462    -0.114371217278     0.462270732739    12.000000000000
         C            1.688522066462    -0.505880117278    -0.063671467261    12.000000000000
         C            1.186371066462     0.908821882722    -0.191666467261    12.000000000000
         C           -0.921879933538    -0.625372117278    -0.203439467261    12.000000000000
         C           -2.108320933538     0.308236882722     0.028122532739    12.000000000000
         H            0.262454066462    -0.062739117278     1.559902532739     1.007825032230
         H            1.721371066462    -1.114121117278    -0.962704467261     1.007825032230
         H            2.491475066462    -0.705490117278     0.638540532739     1.007825032230
         H            1.647370066462     1.676724882722     0.420988532739     1.007825032230
         H            0.880979066462     1.248543882722    -1.177276467261     1.007825032230
         H           -1.163691933538    -1.634512117278     0.153647532739     1.007825032230
         H           -0.727374933538    -0.716806117278    -1.279962467261     1.007825032230
         H           -2.328669933538     0.398810882722     1.096220532739     1.007825032230
         H           -1.889427933538     1.309169882722    -0.354714467261     1.007825032230
         H           -3.009881933538    -0.059466117278    -0.471086467261     1.007825032230

  Basis Set: AUG-CC-PVTZ
    Blend: AUG-CC-PVTZ
  Basis Set: (AUG-CC-PVTZ AUX)
    Blend: AUG-CC-PVTZ-JKFIT
	 Reference Energy          =    -195.1989420843401035 [Eh]
	 Singles Energy            =      -0.0000000000000000 [Eh]
	 Same-Spin Energy          =      -0.2101162473147613 [Eh]
	 Opposite-Spin Energy      =      -0.7637738219492058 [Eh]
	 Correlation Energy        =      -0.9738900692639672 [Eh]
	 Total Energy              =    -196.1728321536040767 [Eh]

	 ================> DF-SCS-MP2 Energies <==================
	-----------------------------------------------------------
	 SCS Same-Spin Scale       =       0.3333333333333333 [-]
	 SCS Opposite-Spin Scale   =       1.2000000000000000 [-]
	 SCS Same-Spin Energy      =      -0.0700387491049204 [Eh]
	 SCS Opposite-Spin Energy  =      -0.9165285863390470 [Eh]
	 SCS Correlation Energy    =      -0.9865673354439675 [Eh]
	 SCS Total Energy          =    -196.1855094197840685 [Eh]
	-----------------------------------------------------------

  Dipole Moment: [D]
     X:    -0.0969      Y:    -0.0450      Z:     0.0646     Total:     0.1248

*** Psi4 exiting successfully. Buy a developer a beer!
