                               Psi4 1.3.2 release

  ==> Input File <==

--------------------------------------------------------------------------
#psi4
#
memory 32 gb

molecule  {
0 1
  C        0.4100615    -0.2226292     0.4399150
  C        1.7144850    -0.5067070    -0.0610140
  C        1.2123340     0.9079950    -0.1890090
  C       -0.8959170    -0.6261990    -0.2007820
  C       -2.0823580     0.3074100     0.0307800
  H        0.2884170    -0.0635660     1.5625600
  H        1.7473340    -1.1149480    -0.9600470
  H        2.5174380    -0.7063170     0.6411980
  H        1.6733330     1.6758980     0.4236460
  H        0.9069420     1.2477170    -1.1746190
  H       -1.1377290    -1.6353390     0.1563050
  H       -0.7014120    -0.7176330    -1.2773050
  H       -2.3027070     0.3979840     1.0988780
  H       -1.8634650     1.3083430    -0.3520570
  H       -2.9839190    -0.0602930    -0.4684290
units angstrom
no_reorient  #important for SAPT in psi4, default
symmetry c1  #important for SAPT in psi4, default
}

set PROPERTIES_ORIGIN ["COM"]
properties('MP2/aug-cc-pvtz', properties = ['dipole'])
--------------------------------------------------------------------------

    Molecular point group: c1
  Charge       = 0
  Multiplicity = 1
  Basis Set: AUG-CC-PVTZ
    Blend: AUG-CC-PVTZ
  Basis Set: (AUG-CC-PVTZ AUX)
    Blend: AUG-CC-PVTZ-JKFIT

    Orbital Energies [Eh]
    ---------------------

    Doubly Occupied:

       1A    -11.227504     2A    -11.220888     3A    -11.219906
       4A    -11.215283     5A    -11.212210     6A     -1.153297
       7A     -1.021111     8A     -0.868365     9A     -0.819409
      10A     -0.758424    11A     -0.665117    12A     -0.624793
      13A     -0.594222    14A     -0.551139    15A     -0.522601
      16A     -0.506179    17A     -0.490510    18A     -0.460413
      19A     -0.431064    20A     -0.385821

  @DF-RHF Final Energy:  -195.19096674113752

   => Energetics <=

    Nuclear Repulsion Energy =            179.9059273462337671
    One-Electron Energy =                -618.2972772191798185
    Two-Electron Energy =                 243.2003831318085645
    Total Energy =                       -195.1909667411375153
  Basis Set: (AUG-CC-PVTZ AUX)
    Blend: AUG-CC-PVTZ-RI
    Molecular point group: c1

    Geometry (in Angstrom), charge = 0, multiplicity = 1:

       Center              X                  Y                   Z               Mass
    ------------   -----------------  -----------------  -----------------  -----------------
         C            0.375343501985    -0.203406121682     0.441540721868    12.000000000000
         C            1.679767001985    -0.487483921682    -0.059388278132    12.000000000000
         C            1.177616001985     0.927218078318    -0.187383278132    12.000000000000
         C           -0.930634998015    -0.606975921682    -0.199156278132    12.000000000000
         C           -2.117075998015     0.326633078318     0.032405721868    12.000000000000
         H            0.253699001985    -0.044342921682     1.564185721868     1.007825032230
         H            1.712616001985    -1.095724921682    -0.958421278132     1.007825032230
         H            2.482720001985    -0.687093921682     0.642823721868     1.007825032230
         H            1.638615001985     1.695121078318     0.425271721868     1.007825032230
         H            0.872224001985     1.266940078318    -1.172993278132     1.007825032230
         H           -1.172446998015    -1.616115921682     0.157930721868     1.007825032230
         H           -0.736129998015    -0.698409921682    -1.275679278132     1.007825032230
         H           -2.337424998015     0.417207078318     1.100503721868     1.007825032230
         H           -1.898182998015     1.327566078318    -0.350431278132     1.007825032230
         H           -3.018636998015    -0.041069921682    -0.466803278132     1.007825032230

  Basis Set: AUG-CC-PVTZ
    Blend: AUG-CC-PVTZ
  Basis Set: (AUG-CC-PVTZ AUX)
    Blend: AUG-CC-PVTZ-JKFIT
	 Reference Energy          =    -195.1909667411375153 [Eh]
	 Singles Energy            =      -0.0000000000000000 [Eh]
	 Same-Spin Energy          =      -0.2104919999728994 [Eh]
	 Opposite-Spin Energy      =      -0.7641558141246854 [Eh]
	 Correlation Energy        =      -0.9746478140975847 [Eh]
	 Total Energy              =    -196.1656145552350949 [Eh]

	 ================> DF-SCS-MP2 Energies <==================
	-----------------------------------------------------------
	 SCS Same-Spin Scale       =       0.3333333333333333 [-]
	 SCS Opposite-Spin Scale   =       1.2000000000000000 [-]
	 SCS Same-Spin Energy      =      -0.0701639999909665 [Eh]
	 SCS Opposite-Spin Energy  =      -0.9169869769496224 [Eh]
	 SCS Correlation Energy    =      -0.9871509769405888 [Eh]
	 SCS Total Energy          =    -196.1781177180781128 [Eh]
	-----------------------------------------------------------

  Dipole Moment: [D]
     X:    -0.1069      Y:    -0.1235      Z:     0.0667     Total:     0.1764

*** Psi4 exiting successfully. Buy a developer a beer!
