                               Psi4 1.3.2 release

  ==> Input File <==

--------------------------------------------------------------------------
#psi4
#
memory 32 gb

molecule  {
0 1
  C        0.3736617    -0.1588047     0.4690339
  C        1.7144850    -0.5067070    -0.0610140
  C        1.2123340     0.9079950    -0.1890090
  C       -0.8959170    -0.6261990    -0.2007820
  C       -2.0823580     0.3074100     0.0307800
  H        0.2884170    -0.0635660     1.5625600
  H        1.7473340    -1.1149480    -0.9600470
  H        2.5174380    -0.7063170     0.6411980
  H        1.6733330     1.6758980     0.4236460
  H        0.9069420     1.2477170    -1.1746190
  H       -1.1377290    -1.6353390     0.1563050
  H       -0.7014120    -0.7176330    -1.2773050
  H       -2.3027070     0.3979840     1.0988780
  H       -1.8634650     1.3083430    -0.3520570
  H       -2.9839190    -0.0602930    -0.4684290
units angstrom
no_reorient  #important for SAPT in psi4, default
symmetry c1  #important for SAPT in psi4, default
}

set PROPERTIES_ORIGIN ["COM"]
properties('MP2/aug-cc-pvtz', properties = ['dipole'])
--------------------------------------------------------------------------

    Molecular point group: c1
  Charge       = 0
  Multiplicity = 1
  Basis Set: AUG-CC-PVTZ
    Blend: AUG-CC-PVTZ
  Basis Set: (AUG-CC-PVTZ AUX)
    Blend: AUG-CC-PVTZ-JKFIT

    Orbital Energies [Eh]
    ---------------------

    Doubly Occupied:

       1A    -11.225223     2A    -11.219817     3A    -11.219467
       4A    -11.218051     5A    -11.210341     6A     -1.144949
       7A     -1.019810     8A     -0.866094     9A     -0.816889
      10A     -0.764495    11A     -0.662973    12A     -0.623913
      13A     -0.593118    14A     -0.551451    15A     -0.520650
      16A     -0.506194    17A     -0.489963    18A     -0.468595
      19A     -0.412140    20A     -0.398988

  @DF-RHF Final Energy:  -195.19895314794212

   => Energetics <=

    Nuclear Repulsion Energy =            179.7017342107712068
    One-Electron Energy =                -617.9351321507487000
    Two-Electron Energy =                 243.0344447920354014
    Total Energy =                       -195.1989531479421203
  Basis Set: (AUG-CC-PVTZ AUX)
    Blend: AUG-CC-PVTZ-RI
    Molecular point group: c1

    Geometry (in Angstrom), charge = 0, multiplicity = 1:

       Center              X                  Y                   Z               Mass
    ------------   -----------------  -----------------  -----------------  -----------------
         C            0.345176700069    -0.150510747287     0.465673384364    12.000000000000
         C            1.686000000069    -0.498413047287    -0.064374515636    12.000000000000
         C            1.183849000069     0.916288952713    -0.192369515636    12.000000000000
         C           -0.924401999931    -0.617905047287    -0.204142515636    12.000000000000
         C           -2.110842999931     0.315703952713     0.027419484364    12.000000000000
         H            0.259932000069    -0.055272047287     1.559199484364     1.007825032230
         H            1.718849000069    -1.106654047287    -0.963407515636     1.007825032230
         H            2.488953000069    -0.698023047287     0.637837484364     1.007825032230
         H            1.644848000069     1.684191952713     0.420285484364     1.007825032230
         H            0.878457000069     1.256010952713    -1.177979515636     1.007825032230
         H           -1.166213999931    -1.627045047287     0.152944484364     1.007825032230
         H           -0.729896999931    -0.709339047287    -1.280665515636     1.007825032230
         H           -2.331191999931     0.406277952713     1.095517484364     1.007825032230
         H           -1.891949999931     1.316636952713    -0.355417515636     1.007825032230
         H           -3.012403999931    -0.051999047287    -0.471789515636     1.007825032230

  Basis Set: AUG-CC-PVTZ
    Blend: AUG-CC-PVTZ
  Basis Set: (AUG-CC-PVTZ AUX)
    Blend: AUG-CC-PVTZ-JKFIT
	 Reference Energy          =    -195.1989531479421203 [Eh]
	 Singles Energy            =      -0.0000000000000000 [Eh]
	 Same-Spin Energy          =      -0.2101044637160401 [Eh]
	 Opposite-Spin Energy      =      -0.7637354291434737 [Eh]
	 Correlation Energy        =      -0.9738398928595138 [Eh]
	 Total Energy              =    -196.1727930408016221 [Eh]

	 ================> DF-SCS-MP2 Energies <==================
	-----------------------------------------------------------
	 SCS Same-Spin Scale       =       0.3333333333333333 [-]
	 SCS Opposite-Spin Scale   =       1.2000000000000000 [-]
	 SCS Same-Spin Energy      =      -0.0700348212386800 [Eh]
	 SCS Opposite-Spin Energy  =      -0.9164825149721684 [Eh]
	 SCS Correlation Energy    =      -0.9865173362108484 [Eh]
	 SCS Total Energy          =    -196.1854704841529724 [Eh]
	-----------------------------------------------------------

  Dipole Moment: [D]
     X:    -0.0900      Y:    -0.0733      Z:     0.0679     Total:     0.1345

*** Psi4 exiting successfully. Buy a developer a beer!
