                               Psi4 1.3.2 release

  ==> Input File <==

--------------------------------------------------------------------------
#psi4
#
memory 32 gb

molecule  {
0 1
  C        0.3511920    -0.0483356     0.4235048
  C        1.7144850    -0.5067070    -0.0610140
  C        1.2123340     0.9079950    -0.1890090
  C       -0.8959170    -0.6261990    -0.2007820
  C       -2.0823580     0.3074100     0.0307800
  H        0.2884170    -0.0635660     1.5625600
  H        1.7473340    -1.1149480    -0.9600470
  H        2.5174380    -0.7063170     0.6411980
  H        1.6733330     1.6758980     0.4236460
  H        0.9069420     1.2477170    -1.1746190
  H       -1.1377290    -1.6353390     0.1563050
  H       -0.7014120    -0.7176330    -1.2773050
  H       -2.3027070     0.3979840     1.0988780
  H       -1.8634650     1.3083430    -0.3520570
  H       -2.9839190    -0.0602930    -0.4684290
units angstrom
no_reorient  #important for SAPT in psi4, default
symmetry c1  #important for SAPT in psi4, default
}

set PROPERTIES_ORIGIN ["COM"]
properties('MP2/aug-cc-pvtz', properties = ['dipole'])
--------------------------------------------------------------------------

    Molecular point group: c1
  Charge       = 0
  Multiplicity = 1
  Basis Set: AUG-CC-PVTZ
    Blend: AUG-CC-PVTZ
  Basis Set: (AUG-CC-PVTZ AUX)
    Blend: AUG-CC-PVTZ-JKFIT

    Orbital Energies [Eh]
    ---------------------

    Doubly Occupied:

       1A    -11.226880     2A    -11.220927     3A    -11.219646
       4A    -11.215202     5A    -11.209859     6A     -1.154394
       7A     -1.022393     8A     -0.863517     9A     -0.820462
      10A     -0.759321    11A     -0.666570    12A     -0.628422
      13A     -0.594874    14A     -0.547869    15A     -0.519029
      16A     -0.506072    17A     -0.492452    18A     -0.460726
      19A     -0.431792    20A     -0.386375

  @DF-RHF Final Energy:  -195.19087720223175

   => Energetics <=

    Nuclear Repulsion Energy =            180.2744677411485270
    One-Electron Energy =                -619.0371274465892384
    Two-Electron Energy =                 243.5717825032089365
    Total Energy =                       -195.1908772022317464
  Basis Set: (AUG-CC-PVTZ AUX)
    Blend: AUG-CC-PVTZ-RI
    Molecular point group: c1

    Geometry (in Angstrom), charge = 0, multiplicity = 1:

       Center              X                  Y                   Z               Mass
    ------------   -----------------  -----------------  -----------------  -----------------
         C            0.326554647503    -0.058958061352     0.427940557779    12.000000000000
         C            1.689847647503    -0.517329461352    -0.056578242221    12.000000000000
         C            1.187696647503     0.897372538648    -0.184573242221    12.000000000000
         C           -0.920554352497    -0.636821461352    -0.196346242221    12.000000000000
         C           -2.106995352497     0.296787538648     0.035215757779    12.000000000000
         H            0.263779647503    -0.074188461352     1.566995757779     1.007825032230
         H            1.722696647503    -1.125570461352    -0.955611242221     1.007825032230
         H            2.492800647503    -0.716939461352     0.645633757779     1.007825032230
         H            1.648695647503     1.665275538648     0.428081757779     1.007825032230
         H            0.882304647503     1.237094538648    -1.170183242221     1.007825032230
         H           -1.162366352497    -1.645961461352     0.160740757779     1.007825032230
         H           -0.726049352497    -0.728255461352    -1.272869242221     1.007825032230
         H           -2.327344352497     0.387361538648     1.103313757779     1.007825032230
         H           -1.888102352497     1.297720538648    -0.347621242221     1.007825032230
         H           -3.008556352497    -0.070915461352    -0.463993242221     1.007825032230

  Basis Set: AUG-CC-PVTZ
    Blend: AUG-CC-PVTZ
  Basis Set: (AUG-CC-PVTZ AUX)
    Blend: AUG-CC-PVTZ-JKFIT
	 Reference Energy          =    -195.1908772022317464 [Eh]
	 Singles Energy            =      -0.0000000000000000 [Eh]
	 Same-Spin Energy          =      -0.2105314649980687 [Eh]
	 Opposite-Spin Energy      =      -0.7642828001753589 [Eh]
	 Correlation Energy        =      -0.9748142651734276 [Eh]
	 Total Energy              =    -196.1656914674051677 [Eh]

	 ================> DF-SCS-MP2 Energies <==================
	-----------------------------------------------------------
	 SCS Same-Spin Scale       =       0.3333333333333333 [-]
	 SCS Opposite-Spin Scale   =       1.2000000000000000 [-]
	 SCS Same-Spin Energy      =      -0.0701771549993562 [Eh]
	 SCS Opposite-Spin Energy  =      -0.9171393602104306 [Eh]
	 SCS Correlation Energy    =      -0.9873165152097869 [Eh]
	 SCS Total Energy          =    -196.1781937174415305 [Eh]
	-----------------------------------------------------------

  Dipole Moment: [D]
     X:    -0.1365      Y:    -0.0041      Z:     0.0534     Total:     0.1466

*** Psi4 exiting successfully. Buy a developer a beer!
