                               Psi4 1.3.2 release

  ==> Input File <==

--------------------------------------------------------------------------
#psi4
#
memory 32 gb

molecule  {
0 1
  C        0.3607500    -0.1378060     0.4783360
  C        1.7144850    -0.5067070    -0.0610140
  C        1.2123340     0.9079950    -0.1890090
  C       -0.9189770    -0.6297206    -0.1535340
  C       -2.0823580     0.3074100     0.0307800
  H        0.2884170    -0.0635660     1.5625600
  H        1.7473340    -1.1149480    -0.9600470
  H        2.5174380    -0.7063170     0.6411980
  H        1.6733330     1.6758980     0.4236460
  H        0.9069420     1.2477170    -1.1746190
  H       -1.1377290    -1.6353390     0.1563050
  H       -0.7014120    -0.7176330    -1.2773050
  H       -2.3027070     0.3979840     1.0988780
  H       -1.8634650     1.3083430    -0.3520570
  H       -2.9839190    -0.0602930    -0.4684290
units angstrom
no_reorient  #important for SAPT in psi4, default
symmetry c1  #important for SAPT in psi4, default
}

set PROPERTIES_ORIGIN ["COM"]
properties('MP2/aug-cc-pvtz', properties = ['dipole'])
--------------------------------------------------------------------------

    Molecular point group: c1
  Charge       = 0
  Multiplicity = 1
  Basis Set: AUG-CC-PVTZ
    Blend: AUG-CC-PVTZ
  Basis Set: (AUG-CC-PVTZ AUX)
    Blend: AUG-CC-PVTZ-JKFIT

    Orbital Energies [Eh]
    ---------------------

    Doubly Occupied:

       1A    -11.224996     2A    -11.221198     3A    -11.220130
       4A    -11.219498     5A    -11.209480     6A     -1.141906
       7A     -1.023905     8A     -0.866097     9A     -0.816418
      10A     -0.763929    11A     -0.663378    12A     -0.624090
      13A     -0.593136    14A     -0.555363    15A     -0.524379
      16A     -0.507488    17A     -0.488190    18A     -0.458470
      19A     -0.410893    20A     -0.402003

  @DF-RHF Final Energy:  -195.19620697732481

   => Energetics <=

    Nuclear Repulsion Energy =            179.6488678718208973
    One-Electron Energy =                -617.8202540539122083
    Two-Electron Energy =                 242.9751792047664765
    Total Energy =                       -195.1962069773248061
  Basis Set: (AUG-CC-PVTZ AUX)
    Blend: AUG-CC-PVTZ-RI
    Molecular point group: c1

    Geometry (in Angstrom), charge = 0, multiplicity = 1:

       Center              X                  Y                   Z               Mass
    ------------   -----------------  -----------------  -----------------  -----------------
         C            0.338424691528    -0.132504776116     0.465292006296    12.000000000000
         C            1.692159691528    -0.501405776116    -0.074057993704    12.000000000000
         C            1.190008691528     0.913296223884    -0.202052993704    12.000000000000
         C           -0.941302308472    -0.624419376116    -0.166577993704    12.000000000000
         C           -2.104683308472     0.312711223884     0.017736006296    12.000000000000
         H            0.266091691528    -0.058264776116     1.549516006296     1.007825032230
         H            1.725008691528    -1.109646776116    -0.973090993704     1.007825032230
         H            2.495112691528    -0.701015776116     0.628154006296     1.007825032230
         H            1.651007691528     1.681199223884     0.410602006296     1.007825032230
         H            0.884616691528     1.253018223884    -1.187662993704     1.007825032230
         H           -1.160054308472    -1.630037776116     0.143261006296     1.007825032230
         H           -0.723737308472    -0.712331776116    -1.290348993704     1.007825032230
         H           -2.325032308472     0.403285223884     1.085834006296     1.007825032230
         H           -1.885790308472     1.313644223884    -0.365100993704     1.007825032230
         H           -3.006244308472    -0.054991776116    -0.481472993704     1.007825032230

  Basis Set: AUG-CC-PVTZ
    Blend: AUG-CC-PVTZ
  Basis Set: (AUG-CC-PVTZ AUX)
    Blend: AUG-CC-PVTZ-JKFIT
	 Reference Energy          =    -195.1962069773248061 [Eh]
	 Singles Energy            =      -0.0000000000000000 [Eh]
	 Same-Spin Energy          =      -0.2102225606355096 [Eh]
	 Opposite-Spin Energy      =      -0.7640650144952774 [Eh]
	 Correlation Energy        =      -0.9742875751307870 [Eh]
	 Total Energy              =    -196.1704945524555797 [Eh]

	 ================> DF-SCS-MP2 Energies <==================
	-----------------------------------------------------------
	 SCS Same-Spin Scale       =       0.3333333333333333 [-]
	 SCS Opposite-Spin Scale   =       1.2000000000000000 [-]
	 SCS Same-Spin Energy      =      -0.0700741868785032 [Eh]
	 SCS Opposite-Spin Energy  =      -0.9168780173943328 [Eh]
	 SCS Correlation Energy    =      -0.9869522042728360 [Eh]
	 SCS Total Energy          =    -196.1831591815976310 [Eh]
	-----------------------------------------------------------

  Dipole Moment: [D]
     X:    -0.0976      Y:    -0.0579      Z:     0.0883     Total:     0.1438

*** Psi4 exiting successfully. Buy a developer a beer!
