                               Psi4 1.4a3.dev225

  ==> Input File <==

--------------------------------------------------------------------------
#psi4
#
memory 32 gb

molecule  {
0 1
  C        0.3607500    -0.1378060     0.4783360
  C        1.7144850    -0.5067070    -0.0610140
  C        1.2123340     0.9079950    -0.1890090
  C       -0.8959170    -0.6261990    -0.2007820
  C       -2.0823580     0.3074100     0.0307800
  H        0.2870888    -0.0622028     1.5824692
  H        1.7473340    -1.1149480    -0.9600470
  H        2.5174380    -0.7063170     0.6411980
  H        1.6733330     1.6758980     0.4236460
  H        0.9069420     1.2477170    -1.1746190
  H       -1.1377290    -1.6353390     0.1563050
  H       -0.7014120    -0.7176330    -1.2773050
  H       -2.3027070     0.3979840     1.0988780
  H       -1.8634650     1.3083430    -0.3520570
  H       -2.9839190    -0.0602930    -0.4684290
units angstrom
no_reorient  #important for SAPT in psi4, default
symmetry c1  #important for SAPT in psi4, default
}

set PROPERTIES_ORIGIN ["COM"]
properties('MP2/aug-cc-pvtz', properties = ['dipole'])
--------------------------------------------------------------------------

    Molecular point group: c1
  Charge       = 0
  Multiplicity = 1
  Basis Set: AUG-CC-PVTZ
    Blend: AUG-CC-PVTZ
  Basis Set: (AUG-CC-PVTZ AUX)
    Blend: AUG-CC-PVTZ-JKFIT

    Orbital Energies [Eh]
    ---------------------

    Doubly Occupied:

       1A    -11.227294     2A    -11.219897     3A    -11.219741
       4A    -11.219103     5A    -11.209807     6A     -1.142060
       7A     -1.019565     8A     -0.865178     9A     -0.816371
      10A     -0.763926    11A     -0.661666    12A     -0.623468
      13A     -0.592858    14A     -0.551041    15A     -0.519701
      16A     -0.506268    17A     -0.489917    18A     -0.470111
      19A     -0.409278    20A     -0.399437

  @DF-RHF Final Energy:  -195.19888577497451

   => Energetics <=

    Nuclear Repulsion Energy =            179.5308284287908123
    One-Electron Energy =                -617.6060523894044536
    Two-Electron Energy =                 242.8763381856391277
    Total Energy =                       -195.1988857749745137
  Basis Set: (AUG-CC-PVTZ AUX)
    Blend: AUG-CC-PVTZ-RI
    Molecular point group: c1

    Geometry (in Angstrom), charge = 0, multiplicity = 1:

       Center              X                  Y                   Z               Mass
    ------------   -----------------  -----------------  -----------------  -----------------
         C            0.334495064212    -0.133127409628     0.473096296605    12.000000000000
         C            1.688230064212    -0.502028409628    -0.066253703395    12.000000000000
         C            1.186079064212     0.912673590372    -0.194248703395    12.000000000000
         C           -0.922171935788    -0.621520409628    -0.206021703395    12.000000000000
         C           -2.108612935788     0.312088590372     0.025540296605    12.000000000000
         H            0.260833864212    -0.057524209628     1.577229496605     1.007825032230
         H            1.721079064212    -1.110269409628    -0.965286703395     1.007825032230
         H            2.491183064212    -0.701638409628     0.635958296605     1.007825032230
         H            1.647078064212     1.680576590372     0.418406296605     1.007825032230
         H            0.880687064212     1.252395590372    -1.179858703395     1.007825032230
         H           -1.163983935788    -1.630660409628     0.151065296605     1.007825032230
         H           -0.727666935788    -0.712954409628    -1.282544703395     1.007825032230
         H           -2.328961935788     0.402662590372     1.093638296605     1.007825032230
         H           -1.889719935788     1.313021590372    -0.357296703395     1.007825032230
         H           -3.010173935788    -0.055614409628    -0.473668703395     1.007825032230

  Basis Set: AUG-CC-PVTZ
    Blend: AUG-CC-PVTZ
  Basis Set: (AUG-CC-PVTZ AUX)
    Blend: AUG-CC-PVTZ-JKFIT
	 Reference Energy          =    -195.1988857749745137 [Eh]
	 Singles Energy            =      -0.0000000000000000 [Eh]
	 Same-Spin Energy          =      -0.2100658803278187 [Eh]
	 Opposite-Spin Energy      =      -0.7638809451509501 [Eh]
	 Correlation Energy        =      -0.9739468254787688 [Eh]
	 Total Energy              =    -196.1728326004532903 [Eh]

	 ================> DF-SCS-MP2 Energies <==================
	-----------------------------------------------------------
	 SCS Same-Spin Scale       =       0.3333333333333333 [-]
	 SCS Opposite-Spin Scale   =       1.2000000000000000 [-]
	 SCS Same-Spin Energy      =      -0.0700219601092729 [Eh]
	 SCS Opposite-Spin Energy  =      -0.9166571341811400 [Eh]
	 SCS Correlation Energy    =      -0.9866790942904129 [Eh]
	 SCS Total Energy          =    -196.1855648692649368 [Eh]
	-----------------------------------------------------------

  Dipole Moment: [D]
     X:    -0.0844      Y:    -0.0586      Z:     0.0555     Total:     0.1168

*** Psi4 exiting successfully. Buy a developer a beer!
