                               Psi4 1.3.2 release

  ==> Input File <==

--------------------------------------------------------------------------
#psi4
#
memory 32 gb

molecule  {
0 1
  C        0.3636012    -0.2763335     0.5543001
  C        1.7144850    -0.5067070    -0.0610140
  C        1.2123340     0.9079950    -0.1890090
  C       -0.8959170    -0.6261990    -0.2007820
  C       -2.0823580     0.3074100     0.0307800
  H        0.2884170    -0.0635660     1.5625600
  H        1.7473340    -1.1149480    -0.9600470
  H        2.5174380    -0.7063170     0.6411980
  H        1.6733330     1.6758980     0.4236460
  H        0.9069420     1.2477170    -1.1746190
  H       -1.1377290    -1.6353390     0.1563050
  H       -0.7014120    -0.7176330    -1.2773050
  H       -2.3027070     0.3979840     1.0988780
  H       -1.8634650     1.3083430    -0.3520570
  H       -2.9839190    -0.0602930    -0.4684290
units angstrom
no_reorient  #important for SAPT in psi4, default
symmetry c1  #important for SAPT in psi4, default
}

set PROPERTIES_ORIGIN ["COM"]
properties('MP2/aug-cc-pvtz', properties = ['dipole'])
--------------------------------------------------------------------------

    Molecular point group: c1
  Charge       = 0
  Multiplicity = 1
  Basis Set: AUG-CC-PVTZ
    Blend: AUG-CC-PVTZ
  Basis Set: (AUG-CC-PVTZ AUX)
    Blend: AUG-CC-PVTZ-JKFIT

    Orbital Energies [Eh]
    ---------------------

    Doubly Occupied:

       1A    -11.228460     2A    -11.227212     3A    -11.220413
       4A    -11.219125     5A    -11.210368     6A     -1.126103
       7A     -1.016346     8A     -0.870365     9A     -0.812379
      10A     -0.777060    11A     -0.655422    12A     -0.617466
      13A     -0.589911    14A     -0.557598    15A     -0.525849
      16A     -0.506681    17A     -0.487024    18A     -0.480693
      19A     -0.429288    20A     -0.359662

  @DF-RHF Final Energy:  -195.18422349085688

   => Energetics <=

    Nuclear Repulsion Energy =            178.4989702505907871
    One-Electron Energy =                -615.5315368337192012
    Two-Electron Energy =                 241.8483430922715343
    Total Energy =                       -195.1842234908568798
  Basis Set: (AUG-CC-PVTZ AUX)
    Blend: AUG-CC-PVTZ-RI
    Molecular point group: c1

    Geometry (in Angstrom), charge = 0, multiplicity = 1:

       Center              X                  Y                   Z               Mass
    ------------   -----------------  -----------------  -----------------  -----------------
         C            0.336838931436    -0.247914250301     0.536338843117    12.000000000000
         C            1.687722731436    -0.478287750301    -0.078975256883    12.000000000000
         C            1.185571731436     0.936414249699    -0.206970256883    12.000000000000
         C           -0.922679268564    -0.597779750301    -0.218743256883    12.000000000000
         C           -2.109120268564     0.335829249699     0.012818743117    12.000000000000
         H            0.261654731436    -0.035146750301     1.544598743117     1.007825032230
         H            1.720571731436    -1.086528750301    -0.978008256883     1.007825032230
         H            2.490675731436    -0.677897750301     0.623236743117     1.007825032230
         H            1.646570731436     1.704317249699     0.405684743117     1.007825032230
         H            0.880179731436     1.276136249699    -1.192580256883     1.007825032230
         H           -1.164491268564    -1.606919750301     0.138343743117     1.007825032230
         H           -0.728174268564    -0.689213750301    -1.295266256883     1.007825032230
         H           -2.329469268564     0.426403249699     1.080916743117     1.007825032230
         H           -1.890227268564     1.336762249699    -0.370018256883     1.007825032230
         H           -3.010681268564    -0.031873750301    -0.486390256883     1.007825032230

  Basis Set: AUG-CC-PVTZ
    Blend: AUG-CC-PVTZ
  Basis Set: (AUG-CC-PVTZ AUX)
    Blend: AUG-CC-PVTZ-JKFIT
	 Reference Energy          =    -195.1842234908568798 [Eh]
	 Singles Energy            =      -0.0000000000000000 [Eh]
	 Same-Spin Energy          =      -0.2104402385382272 [Eh]
	 Opposite-Spin Energy      =      -0.7655168849743376 [Eh]
	 Correlation Energy        =      -0.9759571235125648 [Eh]
	 Total Energy              =    -196.1601806143694375 [Eh]

	 ================> DF-SCS-MP2 Energies <==================
	-----------------------------------------------------------
	 SCS Same-Spin Scale       =       0.3333333333333333 [-]
	 SCS Opposite-Spin Scale   =       1.2000000000000000 [-]
	 SCS Same-Spin Energy      =      -0.0701467461794091 [Eh]
	 SCS Opposite-Spin Energy  =      -0.9186202619692050 [Eh]
	 SCS Correlation Energy    =      -0.9887670081486141 [Eh]
	 SCS Total Energy          =    -196.1729904990054933 [Eh]
	-----------------------------------------------------------

  Dipole Moment: [D]
     X:    -0.0425      Y:    -0.1233      Z:     0.0535     Total:     0.1409

*** Psi4 exiting successfully. Buy a developer a beer!
