                               Psi4 1.3.2 release

  ==> Input File <==

--------------------------------------------------------------------------
#psi4
#
memory 32 gb

molecule  {
0 1
  C        0.3607500    -0.1378060     0.4783360
  C        1.6908582    -0.5338084    -0.0992272
  C        1.2123340     0.9079950    -0.1890090
  C       -0.8959170    -0.6261990    -0.2007820
  C       -2.0823580     0.3074100     0.0307800
  H        0.2884170    -0.0635660     1.5625600
  H        1.7473340    -1.1149480    -0.9600470
  H        2.5174380    -0.7063170     0.6411980
  H        1.6733330     1.6758980     0.4236460
  H        0.9069420     1.2477170    -1.1746190
  H       -1.1377290    -1.6353390     0.1563050
  H       -0.7014120    -0.7176330    -1.2773050
  H       -2.3027070     0.3979840     1.0988780
  H       -1.8634650     1.3083430    -0.3520570
  H       -2.9839190    -0.0602930    -0.4684290
units angstrom
no_reorient  #important for SAPT in psi4, default
symmetry c1  #important for SAPT in psi4, default
}

set PROPERTIES_ORIGIN ["COM"]
properties('MP2/aug-cc-pvtz', properties = ['dipole'])
--------------------------------------------------------------------------

    Molecular point group: c1
  Charge       = 0
  Multiplicity = 1
  Basis Set: AUG-CC-PVTZ
    Blend: AUG-CC-PVTZ
  Basis Set: (AUG-CC-PVTZ AUX)
    Blend: AUG-CC-PVTZ-JKFIT

    Orbital Energies [Eh]
    ---------------------

    Doubly Occupied:

       1A    -11.225957     2A    -11.219990     3A    -11.219274
       4A    -11.219255     5A    -11.209422     6A     -1.140737
       7A     -1.018420     8A     -0.864966     9A     -0.818978
      10A     -0.767907    11A     -0.658604    12A     -0.627623
      13A     -0.590242    14A     -0.552767    15A     -0.520446
      16A     -0.509144    17A     -0.487964    18A     -0.471533
      19A     -0.404992    20A     -0.400923

  @DF-RHF Final Energy:  -195.19621015885500

   => Energetics <=

    Nuclear Repulsion Energy =            179.6269446374202801
    One-Electron Energy =                -617.7880205076482980
    Two-Electron Energy =                 242.9648657113730508
    Total Energy =                       -195.1962101588549956
  Basis Set: (AUG-CC-PVTZ AUX)
    Blend: AUG-CC-PVTZ-RI
    Molecular point group: c1

    Geometry (in Angstrom), charge = 0, multiplicity = 1:

       Center              X                  Y                   Z               Mass
    ------------   -----------------  -----------------  -----------------  -----------------
         C            0.338521748746    -0.128467038320     0.479926138788    12.000000000000
         C            1.668629948746    -0.524469438320    -0.097637061212    12.000000000000
         C            1.190105748746     0.917333961680    -0.187418861212    12.000000000000
         C           -0.918145251254    -0.616860038320    -0.199191861212    12.000000000000
         C           -2.104586251254     0.316748961680     0.032370138788    12.000000000000
         H            0.266188748746    -0.054227038320     1.564150138788     1.007825032230
         H            1.725105748746    -1.105609038320    -0.958456861212     1.007825032230
         H            2.495209748746    -0.696978038320     0.642788138788     1.007825032230
         H            1.651104748746     1.685236961680     0.425236138788     1.007825032230
         H            0.884713748746     1.257055961680    -1.173028861212     1.007825032230
         H           -1.159957251254    -1.626000038320     0.157895138788     1.007825032230
         H           -0.723640251254    -0.708294038320    -1.275714861212     1.007825032230
         H           -2.324935251254     0.407322961680     1.100468138788     1.007825032230
         H           -1.885693251254     1.317681961680    -0.350466861212     1.007825032230
         H           -3.006147251254    -0.050954038320    -0.466838861212     1.007825032230

  Basis Set: AUG-CC-PVTZ
    Blend: AUG-CC-PVTZ
  Basis Set: (AUG-CC-PVTZ AUX)
    Blend: AUG-CC-PVTZ-JKFIT
	 Reference Energy          =    -195.1962101588549956 [Eh]
	 Singles Energy            =      -0.0000000000000000 [Eh]
	 Same-Spin Energy          =      -0.2100586859867710 [Eh]
	 Opposite-Spin Energy      =      -0.7640197435100975 [Eh]
	 Correlation Energy        =      -0.9740784294968685 [Eh]
	 Total Energy              =    -196.1702885883518661 [Eh]

	 ================> DF-SCS-MP2 Energies <==================
	-----------------------------------------------------------
	 SCS Same-Spin Scale       =       0.3333333333333333 [-]
	 SCS Opposite-Spin Scale   =       1.2000000000000000 [-]
	 SCS Same-Spin Energy      =      -0.0700195619955903 [Eh]
	 SCS Opposite-Spin Energy  =      -0.9168236922121169 [Eh]
	 SCS Correlation Energy    =      -0.9868432542077072 [Eh]
	 SCS Total Energy          =    -196.1830534130627086 [Eh]
	-----------------------------------------------------------

  Dipole Moment: [D]
     X:    -0.1002      Y:    -0.0550      Z:     0.0537     Total:     0.1263

*** Psi4 exiting successfully. Buy a developer a beer!
