                               Psi4 1.3.2 release

  ==> Input File <==

--------------------------------------------------------------------------
#psi4
#
memory 32 gb

molecule  {
0 1
  C        0.3607500    -0.1378060     0.4783360
  C        1.7144850    -0.5067070    -0.0610140
  C        1.2123340     0.9079950    -0.1890090
  C       -0.9603934    -0.6349622    -0.0567870
  C       -2.0823580     0.3074100     0.0307800
  H        0.2884170    -0.0635660     1.5625600
  H        1.7473340    -1.1149480    -0.9600470
  H        2.5174380    -0.7063170     0.6411980
  H        1.6733330     1.6758980     0.4236460
  H        0.9069420     1.2477170    -1.1746190
  H       -1.1377290    -1.6353390     0.1563050
  H       -0.7014120    -0.7176330    -1.2773050
  H       -2.3027070     0.3979840     1.0988780
  H       -1.8634650     1.3083430    -0.3520570
  H       -2.9839190    -0.0602930    -0.4684290
units angstrom
no_reorient  #important for SAPT in psi4, default
symmetry c1  #important for SAPT in psi4, default
}

set PROPERTIES_ORIGIN ["COM"]
properties('MP2/aug-cc-pvtz', properties = ['dipole'])
--------------------------------------------------------------------------

    Molecular point group: c1
  Charge       = 0
  Multiplicity = 1
  Basis Set: AUG-CC-PVTZ
    Blend: AUG-CC-PVTZ
  Basis Set: (AUG-CC-PVTZ AUX)
    Blend: AUG-CC-PVTZ-JKFIT

    Orbital Energies [Eh]
    ---------------------

    Doubly Occupied:

       1A    -11.227043     2A    -11.226161     3A    -11.221580
       4A    -11.220931     5A    -11.210108     6A     -1.141864
       7A     -1.033271     8A     -0.868908     9A     -0.817055
      10A     -0.761962    11A     -0.664842    12A     -0.629178
      13A     -0.591367    14A     -0.566731    15A     -0.533112
      16A     -0.508803    17A     -0.485076    18A     -0.433623
      19A     -0.408185    20A     -0.406455

  @DF-RHF Final Energy:  -195.17497042142912

   => Energetics <=

    Nuclear Repulsion Energy =            179.6796127192060624
    One-Electron Energy =                -617.7966589116035721
    Two-Electron Energy =                 242.9420757709684153
    Total Energy =                       -195.1749704214291228
  Basis Set: (AUG-CC-PVTZ AUX)
    Blend: AUG-CC-PVTZ-RI
    Molecular point group: c1

    Geometry (in Angstrom), charge = 0, multiplicity = 1:

       Center              X                  Y                   Z               Mass
    ------------   -----------------  -----------------  -----------------  -----------------
         C            0.345516717909    -0.131607219460     0.448725325555    12.000000000000
         C            1.699251717909    -0.500508219460    -0.090624674445    12.000000000000
         C            1.197100717909     0.914193780540    -0.218619674445    12.000000000000
         C           -0.975626682091    -0.628763419460    -0.086397674445    12.000000000000
         C           -2.097591282091     0.313608780540     0.001169325555    12.000000000000
         H            0.273183717909    -0.057367219460     1.532949325555     1.007825032230
         H            1.732100717909    -1.108749219460    -0.989657674445     1.007825032230
         H            2.502204717909    -0.700118219460     0.611587325555     1.007825032230
         H            1.658099717909     1.682096780540     0.394035325555     1.007825032230
         H            0.891708717909     1.253915780540    -1.204229674445     1.007825032230
         H           -1.152962282091    -1.629140219460     0.126694325555     1.007825032230
         H           -0.716645282091    -0.711434219460    -1.306915674445     1.007825032230
         H           -2.317940282091     0.404182780540     1.069267325555     1.007825032230
         H           -1.878698282091     1.314541780540    -0.381667674445     1.007825032230
         H           -2.999152282091    -0.054094219460    -0.498039674445     1.007825032230

  Basis Set: AUG-CC-PVTZ
    Blend: AUG-CC-PVTZ
  Basis Set: (AUG-CC-PVTZ AUX)
    Blend: AUG-CC-PVTZ-JKFIT
	 Reference Energy          =    -195.1749704214291228 [Eh]
	 Singles Energy            =      -0.0000000000000000 [Eh]
	 Same-Spin Energy          =      -0.2108508467869142 [Eh]
	 Opposite-Spin Energy      =      -0.7654607291219860 [Eh]
	 Correlation Energy        =      -0.9763115759089003 [Eh]
	 Total Energy              =    -196.1512819973380317 [Eh]

	 ================> DF-SCS-MP2 Energies <==================
	-----------------------------------------------------------
	 SCS Same-Spin Scale       =       0.3333333333333333 [-]
	 SCS Opposite-Spin Scale   =       1.2000000000000000 [-]
	 SCS Same-Spin Energy      =      -0.0702836155956381 [Eh]
	 SCS Opposite-Spin Energy  =      -0.9185528749463832 [Eh]
	 SCS Correlation Energy    =      -0.9888364905420213 [Eh]
	 SCS Total Energy          =    -196.1638069119711361 [Eh]
	-----------------------------------------------------------

  Dipole Moment: [D]
     X:    -0.1186      Y:    -0.0379      Z:     0.1601     Total:     0.2029

*** Psi4 exiting successfully. Buy a developer a beer!
