                               Psi4 1.3.2 release

  ==> Input File <==

--------------------------------------------------------------------------
#psi4
#
memory 32 gb

molecule  {
0 1
  C        0.3441305    -0.0046294     0.3949313
  C        1.7144850    -0.5067070    -0.0610140
  C        1.2123340     0.9079950    -0.1890090
  C       -0.8959170    -0.6261990    -0.2007820
  C       -2.0823580     0.3074100     0.0307800
  H        0.2884170    -0.0635660     1.5625600
  H        1.7473340    -1.1149480    -0.9600470
  H        2.5174380    -0.7063170     0.6411980
  H        1.6733330     1.6758980     0.4236460
  H        0.9069420     1.2477170    -1.1746190
  H       -1.1377290    -1.6353390     0.1563050
  H       -0.7014120    -0.7176330    -1.2773050
  H       -2.3027070     0.3979840     1.0988780
  H       -1.8634650     1.3083430    -0.3520570
  H       -2.9839190    -0.0602930    -0.4684290
units angstrom
no_reorient  #important for SAPT in psi4, default
symmetry c1  #important for SAPT in psi4, default
}

set PROPERTIES_ORIGIN ["COM"]
properties('MP2/aug-cc-pvtz', properties = ['dipole'])
--------------------------------------------------------------------------

    Molecular point group: c1
  Charge       = 0
  Multiplicity = 1
  Basis Set: AUG-CC-PVTZ
    Blend: AUG-CC-PVTZ
  Basis Set: (AUG-CC-PVTZ AUX)
    Blend: AUG-CC-PVTZ-JKFIT

    Orbital Energies [Eh]
    ---------------------

    Doubly Occupied:

       1A    -11.229227     2A    -11.222211     3A    -11.219975
       4A    -11.213618     5A    -11.210058     6A     -1.160742
       7A     -1.024176     8A     -0.862978     9A     -0.823049
      10A     -0.755957    11A     -0.668729    12A     -0.631084
      13A     -0.595941    14A     -0.545771    15A     -0.519655
      16A     -0.506102    17A     -0.493596    18A     -0.459016
      19A     -0.440462    20A     -0.376694

  @DF-RHF Final Energy:  -195.17967393499879

   => Energetics <=

    Nuclear Repulsion Energy =            180.5684932682845840
    One-Electron Energy =                -619.5782542414427780
    Two-Electron Energy =                 243.8300870381594336
    Total Energy =                       -195.1796739349987888
  Basis Set: (AUG-CC-PVTZ AUX)
    Blend: AUG-CC-PVTZ-RI
    Molecular point group: c1

    Geometry (in Angstrom), charge = 0, multiplicity = 1:

       Center              X                  Y                   Z               Mass
    ------------   -----------------  -----------------  -----------------  -----------------
         C            0.320702338651    -0.022735986563     0.404259902541    12.000000000000
         C            1.691056838651    -0.524813586563    -0.051685397459    12.000000000000
         C            1.188905838651     0.889888413437    -0.179680397459    12.000000000000
         C           -0.919345161349    -0.644305586563    -0.191453397459    12.000000000000
         C           -2.105786161349     0.289303413437     0.040108602541    12.000000000000
         H            0.264988838651    -0.081672586563     1.571888602541     1.007825032230
         H            1.723905838651    -1.133054586563    -0.950718397459     1.007825032230
         H            2.494009838651    -0.724423586563     0.650526602541     1.007825032230
         H            1.649904838651     1.657791413437     0.432974602541     1.007825032230
         H            0.883513838651     1.229610413437    -1.165290397459     1.007825032230
         H           -1.161157161349    -1.653445586563     0.165633602541     1.007825032230
         H           -0.724840161349    -0.735739586563    -1.267976397459     1.007825032230
         H           -2.326135161349     0.379877413437     1.108206602541     1.007825032230
         H           -1.886893161349     1.290236413437    -0.342728397459     1.007825032230
         H           -3.007347161349    -0.078399586563    -0.459100397459     1.007825032230

  Basis Set: AUG-CC-PVTZ
    Blend: AUG-CC-PVTZ
  Basis Set: (AUG-CC-PVTZ AUX)
    Blend: AUG-CC-PVTZ-JKFIT
	 Reference Energy          =    -195.1796739349987888 [Eh]
	 Singles Energy            =      -0.0000000000000000 [Eh]
	 Same-Spin Energy          =      -0.2110025774015586 [Eh]
	 Opposite-Spin Energy      =      -0.7650451444603487 [Eh]
	 Correlation Energy        =      -0.9760477218619072 [Eh]
	 Total Energy              =    -196.1557216568606918 [Eh]

	 ================> DF-SCS-MP2 Energies <==================
	-----------------------------------------------------------
	 SCS Same-Spin Scale       =       0.3333333333333333 [-]
	 SCS Opposite-Spin Scale   =       1.2000000000000000 [-]
	 SCS Same-Spin Energy      =      -0.0703341924671862 [Eh]
	 SCS Opposite-Spin Energy  =      -0.9180541733524183 [Eh]
	 SCS Correlation Energy    =      -0.9883883658196045 [Eh]
	 SCS Total Energy          =    -196.1680623008184057 [Eh]
	-----------------------------------------------------------

  Dipole Moment: [D]
     X:    -0.1700      Y:     0.0233      Z:     0.0403     Total:     0.1762

*** Psi4 exiting successfully. Buy a developer a beer!
