                               Psi4 1.3.2 release

  ==> Input File <==

--------------------------------------------------------------------------
#psi4
#
memory 32 gb

molecule  {
0 1
  C        0.3607500    -0.1378060     0.4783360
  C        1.7144850    -0.5067070    -0.0610140
  C        1.2123340     0.9079950    -0.1890090
  C       -0.8713259    -0.6220824    -0.2472026
  C       -2.0823580     0.3074100     0.0307800
  H        0.2884170    -0.0635660     1.5625600
  H        1.7473340    -1.1149480    -0.9600470
  H        2.5174380    -0.7063170     0.6411980
  H        1.6733330     1.6758980     0.4236460
  H        0.9069420     1.2477170    -1.1746190
  H       -1.1377290    -1.6353390     0.1563050
  H       -0.7014120    -0.7176330    -1.2773050
  H       -2.3027070     0.3979840     1.0988780
  H       -1.8634650     1.3083430    -0.3520570
  H       -2.9839190    -0.0602930    -0.4684290
units angstrom
no_reorient  #important for SAPT in psi4, default
symmetry c1  #important for SAPT in psi4, default
}

set PROPERTIES_ORIGIN ["COM"]
properties('MP2/aug-cc-pvtz', properties = ['dipole'])
--------------------------------------------------------------------------

    Molecular point group: c1
  Charge       = 0
  Multiplicity = 1
  Basis Set: AUG-CC-PVTZ
    Blend: AUG-CC-PVTZ
  Basis Set: (AUG-CC-PVTZ AUX)
    Blend: AUG-CC-PVTZ-JKFIT

    Orbital Energies [Eh]
    ---------------------

    Doubly Occupied:

       1A    -11.225286     2A    -11.219089     3A    -11.218941
       4A    -11.218448     5A    -11.210492     6A     -1.142913
       7A     -1.015342     8A     -0.865447     9A     -0.816180
      10A     -0.770326    11A     -0.661133    12A     -0.624930
      13A     -0.591283    14A     -0.549912    15A     -0.517301
      16A     -0.504928    17A     -0.492138    18A     -0.479317
      19A     -0.407542    20A     -0.395994

  @DF-RHF Final Energy:  -195.19661037539416

   => Energetics <=

    Nuclear Repulsion Energy =            179.5994485992928844
    One-Electron Energy =                -617.7382337412135485
    Two-Electron Energy =                 242.9421747665265059
    Total Energy =                       -195.1966103753941582
  Basis Set: (AUG-CC-PVTZ AUX)
    Blend: AUG-CC-PVTZ-RI
    Molecular point group: c1

    Geometry (in Angstrom), charge = 0, multiplicity = 1:

       Center              X                  Y                   Z               Mass
    ------------   -----------------  -----------------  -----------------  -----------------
         C            0.330265052876    -0.133812719730     0.481331550589    12.000000000000
         C            1.684000052876    -0.502713719730    -0.058018449411    12.000000000000
         C            1.181849052876     0.911988280270    -0.186013449411    12.000000000000
         C           -0.901810847124    -0.618089119730    -0.244207049411    12.000000000000
         C           -2.112842947124     0.311403280270     0.033775550589    12.000000000000
         H            0.257932052876    -0.059572719730     1.565555550589     1.007825032230
         H            1.716849052876    -1.110954719730    -0.957051449411     1.007825032230
         H            2.486953052876    -0.702323719730     0.644193550589     1.007825032230
         H            1.642848052876     1.679891280270     0.426641550589     1.007825032230
         H            0.876457052876     1.251710280270    -1.171623449411     1.007825032230
         H           -1.168213947124    -1.631345719730     0.159300550589     1.007825032230
         H           -0.731896947124    -0.713639719730    -1.274309449411     1.007825032230
         H           -2.333191947124     0.401977280270     1.101873550589     1.007825032230
         H           -1.893949947124     1.312336280270    -0.349061449411     1.007825032230
         H           -3.014403947124    -0.056299719730    -0.465433449411     1.007825032230

  Basis Set: AUG-CC-PVTZ
    Blend: AUG-CC-PVTZ
  Basis Set: (AUG-CC-PVTZ AUX)
    Blend: AUG-CC-PVTZ-JKFIT
	 Reference Energy          =    -195.1966103753941582 [Eh]
	 Singles Energy            =      -0.0000000000000000 [Eh]
	 Same-Spin Energy          =      -0.2099950077902605 [Eh]
	 Opposite-Spin Energy      =      -0.7637942901158666 [Eh]
	 Correlation Energy        =      -0.9737892979061271 [Eh]
	 Total Energy              =    -196.1703996733002953 [Eh]

	 ================> DF-SCS-MP2 Energies <==================
	-----------------------------------------------------------
	 SCS Same-Spin Scale       =       0.3333333333333333 [-]
	 SCS Opposite-Spin Scale   =       1.2000000000000000 [-]
	 SCS Same-Spin Energy      =      -0.0699983359300868 [Eh]
	 SCS Opposite-Spin Energy  =      -0.9165531481390399 [Eh]
	 SCS Correlation Energy    =      -0.9865514840691267 [Eh]
	 SCS Total Energy          =    -196.1831618594632971 [Eh]
	-----------------------------------------------------------

  Dipole Moment: [D]
     X:    -0.0740      Y:    -0.0521      Z:     0.0538     Total:     0.1052

*** Psi4 exiting successfully. Buy a developer a beer!
