                               Psi4 1.3.2 release

  ==> Input File <==

--------------------------------------------------------------------------
#psi4
#
memory 32 gb

molecule  {
0 1
  C        0.3607500    -0.1378060     0.4783360
  C        1.7144850    -0.5067070    -0.0610140
  C        1.2123340     0.9079950    -0.1890090
  C       -0.7294287    -0.5614947    -0.1108097
  C       -2.0823580     0.3074100     0.0307800
  H        0.2884170    -0.0635660     1.5625600
  H        1.7473340    -1.1149480    -0.9600470
  H        2.5174380    -0.7063170     0.6411980
  H        1.6733330     1.6758980     0.4236460
  H        0.9069420     1.2477170    -1.1746190
  H       -1.1377290    -1.6353390     0.1563050
  H       -0.7014120    -0.7176330    -1.2773050
  H       -2.3027070     0.3979840     1.0988780
  H       -1.8634650     1.3083430    -0.3520570
  H       -2.9839190    -0.0602930    -0.4684290
units angstrom
no_reorient  #important for SAPT in psi4, default
symmetry c1  #important for SAPT in psi4, default
}

set PROPERTIES_ORIGIN ["COM"]
properties('MP2/aug-cc-pvtz', properties = ['dipole'])
--------------------------------------------------------------------------

    Molecular point group: c1
  Charge       = 0
  Multiplicity = 1
  Basis Set: AUG-CC-PVTZ
    Blend: AUG-CC-PVTZ
  Basis Set: (AUG-CC-PVTZ AUX)
    Blend: AUG-CC-PVTZ-JKFIT

    Orbital Energies [Eh]
    ---------------------

    Doubly Occupied:

       1A    -11.227365     2A    -11.223769     3A    -11.223044
       4A    -11.216713     5A    -11.213355     6A     -1.165371
       7A     -1.013771     8A     -0.891515     9A     -0.821721
      10A     -0.759617    11A     -0.670206    12A     -0.637485
      13A     -0.579602    14A     -0.551304    15A     -0.528829
      16A     -0.512430    17A     -0.495950    18A     -0.466836
      19A     -0.404127    20A     -0.377799

  @DF-RHF Final Energy:  -195.14832454053891

   => Energetics <=

    Nuclear Repulsion Energy =            181.6914163217924454
    One-Electron Energy =                -621.7178647542361887
    Two-Electron Energy =                 244.8781238919048633
    Total Energy =                       -195.1483245405389084
  Basis Set: (AUG-CC-PVTZ AUX)
    Blend: AUG-CC-PVTZ-RI
    Molecular point group: c1

    Geometry (in Angstrom), charge = 0, multiplicity = 1:

       Center              X                  Y                   Z               Mass
    ------------   -----------------  -----------------  -----------------  -----------------
         C            0.305966980476    -0.144187584922     0.457976018844    12.000000000000
         C            1.659701980476    -0.513088584922    -0.081373981156    12.000000000000
         C            1.157550980476     0.901613415078    -0.209368981156    12.000000000000
         C           -0.784211719524    -0.567876284922    -0.131169681156    12.000000000000
         C           -2.137141019524     0.301028415078     0.010420018844    12.000000000000
         H            0.233633980476    -0.069947584922     1.542200018844     1.007825032230
         H            1.692550980476    -1.121329584922    -0.980406981156     1.007825032230
         H            2.462654980476    -0.712698584922     0.620838018844     1.007825032230
         H            1.618549980476     1.669516415078     0.403286018844     1.007825032230
         H            0.852158980476     1.241335415078    -1.194978981156     1.007825032230
         H           -1.192512019524    -1.641720584922     0.135945018844     1.007825032230
         H           -0.756195019524    -0.724014584922    -1.297664981156     1.007825032230
         H           -2.357490019524     0.391602415078     1.078518018844     1.007825032230
         H           -1.918248019524     1.301961415078    -0.372416981156     1.007825032230
         H           -3.038702019524    -0.066674584922    -0.488788981156     1.007825032230

  Basis Set: AUG-CC-PVTZ
    Blend: AUG-CC-PVTZ
  Basis Set: (AUG-CC-PVTZ AUX)
    Blend: AUG-CC-PVTZ-JKFIT
	 Reference Energy          =    -195.1483245405389084 [Eh]
	 Singles Energy            =      -0.0000000000000000 [Eh]
	 Same-Spin Energy          =      -0.2130184800792173 [Eh]
	 Opposite-Spin Energy      =      -0.7682120818960880 [Eh]
	 Correlation Energy        =      -0.9812305619753052 [Eh]
	 Total Energy              =    -196.1295551025142174 [Eh]

	 ================> DF-SCS-MP2 Energies <==================
	-----------------------------------------------------------
	 SCS Same-Spin Scale       =       0.3333333333333333 [-]
	 SCS Opposite-Spin Scale   =       1.2000000000000000 [-]
	 SCS Same-Spin Energy      =      -0.0710061600264058 [Eh]
	 SCS Opposite-Spin Energy  =      -0.9218544982753056 [Eh]
	 SCS Correlation Energy    =      -0.9928606583017114 [Eh]
	 SCS Total Energy          =    -196.1411851988406170 [Eh]
	-----------------------------------------------------------

  Dipole Moment: [D]
     X:     0.1275      Y:     0.0252      Z:     0.0898     Total:     0.1580

*** Psi4 exiting successfully. Buy a developer a beer!
