                               Psi4 1.3.2 release

  ==> Input File <==

--------------------------------------------------------------------------
#psi4
#
memory 32 gb

molecule  {
0 1
  C        0.3607500    -0.1378060     0.4783360
  C        1.7144850    -0.5067070    -0.0610140
  C        1.2123340     0.9079950    -0.1890090
  C       -0.8959170    -0.6261990    -0.2007820
  C       -2.0823580     0.3074100     0.0307800
  H        0.3016993    -0.0771984     1.3634677
  H        1.7473340    -1.1149480    -0.9600470
  H        2.5174380    -0.7063170     0.6411980
  H        1.6733330     1.6758980     0.4236460
  H        0.9069420     1.2477170    -1.1746190
  H       -1.1377290    -1.6353390     0.1563050
  H       -0.7014120    -0.7176330    -1.2773050
  H       -2.3027070     0.3979840     1.0988780
  H       -1.8634650     1.3083430    -0.3520570
  H       -2.9839190    -0.0602930    -0.4684290
units angstrom
no_reorient  #important for SAPT in psi4, default
symmetry c1  #important for SAPT in psi4, default
}

set PROPERTIES_ORIGIN ["COM"]
properties('MP2/aug-cc-pvtz', properties = ['dipole'])
--------------------------------------------------------------------------

    Molecular point group: c1
  Charge       = 0
  Multiplicity = 1
  Basis Set: AUG-CC-PVTZ
    Blend: AUG-CC-PVTZ
  Basis Set: (AUG-CC-PVTZ AUX)
    Blend: AUG-CC-PVTZ-JKFIT

    Orbital Energies [Eh]
    ---------------------

    Doubly Occupied:

       1A    -11.218531     2A    -11.217990     3A    -11.217843
       4A    -11.209763     5A    -11.200394     6A     -1.147260
       7A     -1.018878     8A     -0.872908     9A     -0.816111
      10A     -0.799198    11A     -0.668543    12A     -0.624464
      13A     -0.592780    14A     -0.561959    15A     -0.521041
      16A     -0.505822    17A     -0.490129    18A     -0.477896
      19A     -0.410659    20A     -0.398215

  @DF-RHF Final Energy:  -195.16513750412307

   => Energetics <=

    Nuclear Repulsion Energy =            180.7030703965664031
    One-Electron Energy =                -619.7956439622543030
    Two-Electron Energy =                 243.9274360615648050
    Total Energy =                       -195.1651375041230665
  Basis Set: (AUG-CC-PVTZ AUX)
    Blend: AUG-CC-PVTZ-RI
    Molecular point group: c1

    Geometry (in Angstrom), charge = 0, multiplicity = 1:

       Center              X                  Y                   Z               Mass
    ------------   -----------------  -----------------  -----------------  -----------------
         C            0.334284944416    -0.132911751546     0.476245850037    12.000000000000
         C            1.688019944416    -0.501812751546    -0.063104149963    12.000000000000
         C            1.185868944416     0.912889248454    -0.191099149963    12.000000000000
         C           -0.922382055584    -0.621304751546    -0.202872149963    12.000000000000
         C           -2.108823055584     0.312304248454     0.028689850037    12.000000000000
         H            0.275234244416    -0.072304151546     1.361377550037     1.007825032230
         H            1.720868944416    -1.110053751546    -0.962137149963     1.007825032230
         H            2.490972944416    -0.701422751546     0.639107850037     1.007825032230
         H            1.646867944416     1.680792248454     0.421555850037     1.007825032230
         H            0.880476944416     1.252611248454    -1.176709149963     1.007825032230
         H           -1.164194055584    -1.630444751546     0.154214850037     1.007825032230
         H           -0.727877055584    -0.712738751546    -1.279395149963     1.007825032230
         H           -2.329172055584     0.402878248454     1.096787850037     1.007825032230
         H           -1.889930055584     1.313237248454    -0.354147149963     1.007825032230
         H           -3.010384055584    -0.055398751546    -0.470519149963     1.007825032230

  Basis Set: AUG-CC-PVTZ
    Blend: AUG-CC-PVTZ
  Basis Set: (AUG-CC-PVTZ AUX)
    Blend: AUG-CC-PVTZ-JKFIT
	 Reference Energy          =    -195.1651375041230665 [Eh]
	 Singles Energy            =      -0.0000000000000000 [Eh]
	 Same-Spin Energy          =      -0.2100548276701197 [Eh]
	 Opposite-Spin Energy      =      -0.7635478538947476 [Eh]
	 Correlation Energy        =      -0.9736026815648673 [Eh]
	 Total Energy              =    -196.1387401856879364 [Eh]

	 ================> DF-SCS-MP2 Energies <==================
	-----------------------------------------------------------
	 SCS Same-Spin Scale       =       0.3333333333333333 [-]
	 SCS Opposite-Spin Scale   =       1.2000000000000000 [-]
	 SCS Same-Spin Energy      =      -0.0700182758900399 [Eh]
	 SCS Opposite-Spin Energy  =      -0.9162574246736970 [Eh]
	 SCS Correlation Energy    =      -0.9862757005637368 [Eh]
	 SCS Total Energy          =    -196.1514132046868042 [Eh]
	-----------------------------------------------------------

  Dipole Moment: [D]
     X:    -0.0958      Y:    -0.0550      Z:     0.1304     Total:     0.1709

*** Psi4 exiting successfully. Buy a developer a beer!
