                               Psi4 1.3.2 release

  ==> Input File <==

--------------------------------------------------------------------------
#psi4
#
memory 32 gb

molecule  {
0 1
  C        0.3607500    -0.1378060     0.4783360
  C        1.7144850    -0.5067070    -0.0610140
  C        1.2123340     0.9079950    -0.1890090
  C       -0.8959170    -0.6261990    -0.2007820
  C       -2.0823580     0.3074100     0.0307800
  H        0.2817759    -0.0567498     1.6621061
  H        1.7473340    -1.1149480    -0.9600470
  H        2.5174380    -0.7063170     0.6411980
  H        1.6733330     1.6758980     0.4236460
  H        0.9069420     1.2477170    -1.1746190
  H       -1.1377290    -1.6353390     0.1563050
  H       -0.7014120    -0.7176330    -1.2773050
  H       -2.3027070     0.3979840     1.0988780
  H       -1.8634650     1.3083430    -0.3520570
  H       -2.9839190    -0.0602930    -0.4684290
units angstrom
no_reorient  #important for SAPT in psi4, default
symmetry c1  #important for SAPT in psi4, default
}

set PROPERTIES_ORIGIN ["COM"]
properties('MP2/aug-cc-pvtz', properties = ['dipole'])
--------------------------------------------------------------------------

    Molecular point group: c1
  Charge       = 0
  Multiplicity = 1
  Basis Set: AUG-CC-PVTZ
    Blend: AUG-CC-PVTZ
  Basis Set: (AUG-CC-PVTZ AUX)
    Blend: AUG-CC-PVTZ-JKFIT

    Orbital Energies [Eh]
    ---------------------

    Doubly Occupied:

       1A    -11.236523     2A    -11.220910     3A    -11.220626
       4A    -11.219967     5A    -11.209873     6A     -1.141572
       7A     -1.020008     8A     -0.864449     9A     -0.817015
      10A     -0.755112    11A     -0.659126    12A     -0.623305
      13A     -0.593086    14A     -0.547506    15A     -0.519099
      16A     -0.506658    17A     -0.490002    18A     -0.465781
      19A     -0.408518    20A     -0.400374

  @DF-RHF Final Energy:  -195.19258850556736

   => Energetics <=

    Nuclear Repulsion Energy =            179.1781163364257168
    One-Electron Energy =                -616.9023886496795512
    Two-Electron Energy =                 242.5316838076864769
    Total Energy =                       -195.1925885055673575
  Basis Set: (AUG-CC-PVTZ AUX)
    Blend: AUG-CC-PVTZ-RI
    Molecular point group: c1

    Geometry (in Angstrom), charge = 0, multiplicity = 1:

       Center              X                  Y                   Z               Mass
    ------------   -----------------  -----------------  -----------------  -----------------
         C            0.334571471279    -0.133205831533     0.471951004579    12.000000000000
         C            1.688306471279    -0.502106831533    -0.067398995421    12.000000000000
         C            1.186155471279     0.912595168467    -0.195393995421    12.000000000000
         C           -0.922095528721    -0.621598831533    -0.207166995421    12.000000000000
         C           -2.108536528721     0.312010168467     0.024395004579    12.000000000000
         H            0.255597371279    -0.052149631533     1.655721104579     1.007825032230
         H            1.721155471279    -1.110347831533    -0.966431995421     1.007825032230
         H            2.491259471279    -0.701716831533     0.634813004579     1.007825032230
         H            1.647154471279     1.680498168467     0.417261004579     1.007825032230
         H            0.880763471279     1.252317168467    -1.181003995421     1.007825032230
         H           -1.163907528721    -1.630738831533     0.149920004579     1.007825032230
         H           -0.727590528721    -0.713032831533    -1.283689995421     1.007825032230
         H           -2.328885528721     0.402584168467     1.092493004579     1.007825032230
         H           -1.889643528721     1.312943168467    -0.358441995421     1.007825032230
         H           -3.010097528721    -0.055692831533    -0.474813995421     1.007825032230

  Basis Set: AUG-CC-PVTZ
    Blend: AUG-CC-PVTZ
  Basis Set: (AUG-CC-PVTZ AUX)
    Blend: AUG-CC-PVTZ-JKFIT
	 Reference Energy          =    -195.1925885055673575 [Eh]
	 Singles Energy            =      -0.0000000000000000 [Eh]
	 Same-Spin Energy          =      -0.2101186101527640 [Eh]
	 Opposite-Spin Energy      =      -0.7644314302758690 [Eh]
	 Correlation Energy        =      -0.9745500404286330 [Eh]
	 Total Energy              =    -196.1671385459959822 [Eh]

	 ================> DF-SCS-MP2 Energies <==================
	-----------------------------------------------------------
	 SCS Same-Spin Scale       =       0.3333333333333333 [-]
	 SCS Opposite-Spin Scale   =       1.2000000000000000 [-]
	 SCS Same-Spin Energy      =      -0.0700395367175880 [Eh]
	 SCS Opposite-Spin Energy  =      -0.9173177163310428 [Eh]
	 SCS Correlation Energy    =      -0.9873572530486308 [Eh]
	 SCS Total Energy          =    -196.1799457586159861 [Eh]
	-----------------------------------------------------------

  Dipole Moment: [D]
     X:    -0.0749      Y:    -0.0597      Z:     0.0039     Total:     0.0959

*** Psi4 exiting successfully. Buy a developer a beer!
