                               Psi4 1.3.2 release

  ==> Input File <==

--------------------------------------------------------------------------
#psi4
#
memory 32 gb

molecule  {
0 1
  C        0.3607500    -0.1378060     0.4783360
  C        1.7489126    -0.5102626     0.0380343
  C        1.2123340     0.9079950    -0.1890090
  C       -0.8959170    -0.6261990    -0.2007820
  C       -2.0823580     0.3074100     0.0307800
  H        0.2884170    -0.0635660     1.5625600
  H        1.7473340    -1.1149480    -0.9600470
  H        2.5174380    -0.7063170     0.6411980
  H        1.6733330     1.6758980     0.4236460
  H        0.9069420     1.2477170    -1.1746190
  H       -1.1377290    -1.6353390     0.1563050
  H       -0.7014120    -0.7176330    -1.2773050
  H       -2.3027070     0.3979840     1.0988780
  H       -1.8634650     1.3083430    -0.3520570
  H       -2.9839190    -0.0602930    -0.4684290
units angstrom
no_reorient  #important for SAPT in psi4, default
symmetry c1  #important for SAPT in psi4, default
}

set PROPERTIES_ORIGIN ["COM"]
properties('MP2/aug-cc-pvtz', properties = ['dipole'])
--------------------------------------------------------------------------

    Molecular point group: c1
  Charge       = 0
  Multiplicity = 1
  Basis Set: AUG-CC-PVTZ
    Blend: AUG-CC-PVTZ
  Basis Set: (AUG-CC-PVTZ AUX)
    Blend: AUG-CC-PVTZ-JKFIT

    Orbital Energies [Eh]
    ---------------------

    Doubly Occupied:

       1A    -11.227217     2A    -11.221367     3A    -11.220904
       4A    -11.220317     5A    -11.211332     6A     -1.138722
       7A     -1.020420     8A     -0.866412     9A     -0.822884
      10A     -0.765561    11A     -0.668912    12A     -0.619001
      13A     -0.597378    14A     -0.550246    15A     -0.521023
      16A     -0.503722    17A     -0.490563    18A     -0.471551
      19A     -0.403994    20A     -0.400381

  @DF-RHF Final Energy:  -195.18602296742728

   => Energetics <=

    Nuclear Repulsion Energy =            179.2523128267351069
    One-Electron Energy =                -616.9928597655824660
    Two-Electron Energy =                 242.5545239714201102
    Total Energy =                       -195.1860229674272773
  Basis Set: (AUG-CC-PVTZ AUX)
    Blend: AUG-CC-PVTZ-RI
    Molecular point group: c1

    Geometry (in Angstrom), charge = 0, multiplicity = 1:

       Center              X                  Y                   Z               Mass
    ------------   -----------------  -----------------  -----------------  -----------------
         C            0.328580678631    -0.132498954053     0.456421870453    12.000000000000
         C            1.716743278631    -0.504955554053     0.016120170453    12.000000000000
         C            1.180164678631     0.913302045947    -0.210923129547    12.000000000000
         C           -0.928086321369    -0.620891954053    -0.222696129547    12.000000000000
         C           -2.114527321369     0.312717045947     0.008865870453    12.000000000000
         H            0.256247678631    -0.058258954053     1.540645870453     1.007825032230
         H            1.715164678631    -1.109640954053    -0.981961129547     1.007825032230
         H            2.485268678631    -0.701009954053     0.619283870453     1.007825032230
         H            1.641163678631     1.681205045947     0.401731870453     1.007825032230
         H            0.874772678631     1.253024045947    -1.196533129547     1.007825032230
         H           -1.169898321369    -1.630031954053     0.134390870453     1.007825032230
         H           -0.733581321369    -0.712325954053    -1.299219129547     1.007825032230
         H           -2.334876321369     0.403291045947     1.076963870453     1.007825032230
         H           -1.895634321369     1.313650045947    -0.373971129547     1.007825032230
         H           -3.016088321369    -0.054985954053    -0.490343129547     1.007825032230

  Basis Set: AUG-CC-PVTZ
    Blend: AUG-CC-PVTZ
  Basis Set: (AUG-CC-PVTZ AUX)
    Blend: AUG-CC-PVTZ-JKFIT
	 Reference Energy          =    -195.1860229674272773 [Eh]
	 Singles Energy            =      -0.0000000000000000 [Eh]
	 Same-Spin Energy          =      -0.2101964141276242 [Eh]
	 Opposite-Spin Energy      =      -0.7645201840223097 [Eh]
	 Correlation Energy        =      -0.9747165981499339 [Eh]
	 Total Energy              =    -196.1607395655772166 [Eh]

	 ================> DF-SCS-MP2 Energies <==================
	-----------------------------------------------------------
	 SCS Same-Spin Scale       =       0.3333333333333333 [-]
	 SCS Opposite-Spin Scale   =       1.2000000000000000 [-]
	 SCS Same-Spin Energy      =      -0.0700654713758747 [Eh]
	 SCS Opposite-Spin Energy  =      -0.9174242208267716 [Eh]
	 SCS Correlation Energy    =      -0.9874896922026463 [Eh]
	 SCS Total Energy          =    -196.1735126596299210 [Eh]
	-----------------------------------------------------------

  Dipole Moment: [D]
     X:    -0.1328      Y:    -0.0326      Z:     0.1120     Total:     0.1767

*** Psi4 exiting successfully. Buy a developer a beer!
