                               Psi4 1.3.2 release

  ==> Input File <==

--------------------------------------------------------------------------
#psi4
#
memory 32 gb

molecule  {
0 1
  C        0.3861868    -0.1799458     0.4595277
  C        1.7144850    -0.5067070    -0.0610140
  C        1.2123340     0.9079950    -0.1890090
  C       -0.8959170    -0.6261990    -0.2007820
  C       -2.0823580     0.3074100     0.0307800
  H        0.2884170    -0.0635660     1.5625600
  H        1.7473340    -1.1149480    -0.9600470
  H        2.5174380    -0.7063170     0.6411980
  H        1.6733330     1.6758980     0.4236460
  H        0.9069420     1.2477170    -1.1746190
  H       -1.1377290    -1.6353390     0.1563050
  H       -0.7014120    -0.7176330    -1.2773050
  H       -2.3027070     0.3979840     1.0988780
  H       -1.8634650     1.3083430    -0.3520570
  H       -2.9839190    -0.0602930    -0.4684290
units angstrom
no_reorient  #important for SAPT in psi4, default
symmetry c1  #important for SAPT in psi4, default
}

set PROPERTIES_ORIGIN ["COM"]
properties('MP2/aug-cc-pvtz', properties = ['dipole'])
--------------------------------------------------------------------------

    Molecular point group: c1
  Charge       = 0
  Multiplicity = 1
  Basis Set: AUG-CC-PVTZ
    Blend: AUG-CC-PVTZ
  Basis Set: (AUG-CC-PVTZ AUX)
    Blend: AUG-CC-PVTZ-JKFIT

    Orbital Energies [Eh]
    ---------------------

    Doubly Occupied:

       1A    -11.225752     2A    -11.220069     3A    -11.219580
       4A    -11.217072     5A    -11.210926     6A     -1.147676
       7A     -1.020195     8A     -0.866785     9A     -0.817632
      10A     -0.762462    11A     -0.663654    12A     -0.624251
      13A     -0.593450    14A     -0.551113    15A     -0.521395
      16A     -0.506192    17A     -0.490077    18A     -0.465942
      19A     -0.418159    20A     -0.395216

  @DF-RHF Final Energy:  -195.19739648407875

   => Energetics <=

    Nuclear Repulsion Energy =            179.7746172158879574
    One-Electron Energy =                -618.0688309595004739
    Two-Electron Energy =                 243.0968172595337933
    Total Energy =                       -195.1973964840787517
  Basis Set: (AUG-CC-PVTZ AUX)
    Blend: AUG-CC-PVTZ-RI
    Molecular point group: c1

    Geometry (in Angstrom), charge = 0, multiplicity = 1:

       Center              X                  Y                   Z               Mass
    ------------   -----------------  -----------------  -----------------  -----------------
         C            0.355557037617    -0.168031705534     0.457794998978    12.000000000000
         C            1.683855237617    -0.494792905534    -0.062746701022    12.000000000000
         C            1.181704237617     0.919909094466    -0.190741701022    12.000000000000
         C           -0.926546762383    -0.614284905534    -0.202514701022    12.000000000000
         C           -2.112987762383     0.319324094466     0.029047298978    12.000000000000
         H            0.257787237617    -0.051651905534     1.560827298978     1.007825032230
         H            1.716704237617    -1.103033905534    -0.961779701022     1.007825032230
         H            2.486808237617    -0.694402905534     0.639465298978     1.007825032230
         H            1.642703237617     1.687812094466     0.421913298978     1.007825032230
         H            0.876312237617     1.259631094466    -1.176351701022     1.007825032230
         H           -1.168358762383    -1.623424905534     0.154572298978     1.007825032230
         H           -0.732041762383    -0.705718905534    -1.279037701022     1.007825032230
         H           -2.333336762383     0.409898094466     1.097145298978     1.007825032230
         H           -1.894094762383     1.320257094466    -0.353789701022     1.007825032230
         H           -3.014548762383    -0.048378905534    -0.470161701022     1.007825032230

  Basis Set: AUG-CC-PVTZ
    Blend: AUG-CC-PVTZ
  Basis Set: (AUG-CC-PVTZ AUX)
    Blend: AUG-CC-PVTZ-JKFIT
	 Reference Energy          =    -195.1973964840787517 [Eh]
	 Singles Energy            =      -0.0000000000000000 [Eh]
	 Same-Spin Energy          =      -0.2101939783553662 [Eh]
	 Opposite-Spin Energy      =      -0.7637860720819346 [Eh]
	 Correlation Energy        =      -0.9739800504373008 [Eh]
	 Total Energy              =    -196.1713765345160425 [Eh]

	 ================> DF-SCS-MP2 Energies <==================
	-----------------------------------------------------------
	 SCS Same-Spin Scale       =       0.3333333333333333 [-]
	 SCS Opposite-Spin Scale   =       1.2000000000000000 [-]
	 SCS Same-Spin Energy      =      -0.0700646594517887 [Eh]
	 SCS Opposite-Spin Energy  =      -0.9165432864983215 [Eh]
	 SCS Correlation Energy    =      -0.9866079459501103 [Eh]
	 SCS Total Energy          =    -196.1840044300288639 [Eh]
	-----------------------------------------------------------

  Dipole Moment: [D]
     X:    -0.0946      Y:    -0.0891      Z:     0.0685     Total:     0.1469

*** Psi4 exiting successfully. Buy a developer a beer!
