                               Psi4 1.3.2 release

  ==> Input File <==

--------------------------------------------------------------------------
#psi4
#
memory 32 gb

molecule  {
0 1
  C        0.3607500    -0.1378060     0.4783360
  C        1.7256816    -0.4929857    -0.0416581
  C        1.2123340     0.9079950    -0.1890090
  C       -0.8959170    -0.6261990    -0.2007820
  C       -2.0823580     0.3074100     0.0307800
  H        0.2884170    -0.0635660     1.5625600
  H        1.7473340    -1.1149480    -0.9600470
  H        2.5174380    -0.7063170     0.6411980
  H        1.6733330     1.6758980     0.4236460
  H        0.9069420     1.2477170    -1.1746190
  H       -1.1377290    -1.6353390     0.1563050
  H       -0.7014120    -0.7176330    -1.2773050
  H       -2.3027070     0.3979840     1.0988780
  H       -1.8634650     1.3083430    -0.3520570
  H       -2.9839190    -0.0602930    -0.4684290
units angstrom
no_reorient  #important for SAPT in psi4, default
symmetry c1  #important for SAPT in psi4, default
}

set PROPERTIES_ORIGIN ["COM"]
properties('MP2/aug-cc-pvtz', properties = ['dipole'])
--------------------------------------------------------------------------

    Molecular point group: c1
  Charge       = 0
  Multiplicity = 1
  Basis Set: AUG-CC-PVTZ
    Blend: AUG-CC-PVTZ
  Basis Set: (AUG-CC-PVTZ AUX)
    Blend: AUG-CC-PVTZ-JKFIT

    Orbital Energies [Eh]
    ---------------------

    Doubly Occupied:

       1A    -11.224595     2A    -11.219923     3A    -11.219625
       4A    -11.218878     5A    -11.210019     6A     -1.143183
       7A     -1.020045     8A     -0.865803     9A     -0.815757
      10A     -0.765994    11A     -0.664182    12A     -0.622218
      13A     -0.594062    14A     -0.551785    15A     -0.519680
      16A     -0.504052    17A     -0.490594    18A     -0.470889
      19A     -0.411482    20A     -0.398181

  @DF-RHF Final Energy:  -195.19862837368137

   => Energetics <=

    Nuclear Repulsion Energy =            179.6272717860700538
    One-Electron Energy =                -617.7899091777450167
    Two-Electron Energy =                 242.9640090179935612
    Total Energy =                       -195.1986283736813732
  Basis Set: (AUG-CC-PVTZ AUX)
    Blend: AUG-CC-PVTZ-RI
    Molecular point group: c1

    Geometry (in Angstrom), charge = 0, multiplicity = 1:

       Center              X                  Y                   Z               Mass
    ------------   -----------------  -----------------  -----------------  -----------------
         C            0.332558688908    -0.135457401204     0.470068170063    12.000000000000
         C            1.697490288908    -0.490637101204    -0.049925929937    12.000000000000
         C            1.184142688908     0.910343598796    -0.197276829937    12.000000000000
         C           -0.924108311092    -0.623850401204    -0.209049829937    12.000000000000
         C           -2.110549311092     0.309758598796     0.022512170063    12.000000000000
         H            0.260225688908    -0.061217401204     1.554292170063     1.007825032230
         H            1.719142688908    -1.112599401204    -0.968314829937     1.007825032230
         H            2.489246688908    -0.703968401204     0.632930170063     1.007825032230
         H            1.645141688908     1.678246598796     0.415378170063     1.007825032230
         H            0.878750688908     1.250065598796    -1.182886829937     1.007825032230
         H           -1.165920311092    -1.632990401204     0.148037170063     1.007825032230
         H           -0.729603311092    -0.715284401204    -1.285572829937     1.007825032230
         H           -2.330898311092     0.400332598796     1.090610170063     1.007825032230
         H           -1.891656311092     1.310691598796    -0.360324829937     1.007825032230
         H           -3.012110311092    -0.057944401204    -0.476696829937     1.007825032230

  Basis Set: AUG-CC-PVTZ
    Blend: AUG-CC-PVTZ
  Basis Set: (AUG-CC-PVTZ AUX)
    Blend: AUG-CC-PVTZ-JKFIT
	 Reference Energy          =    -195.1986283736813732 [Eh]
	 Singles Energy            =      -0.0000000000000000 [Eh]
	 Same-Spin Energy          =      -0.2100864009157775 [Eh]
	 Opposite-Spin Energy      =      -0.7637743967777384 [Eh]
	 Correlation Energy        =      -0.9738607976935160 [Eh]
	 Total Energy              =    -196.1724891713748775 [Eh]

	 ================> DF-SCS-MP2 Energies <==================
	-----------------------------------------------------------
	 SCS Same-Spin Scale       =       0.3333333333333333 [-]
	 SCS Opposite-Spin Scale   =       1.2000000000000000 [-]
	 SCS Same-Spin Energy      =      -0.0700288003052592 [Eh]
	 SCS Opposite-Spin Energy  =      -0.9165292761332861 [Eh]
	 SCS Correlation Energy    =      -0.9865580764385452 [Eh]
	 SCS Total Energy          =    -196.1851864501199145 [Eh]
	-----------------------------------------------------------

  Dipole Moment: [D]
     X:    -0.0835      Y:    -0.0561      Z:     0.0741     Total:     0.1250

*** Psi4 exiting successfully. Buy a developer a beer!
