                               Psi4 1.3.2 release

  ==> Input File <==

--------------------------------------------------------------------------
#psi4
#
memory 32 gb

molecule  {
0 1
  C        0.3607500    -0.1378060     0.4783360
  C        1.7028760    -0.5203159    -0.0802056
  C        1.2123340     0.9079950    -0.1890090
  C       -0.8959170    -0.6261990    -0.2007820
  C       -2.0823580     0.3074100     0.0307800
  H        0.2884170    -0.0635660     1.5625600
  H        1.7473340    -1.1149480    -0.9600470
  H        2.5174380    -0.7063170     0.6411980
  H        1.6733330     1.6758980     0.4236460
  H        0.9069420     1.2477170    -1.1746190
  H       -1.1377290    -1.6353390     0.1563050
  H       -0.7014120    -0.7176330    -1.2773050
  H       -2.3027070     0.3979840     1.0988780
  H       -1.8634650     1.3083430    -0.3520570
  H       -2.9839190    -0.0602930    -0.4684290
units angstrom
no_reorient  #important for SAPT in psi4, default
symmetry c1  #important for SAPT in psi4, default
}

set PROPERTIES_ORIGIN ["COM"]
properties('MP2/aug-cc-pvtz', properties = ['dipole'])
--------------------------------------------------------------------------

    Molecular point group: c1
  Charge       = 0
  Multiplicity = 1
  Basis Set: AUG-CC-PVTZ
    Blend: AUG-CC-PVTZ
  Basis Set: (AUG-CC-PVTZ AUX)
    Blend: AUG-CC-PVTZ-JKFIT

    Orbital Energies [Eh]
    ---------------------

    Doubly Occupied:

       1A    -11.225378     2A    -11.219688     3A    -11.219436
       4A    -11.219040     5A    -11.209598     6A     -1.141468
       7A     -1.018930     8A     -0.865188     9A     -0.817309
      10A     -0.767171    11A     -0.660453    12A     -0.625355
      13A     -0.591516    14A     -0.552358    15A     -0.520094
      16A     -0.507899    17A     -0.489023    18A     -0.471271
      19A     -0.407255    20A     -0.400166

  @DF-RHF Final Energy:  -195.19867363088088

   => Energetics <=

    Nuclear Repulsion Energy =            179.6239736020589817
    One-Electron Energy =                -617.7881057573129056
    Two-Electron Energy =                 242.9654585243730480
    Total Energy =                       -195.1986736308808759
  Basis Set: (AUG-CC-PVTZ AUX)
    Blend: AUG-CC-PVTZ-RI
    Molecular point group: c1

    Geometry (in Angstrom), charge = 0, multiplicity = 1:

       Center              X                  Y                   Z               Mass
    ------------   -----------------  -----------------  -----------------  -----------------
         C            0.336463854901    -0.130777455593     0.476668934178    12.000000000000
         C            1.678589854901    -0.513287355593    -0.081872665822    12.000000000000
         C            1.188047854901     0.915023544407    -0.190676065822    12.000000000000
         C           -0.920203145099    -0.619170455593    -0.202449065822    12.000000000000
         C           -2.106644145099     0.314438544407     0.029112934178    12.000000000000
         H            0.264130854901    -0.056537455593     1.560892934178     1.007825032230
         H            1.723047854901    -1.107919455593    -0.961714065822     1.007825032230
         H            2.493151854901    -0.699288455593     0.639530934178     1.007825032230
         H            1.649046854901     1.682926544407     0.421978934178     1.007825032230
         H            0.882655854901     1.254745544407    -1.176286065822     1.007825032230
         H           -1.162015145099    -1.628310455593     0.154637934178     1.007825032230
         H           -0.725698145099    -0.710604455593    -1.278972065822     1.007825032230
         H           -2.326993145099     0.405012544407     1.097210934178     1.007825032230
         H           -1.887751145099     1.315371544407    -0.353724065822     1.007825032230
         H           -3.008205145099    -0.053264455593    -0.470096065822     1.007825032230

  Basis Set: AUG-CC-PVTZ
    Blend: AUG-CC-PVTZ
  Basis Set: (AUG-CC-PVTZ AUX)
    Blend: AUG-CC-PVTZ-JKFIT
	 Reference Energy          =    -195.1986736308808759 [Eh]
	 Singles Energy            =      -0.0000000000000000 [Eh]
	 Same-Spin Energy          =      -0.2100452015686148 [Eh]
	 Opposite-Spin Energy      =      -0.7638552512430188 [Eh]
	 Correlation Energy        =      -0.9739004528116335 [Eh]
	 Total Energy              =    -196.1725740836924956 [Eh]

	 ================> DF-SCS-MP2 Energies <==================
	-----------------------------------------------------------
	 SCS Same-Spin Scale       =       0.3333333333333333 [-]
	 SCS Opposite-Spin Scale   =       1.2000000000000000 [-]
	 SCS Same-Spin Energy      =      -0.0700150671895383 [Eh]
	 SCS Opposite-Spin Energy  =      -0.9166263014916225 [Eh]
	 SCS Correlation Energy    =      -0.9866413686811608 [Eh]
	 SCS Total Energy          =    -196.1853149995620242 [Eh]
	-----------------------------------------------------------

  Dipole Moment: [D]
     X:    -0.0919      Y:    -0.0580      Z:     0.0595     Total:     0.1239

*** Psi4 exiting successfully. Buy a developer a beer!
