                               Psi4 1.3.2 release

  ==> Input File <==

--------------------------------------------------------------------------
#psi4
#
memory 32 gb

molecule  {
0 1
  C        0.3607500    -0.1378060     0.4783360
  C        1.7325344    -0.5087107    -0.0117884
  C        1.2123340     0.9079950    -0.1890090
  C       -0.8959170    -0.6261990    -0.2007820
  C       -2.0823580     0.3074100     0.0307800
  H        0.2884170    -0.0635660     1.5625600
  H        1.7473340    -1.1149480    -0.9600470
  H        2.5174380    -0.7063170     0.6411980
  H        1.6733330     1.6758980     0.4236460
  H        0.9069420     1.2477170    -1.1746190
  H       -1.1377290    -1.6353390     0.1563050
  H       -0.7014120    -0.7176330    -1.2773050
  H       -2.3027070     0.3979840     1.0988780
  H       -1.8634650     1.3083430    -0.3520570
  H       -2.9839190    -0.0602930    -0.4684290
units angstrom
no_reorient  #important for SAPT in psi4, default
symmetry c1  #important for SAPT in psi4, default
}

set PROPERTIES_ORIGIN ["COM"]
properties('MP2/aug-cc-pvtz', properties = ['dipole'])
--------------------------------------------------------------------------

    Molecular point group: c1
  Charge       = 0
  Multiplicity = 1
  Basis Set: AUG-CC-PVTZ
    Blend: AUG-CC-PVTZ
  Basis Set: (AUG-CC-PVTZ AUX)
    Blend: AUG-CC-PVTZ-JKFIT

    Orbital Energies [Eh]
    ---------------------

    Doubly Occupied:

       1A    -11.225813     2A    -11.220426     3A    -11.219941
       4A    -11.219348     5A    -11.210507     6A     -1.140356
       7A     -1.019863     8A     -0.865769     9A     -0.818516
      10A     -0.765599    11A     -0.665725    12A     -0.620088
      13A     -0.595478    14A     -0.550860    15A     -0.520236
      16A     -0.505802    17A     -0.490636    18A     -0.471239
      19A     -0.405471    20A     -0.401541

  @DF-RHF Final Energy:  -195.19615968323100

   => Energetics <=

    Nuclear Repulsion Energy =            179.4324796099858759
    One-Electron Energy =                -617.3908509331834011
    Two-Electron Energy =                 242.7622116399665231
    Total Energy =                       -195.1961596832310022
  Basis Set: (AUG-CC-PVTZ AUX)
    Blend: AUG-CC-PVTZ-RI
    Molecular point group: c1

    Geometry (in Angstrom), charge = 0, multiplicity = 1:

       Center              X                  Y                   Z               Mass
    ------------   -----------------  -----------------  -----------------  -----------------
         C            0.331385234953    -0.132764696989     0.464953367705    12.000000000000
         C            1.703169634953    -0.503669396989    -0.025171032295    12.000000000000
         C            1.182969234953     0.913036303011    -0.202391632295    12.000000000000
         C           -0.925281765047    -0.621157696989    -0.214164632295    12.000000000000
         C           -2.111722765047     0.312451303011     0.017397367705    12.000000000000
         H            0.259052234953    -0.058524696989     1.549177367705     1.007825032230
         H            1.717969234953    -1.109906696989    -0.973429632295     1.007825032230
         H            2.488073234953    -0.701275696989     0.627815367705     1.007825032230
         H            1.643968234953     1.680939303011     0.410263367705     1.007825032230
         H            0.877577234953     1.252758303011    -1.188001632295     1.007825032230
         H           -1.167093765047    -1.630297696989     0.142922367705     1.007825032230
         H           -0.730776765047    -0.712591696989    -1.290687632295     1.007825032230
         H           -2.332071765047     0.403025303011     1.085495367705     1.007825032230
         H           -1.892829765047     1.313384303011    -0.365439632295     1.007825032230
         H           -3.013283765047    -0.055251696989    -0.481811632295     1.007825032230

  Basis Set: AUG-CC-PVTZ
    Blend: AUG-CC-PVTZ
  Basis Set: (AUG-CC-PVTZ AUX)
    Blend: AUG-CC-PVTZ-JKFIT
	 Reference Energy          =    -195.1961596832310022 [Eh]
	 Singles Energy            =      -0.0000000000000000 [Eh]
	 Same-Spin Energy          =      -0.2100809701506723 [Eh]
	 Opposite-Spin Energy      =      -0.7639791743839679 [Eh]
	 Correlation Energy        =      -0.9740601445346402 [Eh]
	 Total Energy              =    -196.1702198277656350 [Eh]

	 ================> DF-SCS-MP2 Energies <==================
	-----------------------------------------------------------
	 SCS Same-Spin Scale       =       0.3333333333333333 [-]
	 SCS Opposite-Spin Scale   =       1.2000000000000000 [-]
	 SCS Same-Spin Energy      =      -0.0700269900502241 [Eh]
	 SCS Opposite-Spin Energy  =      -0.9167750092607614 [Eh]
	 SCS Correlation Energy    =      -0.9868019993109856 [Eh]
	 SCS Total Energy          =    -196.1829616825419862 [Eh]
	-----------------------------------------------------------

  Dipole Moment: [D]
     X:    -0.1029      Y:    -0.0503      Z:     0.0884     Total:     0.1447

*** Psi4 exiting successfully. Buy a developer a beer!
