                               Psi4 1.3.2 release

  ==> Input File <==

--------------------------------------------------------------------------
#psi4
#
memory 32 gb

molecule  {
0 1
  C        0.3607500    -0.1378060     0.4783360
  C        1.7144850    -0.5067070    -0.0610140
  C        1.2123340     0.9079950    -0.1890090
  C       -0.8838110    -0.6242148    -0.2240993
  C       -2.0823580     0.3074100     0.0307800
  H        0.2884170    -0.0635660     1.5625600
  H        1.7473340    -1.1149480    -0.9600470
  H        2.5174380    -0.7063170     0.6411980
  H        1.6733330     1.6758980     0.4236460
  H        0.9069420     1.2477170    -1.1746190
  H       -1.1377290    -1.6353390     0.1563050
  H       -0.7014120    -0.7176330    -1.2773050
  H       -2.3027070     0.3979840     1.0988780
  H       -1.8634650     1.3083430    -0.3520570
  H       -2.9839190    -0.0602930    -0.4684290
units angstrom
no_reorient  #important for SAPT in psi4, default
symmetry c1  #important for SAPT in psi4, default
}

set PROPERTIES_ORIGIN ["COM"]
properties('MP2/aug-cc-pvtz', properties = ['dipole'])
--------------------------------------------------------------------------

    Molecular point group: c1
  Charge       = 0
  Multiplicity = 1
  Basis Set: AUG-CC-PVTZ
    Blend: AUG-CC-PVTZ
  Basis Set: (AUG-CC-PVTZ AUX)
    Blend: AUG-CC-PVTZ-JKFIT

    Orbital Energies [Eh]
    ---------------------

    Doubly Occupied:

       1A    -11.225050     2A    -11.219313     3A    -11.219190
       4A    -11.218671     5A    -11.210099     6A     -1.142566
       7A     -1.017362     8A     -0.865377     9A     -0.816198
      10A     -0.768268    11A     -0.661740    12A     -0.623972
      13A     -0.592208    14A     -0.550821    15A     -0.518219
      16A     -0.505405    17A     -0.491007    18A     -0.475951
      19A     -0.408520    20A     -0.397687

  @DF-RHF Final Energy:  -195.19885680337541

   => Energetics <=

    Nuclear Repulsion Energy =            179.6115147996891892
    One-Electron Energy =                -617.7654909527644804
    Two-Electron Energy =                 242.9551193496998849
    Total Energy =                       -195.1988568033754063
  Basis Set: (AUG-CC-PVTZ AUX)
    Blend: AUG-CC-PVTZ-RI
    Molecular point group: c1

    Geometry (in Angstrom), charge = 0, multiplicity = 1:

       Center              X                  Y                   Z               Mass
    ------------   -----------------  -----------------  -----------------  -----------------
         C            0.332402965842    -0.133447573627     0.477375407296    12.000000000000
         C            1.686137965842    -0.502348573627    -0.061974592704    12.000000000000
         C            1.183986965842     0.912353426373    -0.189969592704    12.000000000000
         C           -0.912158034158    -0.619856373627    -0.225059892704    12.000000000000
         C           -2.110705034158     0.311768426373     0.029819407296    12.000000000000
         H            0.260069965842    -0.059207573627     1.561599407296     1.007825032230
         H            1.718986965842    -1.110589573627    -0.961007592704     1.007825032230
         H            2.489090965842    -0.701958573627     0.640237407296     1.007825032230
         H            1.644985965842     1.680256426373     0.422685407296     1.007825032230
         H            0.878594965842     1.252075426373    -1.175579592704     1.007825032230
         H           -1.166076034158    -1.630980573627     0.155344407296     1.007825032230
         H           -0.729759034158    -0.713274573627    -1.278265592704     1.007825032230
         H           -2.331054034158     0.402342426373     1.097917407296     1.007825032230
         H           -1.891812034158     1.312701426373    -0.353017592704     1.007825032230
         H           -3.012266034158    -0.055934573627    -0.469389592704     1.007825032230

  Basis Set: AUG-CC-PVTZ
    Blend: AUG-CC-PVTZ
  Basis Set: (AUG-CC-PVTZ AUX)
    Blend: AUG-CC-PVTZ-JKFIT
	 Reference Energy          =    -195.1988568033754063 [Eh]
	 Singles Energy            =      -0.0000000000000000 [Eh]
	 Same-Spin Energy          =      -0.2100106604265653 [Eh]
	 Opposite-Spin Energy      =      -0.7637427371553653 [Eh]
	 Correlation Energy        =      -0.9737533975819306 [Eh]
	 Total Energy              =    -196.1726102009573367 [Eh]

	 ================> DF-SCS-MP2 Energies <==================
	-----------------------------------------------------------
	 SCS Same-Spin Scale       =       0.3333333333333333 [-]
	 SCS Opposite-Spin Scale   =       1.2000000000000000 [-]
	 SCS Same-Spin Energy      =      -0.0700035534755218 [Eh]
	 SCS Opposite-Spin Energy  =      -0.9164912845864384 [Eh]
	 SCS Correlation Energy    =      -0.9864948380619601 [Eh]
	 SCS Total Energy          =    -196.1853516414373644 [Eh]
	-----------------------------------------------------------

  Dipole Moment: [D]
     X:    -0.0803      Y:    -0.0561      Z:     0.0588     Total:     0.1143

*** Psi4 exiting successfully. Buy a developer a beer!
