                               Psi4 1.3.2 release

  ==> Input File <==

--------------------------------------------------------------------------
#psi4
#
memory 32 gb

molecule  {
0 1
  C        0.3607500    -0.1378060     0.4783360
  C        1.7567639    -0.4511895     0.0173363
  C        1.2123340     0.9079950    -0.1890090
  C       -0.8959170    -0.6261990    -0.2007820
  C       -2.0823580     0.3074100     0.0307800
  H        0.2884170    -0.0635660     1.5625600
  H        1.7473340    -1.1149480    -0.9600470
  H        2.5174380    -0.7063170     0.6411980
  H        1.6733330     1.6758980     0.4236460
  H        0.9069420     1.2477170    -1.1746190
  H       -1.1377290    -1.6353390     0.1563050
  H       -0.7014120    -0.7176330    -1.2773050
  H       -2.3027070     0.3979840     1.0988780
  H       -1.8634650     1.3083430    -0.3520570
  H       -2.9839190    -0.0602930    -0.4684290
units angstrom
no_reorient  #important for SAPT in psi4, default
symmetry c1  #important for SAPT in psi4, default
}

set PROPERTIES_ORIGIN ["COM"]
properties('MP2/aug-cc-pvtz', properties = ['dipole'])
--------------------------------------------------------------------------

    Molecular point group: c1
  Charge       = 0
  Multiplicity = 1
  Basis Set: AUG-CC-PVTZ
    Blend: AUG-CC-PVTZ
  Basis Set: (AUG-CC-PVTZ AUX)
    Blend: AUG-CC-PVTZ-JKFIT

    Orbital Energies [Eh]
    ---------------------

    Doubly Occupied:

       1A    -11.224340     2A    -11.221128     3A    -11.220920
       4A    -11.219272     5A    -11.210814     6A     -1.146383
       7A     -1.021929     8A     -0.867122     9A     -0.817393
      10A     -0.765510    11A     -0.669357    12A     -0.621826
      13A     -0.596643    14A     -0.552359    15A     -0.519557
      16A     -0.497451    17A     -0.489803    18A     -0.470345
      19A     -0.416633    20A     -0.394210

  @DF-RHF Final Energy:  -195.18698248971225

   => Energetics <=

    Nuclear Repulsion Energy =            179.6515569244358517
    One-Electron Energy =                -617.7910918122553312
    Two-Electron Energy =                 242.9525523981072297
    Total Energy =                       -195.1869824897122498
  Basis Set: (AUG-CC-PVTZ AUX)
    Blend: AUG-CC-PVTZ-RI
    Molecular point group: c1

    Geometry (in Angstrom), charge = 0, multiplicity = 1:

       Center              X                  Y                   Z               Mass
    ------------   -----------------  -----------------  -----------------  -----------------
         C            0.327236244380    -0.142614463455     0.459966137025    12.000000000000
         C            1.723250144380    -0.455997963455    -0.001033562975    12.000000000000
         C            1.178820244380     0.903186536545    -0.207378862975    12.000000000000
         C           -0.929430755620    -0.631007463455    -0.219151862975    12.000000000000
         C           -2.115871755620     0.302601536545     0.012410137025    12.000000000000
         H            0.254903244380    -0.068374463455     1.544190137025     1.007825032230
         H            1.713820244380    -1.119756463455    -0.978416862975     1.007825032230
         H            2.483924244380    -0.711125463455     0.622828137025     1.007825032230
         H            1.639819244380     1.671089536545     0.405276137025     1.007825032230
         H            0.873428244380     1.242908536545    -1.192988862975     1.007825032230
         H           -1.171242755620    -1.640147463455     0.137935137025     1.007825032230
         H           -0.734925755620    -0.722441463455    -1.295674862975     1.007825032230
         H           -2.336220755620     0.393175536545     1.080508137025     1.007825032230
         H           -1.896978755620     1.303534536545    -0.370426862975     1.007825032230
         H           -3.017432755620    -0.065101463455    -0.486798862975     1.007825032230

  Basis Set: AUG-CC-PVTZ
    Blend: AUG-CC-PVTZ
  Basis Set: (AUG-CC-PVTZ AUX)
    Blend: AUG-CC-PVTZ-JKFIT
	 Reference Energy          =    -195.1869824897122498 [Eh]
	 Singles Energy            =      -0.0000000000000000 [Eh]
	 Same-Spin Energy          =      -0.2103127556797330 [Eh]
	 Opposite-Spin Energy      =      -0.7642467401989349 [Eh]
	 Correlation Energy        =      -0.9745594958786679 [Eh]
	 Total Energy              =    -196.1615419855909295 [Eh]

	 ================> DF-SCS-MP2 Energies <==================
	-----------------------------------------------------------
	 SCS Same-Spin Scale       =       0.3333333333333333 [-]
	 SCS Opposite-Spin Scale   =       1.2000000000000000 [-]
	 SCS Same-Spin Energy      =      -0.0701042518932443 [Eh]
	 SCS Opposite-Spin Energy  =      -0.9170960882387218 [Eh]
	 SCS Correlation Energy    =      -0.9872003401319661 [Eh]
	 SCS Total Energy          =    -196.1741828298442272 [Eh]
	-----------------------------------------------------------

  Dipole Moment: [D]
     X:    -0.0901      Y:    -0.0334      Z:     0.1046     Total:     0.1420

*** Psi4 exiting successfully. Buy a developer a beer!
