                               Psi4 1.3.2 release

  ==> Input File <==

--------------------------------------------------------------------------
#psi4
#
memory 32 gb

molecule  {
0 1
  C        0.3607500    -0.1378060     0.4783360
  C        1.7364625    -0.4791562    -0.0221437
  C        1.2123340     0.9079950    -0.1890090
  C       -0.8959170    -0.6261990    -0.2007820
  C       -2.0823580     0.3074100     0.0307800
  H        0.2884170    -0.0635660     1.5625600
  H        1.7473340    -1.1149480    -0.9600470
  H        2.5174380    -0.7063170     0.6411980
  H        1.6733330     1.6758980     0.4236460
  H        0.9069420     1.2477170    -1.1746190
  H       -1.1377290    -1.6353390     0.1563050
  H       -0.7014120    -0.7176330    -1.2773050
  H       -2.3027070     0.3979840     1.0988780
  H       -1.8634650     1.3083430    -0.3520570
  H       -2.9839190    -0.0602930    -0.4684290
units angstrom
no_reorient  #important for SAPT in psi4, default
symmetry c1  #important for SAPT in psi4, default
}

set PROPERTIES_ORIGIN ["COM"]
properties('MP2/aug-cc-pvtz', properties = ['dipole'])
--------------------------------------------------------------------------

    Molecular point group: c1
  Charge       = 0
  Multiplicity = 1
  Basis Set: AUG-CC-PVTZ
    Blend: AUG-CC-PVTZ
  Basis Set: (AUG-CC-PVTZ AUX)
    Blend: AUG-CC-PVTZ-JKFIT

    Orbital Energies [Eh]
    ---------------------

    Doubly Occupied:

       1A    -11.224389     2A    -11.220223     3A    -11.219920
       4A    -11.218910     5A    -11.210263     6A     -1.144167
       7A     -1.020646     8A     -0.866192     9A     -0.815811
      10A     -0.765633    11A     -0.665991    12A     -0.621486
      13A     -0.595153    14A     -0.551756    15A     -0.519584
      16A     -0.501620    17A     -0.490982    18A     -0.470741
      19A     -0.413385    20A     -0.396988

  @DF-RHF Final Energy:  -195.19622663185348

   => Energetics <=

    Nuclear Repulsion Energy =            179.6330758425542342
    One-Electron Energy =                -617.7909294224177756
    Two-Electron Energy =                 242.9616269480100357
    Total Energy =                       -195.1962266318534773
  Basis Set: (AUG-CC-PVTZ AUX)
    Blend: AUG-CC-PVTZ-RI
    Molecular point group: c1

    Geometry (in Angstrom), charge = 0, multiplicity = 1:

       Center              X                  Y                   Z               Mass
    ------------   -----------------  -----------------  -----------------  -----------------
         C            0.330712598297    -0.137825525397     0.466726579784    12.000000000000
         C            1.706425098297    -0.479175725397    -0.033753120216    12.000000000000
         C            1.182296598297     0.907975474603    -0.200618420216    12.000000000000
         C           -0.925954401703    -0.626218525397    -0.212391420216    12.000000000000
         C           -2.112395401703     0.307390474603     0.019170579784    12.000000000000
         H            0.258379598297    -0.063585525397     1.550950579784     1.007825032230
         H            1.717296598297    -1.114967525397    -0.971656420216     1.007825032230
         H            2.487400598297    -0.706336525397     0.629588579784     1.007825032230
         H            1.643295598297     1.675878474603     0.412036579784     1.007825032230
         H            0.876904598297     1.247697474603    -1.186228420216     1.007825032230
         H           -1.167766401703    -1.635358525397     0.144695579784     1.007825032230
         H           -0.731449401703    -0.717652525397    -1.288914420216     1.007825032230
         H           -2.332744401703     0.397964474603     1.087268579784     1.007825032230
         H           -1.893502401703     1.308323474603    -0.363666420216     1.007825032230
         H           -3.013956401703    -0.060312525397    -0.480038420216     1.007825032230

  Basis Set: AUG-CC-PVTZ
    Blend: AUG-CC-PVTZ
  Basis Set: (AUG-CC-PVTZ AUX)
    Blend: AUG-CC-PVTZ-JKFIT
	 Reference Energy          =    -195.1962266318534773 [Eh]
	 Singles Energy            =      -0.0000000000000000 [Eh]
	 Same-Spin Energy          =      -0.2101403483283278 [Eh]
	 Opposite-Spin Energy      =      -0.7638551594223959 [Eh]
	 Correlation Energy        =      -0.9739955077507237 [Eh]
	 Total Energy              =    -196.1702221396041921 [Eh]

	 ================> DF-SCS-MP2 Energies <==================
	-----------------------------------------------------------
	 SCS Same-Spin Scale       =       0.3333333333333333 [-]
	 SCS Opposite-Spin Scale   =       1.2000000000000000 [-]
	 SCS Same-Spin Energy      =      -0.0700467827761093 [Eh]
	 SCS Opposite-Spin Energy  =      -0.9166261913068751 [Eh]
	 SCS Correlation Energy    =      -0.9866729740829844 [Eh]
	 SCS Total Energy          =    -196.1828996059364556 [Eh]
	-----------------------------------------------------------

  Dipole Moment: [D]
     X:    -0.0833      Y:    -0.0512      Z:     0.0831     Total:     0.1283

*** Psi4 exiting successfully. Buy a developer a beer!
