                               Psi4 1.4a3.dev225

  ==> Input File <==

--------------------------------------------------------------------------
#psi4
#
memory 32 gb

molecule  {
0 1
  C        0.3607500    -0.1378060     0.4783360
  C        1.7144850    -0.5067070    -0.0610140
  C        1.2123340     0.9079950    -0.1890090
  C       -0.9375391    -0.6423751    -0.2232751
  C       -2.0823580     0.3074100     0.0307800
  H        0.2884170    -0.0635660     1.5625600
  H        1.7473340    -1.1149480    -0.9600470
  H        2.5174380    -0.7063170     0.6411980
  H        1.6733330     1.6758980     0.4236460
  H        0.9069420     1.2477170    -1.1746190
  H       -1.1377290    -1.6353390     0.1563050
  H       -0.7014120    -0.7176330    -1.2773050
  H       -2.3027070     0.3979840     1.0988780
  H       -1.8634650     1.3083430    -0.3520570
  H       -2.9839190    -0.0602930    -0.4684290
units angstrom
no_reorient  #important for SAPT in psi4, default
symmetry c1  #important for SAPT in psi4, default
}

set PROPERTIES_ORIGIN ["COM"]
properties('MP2/aug-cc-pvtz', properties = ['dipole'])
--------------------------------------------------------------------------

    Molecular point group: c1
  Charge       = 0
  Multiplicity = 1
  Basis Set: AUG-CC-PVTZ
    Blend: AUG-CC-PVTZ
  Basis Set: (AUG-CC-PVTZ AUX)
    Blend: AUG-CC-PVTZ-JKFIT

    Orbital Energies [Eh]
    ---------------------

    Doubly Occupied:

       1A    -11.226076     2A    -11.219101     3A    -11.218890
       4A    -11.218255     5A    -11.209355     6A     -1.138600
       7A     -1.022238     8A     -0.860925     9A     -0.815213
      10A     -0.767382    11A     -0.661035    12A     -0.620571
      13A     -0.597225    14A     -0.551779    15A     -0.524981
      16A     -0.506472    17A     -0.491911    18A     -0.461901
      19A     -0.407304    20A     -0.401521

  @DF-RHF Final Energy:  -195.19752917367683

   => Energetics <=

    Nuclear Repulsion Energy =            179.1706832506544913
    One-Electron Energy =                -616.8949546429249722
    Two-Electron Energy =                 242.5267422185936255
    Total Energy =                       -195.1975291736768270
  Basis Set: (AUG-CC-PVTZ AUX)
    Blend: AUG-CC-PVTZ-RI
    Molecular point group: c1

    Geometry (in Angstrom), charge = 0, multiplicity = 1:

       Center              X                  Y                   Z               Mass
    ------------   -----------------  -----------------  -----------------  -----------------
         C            0.341603212667    -0.130337855576     0.477234273635    12.000000000000
         C            1.695338212667    -0.499238855576    -0.062115726365    12.000000000000
         C            1.193187212667     0.915463144424    -0.190110726365    12.000000000000
         C           -0.956685887333    -0.634906955576    -0.224376826365    12.000000000000
         C           -2.101504787333     0.314878144424     0.029678273635    12.000000000000
         H            0.269270212667    -0.056097855576     1.561458273635     1.007825032230
         H            1.728187212667    -1.107479855576    -0.961148726365     1.007825032230
         H            2.498291212667    -0.698848855576     0.640096273635     1.007825032230
         H            1.654186212667     1.683366144424     0.422544273635     1.007825032230
         H            0.887795212667     1.255185144424    -1.175720726365     1.007825032230
         H           -1.156875787333    -1.627870855576     0.155203273635     1.007825032230
         H           -0.720558787333    -0.710164855576    -1.278406726365     1.007825032230
         H           -2.321853787333     0.405452144424     1.097776273635     1.007825032230
         H           -1.882611787333     1.315811144424    -0.353158726365     1.007825032230
         H           -3.003065787333    -0.052824855576    -0.469530726365     1.007825032230

  Basis Set: AUG-CC-PVTZ
    Blend: AUG-CC-PVTZ
  Basis Set: (AUG-CC-PVTZ AUX)
    Blend: AUG-CC-PVTZ-JKFIT
	 Reference Energy          =    -195.1975291736768270 [Eh]
	 Singles Energy            =      -0.0000000000000000 [Eh]
	 Same-Spin Energy          =      -0.2099031513931543 [Eh]
	 Opposite-Spin Energy      =      -0.7636806307348221 [Eh]
	 Correlation Energy        =      -0.9735837821279764 [Eh]
	 Total Energy              =    -196.1711129558048015 [Eh]

	 ================> DF-SCS-MP2 Energies <==================
	-----------------------------------------------------------
	 SCS Same-Spin Scale       =       0.3333333333333333 [-]
	 SCS Opposite-Spin Scale   =       1.2000000000000000 [-]
	 SCS Same-Spin Energy      =      -0.0699677171310514 [Eh]
	 SCS Opposite-Spin Energy  =      -0.9164167568817865 [Eh]
	 SCS Correlation Energy    =      -0.9863844740128379 [Eh]
	 SCS Total Energy          =    -196.1839136476896783 [Eh]
	-----------------------------------------------------------

  Dipole Moment: [D]
     X:    -0.1233      Y:    -0.0670      Z:     0.0648     Total:     0.1545

*** Psi4 exiting successfully. Buy a developer a beer!
