                               Psi4 1.3.2 release

  ==> Input File <==

--------------------------------------------------------------------------
#psi4
#
memory 32 gb

molecule  {
0 1
  C        0.3607500    -0.1378060     0.4783360
  C        1.6734622    -0.5013542    -0.1574347
  C        1.2123340     0.9079950    -0.1890090
  C       -0.8959170    -0.6261990    -0.2007820
  C       -2.0823580     0.3074100     0.0307800
  H        0.2884170    -0.0635660     1.5625600
  H        1.7473340    -1.1149480    -0.9600470
  H        2.5174380    -0.7063170     0.6411980
  H        1.6733330     1.6758980     0.4236460
  H        0.9069420     1.2477170    -1.1746190
  H       -1.1377290    -1.6353390     0.1563050
  H       -0.7014120    -0.7176330    -1.2773050
  H       -2.3027070     0.3979840     1.0988780
  H       -1.8634650     1.3083430    -0.3520570
  H       -2.9839190    -0.0602930    -0.4684290
units angstrom
no_reorient  #important for SAPT in psi4, default
symmetry c1  #important for SAPT in psi4, default
}

set PROPERTIES_ORIGIN ["COM"]
properties('MP2/aug-cc-pvtz', properties = ['dipole'])
--------------------------------------------------------------------------

    Molecular point group: c1
  Charge       = 0
  Multiplicity = 1
  Basis Set: AUG-CC-PVTZ
    Blend: AUG-CC-PVTZ
  Basis Set: (AUG-CC-PVTZ AUX)
    Blend: AUG-CC-PVTZ-JKFIT

    Orbital Energies [Eh]
    ---------------------

    Doubly Occupied:

       1A    -11.224640     2A    -11.220701     3A    -11.219628
       4A    -11.218694     5A    -11.208742     6A     -1.146991
       7A     -1.019190     8A     -0.865719     9A     -0.818546
      10A     -0.769542    11A     -0.656416    12A     -0.635054
      13A     -0.588757    14A     -0.553925    15A     -0.520885
      16A     -0.503985    17A     -0.484134    18A     -0.471113
      19A     -0.415786    20A     -0.393081

  @DF-RHF Final Energy:  -195.18673396104015

   => Energetics <=

    Nuclear Repulsion Energy =            180.0379885610498434
    One-Electron Energy =                -618.5783872080622814
    Two-Electron Energy =                 243.3536646859723191
    Total Energy =                       -195.1867339610401473
  Basis Set: (AUG-CC-PVTZ AUX)
    Blend: AUG-CC-PVTZ-RI
    Molecular point group: c1

    Geometry (in Angstrom), charge = 0, multiplicity = 1:

       Center              X                  Y                   Z               Mass
    ------------   -----------------  -----------------  -----------------  -----------------
         C            0.341500590242    -0.134024403097     0.489893425311    12.000000000000
         C            1.654212790242    -0.497572603097    -0.145877274689    12.000000000000
         C            1.193084590242     0.911776596903    -0.177451574689    12.000000000000
         C           -0.915166409758    -0.622417403097    -0.189224574689    12.000000000000
         C           -2.101607409758     0.311191596903     0.042337425311    12.000000000000
         H            0.269167590242    -0.059784403097     1.574117425311     1.007825032230
         H            1.728084590242    -1.111166403097    -0.948489574689     1.007825032230
         H            2.498188590242    -0.702535403097     0.652755425311     1.007825032230
         H            1.654083590242     1.679679596903     0.435203425311     1.007825032230
         H            0.887692590242     1.251498596903    -1.163061574689     1.007825032230
         H           -1.156978409758    -1.631557403097     0.167862425311     1.007825032230
         H           -0.720661409758    -0.713851403097    -1.265747574689     1.007825032230
         H           -2.321956409758     0.401765596903     1.110435425311     1.007825032230
         H           -1.882714409758     1.312124596903    -0.340499574689     1.007825032230
         H           -3.003168409758    -0.056511403097    -0.456871574689     1.007825032230

  Basis Set: AUG-CC-PVTZ
    Blend: AUG-CC-PVTZ
  Basis Set: (AUG-CC-PVTZ AUX)
    Blend: AUG-CC-PVTZ-JKFIT
	 Reference Energy          =    -195.1867339610401473 [Eh]
	 Singles Energy            =      -0.0000000000000000 [Eh]
	 Same-Spin Energy          =      -0.2102655048511152 [Eh]
	 Opposite-Spin Energy      =      -0.7643388940645297 [Eh]
	 Correlation Energy        =      -0.9746043989156450 [Eh]
	 Total Energy              =    -196.1613383599558063 [Eh]

	 ================> DF-SCS-MP2 Energies <==================
	-----------------------------------------------------------
	 SCS Same-Spin Scale       =       0.3333333333333333 [-]
	 SCS Opposite-Spin Scale   =       1.2000000000000000 [-]
	 SCS Same-Spin Energy      =      -0.0700885016170384 [Eh]
	 SCS Opposite-Spin Energy  =      -0.9172066728774356 [Eh]
	 SCS Correlation Energy    =      -0.9872951744944740 [Eh]
	 SCS Total Energy          =    -196.1740291355346244 [Eh]
	-----------------------------------------------------------

  Dipole Moment: [D]
     X:    -0.0946      Y:    -0.0453      Z:     0.0234     Total:     0.1074

*** Psi4 exiting successfully. Buy a developer a beer!
