                               Psi4 1.3.2 release

  ==> Input File <==

--------------------------------------------------------------------------
#psi4
#
memory 32 gb

molecule  {
0 1
  C        0.3607500    -0.1378060     0.4783360
  C        1.7753645    -0.4228410     0.0573780
  C        1.2123340     0.9079950    -0.1890090
  C       -0.8959170    -0.6261990    -0.2007820
  C       -2.0823580     0.3074100     0.0307800
  H        0.2884170    -0.0635660     1.5625600
  H        1.7473340    -1.1149480    -0.9600470
  H        2.5174380    -0.7063170     0.6411980
  H        1.6733330     1.6758980     0.4236460
  H        0.9069420     1.2477170    -1.1746190
  H       -1.1377290    -1.6353390     0.1563050
  H       -0.7014120    -0.7176330    -1.2773050
  H       -2.3027070     0.3979840     1.0988780
  H       -1.8634650     1.3083430    -0.3520570
  H       -2.9839190    -0.0602930    -0.4684290
units angstrom
no_reorient  #important for SAPT in psi4, default
symmetry c1  #important for SAPT in psi4, default
}

set PROPERTIES_ORIGIN ["COM"]
properties('MP2/aug-cc-pvtz', properties = ['dipole'])
--------------------------------------------------------------------------

    Molecular point group: c1
  Charge       = 0
  Multiplicity = 1
  Basis Set: AUG-CC-PVTZ
    Blend: AUG-CC-PVTZ
  Basis Set: (AUG-CC-PVTZ AUX)
    Blend: AUG-CC-PVTZ-JKFIT

    Orbital Energies [Eh]
    ---------------------

    Doubly Occupied:

       1A    -11.224783     2A    -11.223074     3A    -11.221785
       4A    -11.220094     5A    -11.211444     6A     -1.148927
       7A     -1.023307     8A     -0.868247     9A     -0.820675
      10A     -0.766262    11A     -0.672255    12A     -0.624276
      13A     -0.597216    14A     -0.553780    15A     -0.519726
      16A     -0.496504    17A     -0.485256    18A     -0.469129
      19A     -0.418903    20A     -0.390848

  @DF-RHF Final Energy:  -195.17232397568623

   => Energetics <=

    Nuclear Repulsion Energy =            179.6768967437760693
    One-Electron Energy =                -617.7854603955793209
    Two-Electron Energy =                 242.9362396761170260
    Total Energy =                       -195.1723239756862256
  Basis Set: (AUG-CC-PVTZ AUX)
    Blend: AUG-CC-PVTZ-RI
    Molecular point group: c1

    Geometry (in Angstrom), charge = 0, multiplicity = 1:

       Center              X                  Y                   Z               Mass
    ------------   -----------------  -----------------  -----------------  -----------------
         C            0.324051130611    -0.147468779857     0.453109510357    12.000000000000
         C            1.738665630611    -0.432503779857     0.032151510357    12.000000000000
         C            1.175635130611     0.898332220143    -0.214235489643    12.000000000000
         C           -0.932615869389    -0.635861779857    -0.226008489643    12.000000000000
         C           -2.119056869389     0.297747220143     0.005553510357    12.000000000000
         H            0.251718130611    -0.073228779857     1.537333510357     1.007825032230
         H            1.710635130611    -1.124610779857    -0.985273489643     1.007825032230
         H            2.480739130611    -0.715979779857     0.615971510357     1.007825032230
         H            1.636634130611     1.666235220143     0.398419510357     1.007825032230
         H            0.870243130611     1.238054220143    -1.199845489643     1.007825032230
         H           -1.174427869389    -1.645001779857     0.131078510357     1.007825032230
         H           -0.738110869389    -0.727295779857    -1.302531489643     1.007825032230
         H           -2.339405869389     0.388321220143     1.073651510357     1.007825032230
         H           -1.900163869389     1.298680220143    -0.377283489643     1.007825032230
         H           -3.020617869389    -0.069955779857    -0.493655489643     1.007825032230

  Basis Set: AUG-CC-PVTZ
    Blend: AUG-CC-PVTZ
  Basis Set: (AUG-CC-PVTZ AUX)
    Blend: AUG-CC-PVTZ-JKFIT
	 Reference Energy          =    -195.1723239756862256 [Eh]
	 Singles Energy            =      -0.0000000000000000 [Eh]
	 Same-Spin Energy          =      -0.2105681397018674 [Eh]
	 Opposite-Spin Energy      =      -0.7649232601588540 [Eh]
	 Correlation Energy        =      -0.9754913998607215 [Eh]
	 Total Energy              =    -196.1478153755469407 [Eh]

	 ================> DF-SCS-MP2 Energies <==================
	-----------------------------------------------------------
	 SCS Same-Spin Scale       =       0.3333333333333333 [-]
	 SCS Opposite-Spin Scale   =       1.2000000000000000 [-]
	 SCS Same-Spin Energy      =      -0.0701893799006225 [Eh]
	 SCS Opposite-Spin Energy  =      -0.9179079121906248 [Eh]
	 SCS Correlation Energy    =      -0.9880972920912473 [Eh]
	 SCS Total Energy          =    -196.1604212677774797 [Eh]
	-----------------------------------------------------------

  Dipole Moment: [D]
     X:    -0.1057      Y:    -0.0054      Z:     0.1308     Total:     0.1682

*** Psi4 exiting successfully. Buy a developer a beer!
