                               Psi4 1.3.2 release

  ==> Input File <==

--------------------------------------------------------------------------
#psi4
#
memory 32 gb

molecule  {
0 1
  O        2.3113770    -0.3374580     0.0558470
  N        1.1235143     0.3236051    -0.3459284
  C       -1.1987920     0.6023930     0.1340090
  C       -2.2229840    -0.4847570    -0.2038870
  C        0.1526050     0.0245260     0.4043250
  H       -1.5334920     1.1612300     1.0167400
  H       -1.1079080     1.3161780    -0.6902320
  H       -1.9266320    -1.0220700    -1.1084710
  H       -2.3096210    -1.2114710     0.6092880
  H       -3.2110640    -0.0477540    -0.3721170
  H        0.2980470    -0.6712980     1.2352290
  H        2.9626180    -0.0188780    -0.5933990
units angstrom
no_reorient  #important for SAPT in psi4, default
symmetry c1  #important for SAPT in psi4, default
}

set PROPERTIES_ORIGIN ["COM"]
properties('MP2/aug-cc-pvtz', properties = ['dipole'])
--------------------------------------------------------------------------

    Molecular point group: c1
  Charge       = 0
  Multiplicity = 1
  Basis Set: AUG-CC-PVTZ
    Blend: AUG-CC-PVTZ
  Basis Set: (AUG-CC-PVTZ AUX)
    Blend: AUG-CC-PVTZ-JKFIT

    Orbital Energies [Eh]
    ---------------------

    Doubly Occupied:

       1A    -20.593426     2A    -15.619226     3A    -11.272921
       4A    -11.239337     5A    -11.227147     6A     -1.410739
       7A     -1.168677     8A     -1.038983     9A     -0.880703
      10A     -0.772135    11A     -0.707051    12A     -0.654271
      13A     -0.617103    14A     -0.586692    15A     -0.582819
      16A     -0.533295    17A     -0.513167    18A     -0.500709
      19A     -0.438344    20A     -0.391392

  @DF-RHF Final Energy:  -247.01711171011917

   => Energetics <=

    Nuclear Repulsion Energy =            171.0783034824894173
    One-Electron Energy =                -674.6945532111963075
    Two-Electron Energy =                 256.5991380185877233
    Total Energy =                       -247.0171117101191385
  Basis Set: (AUG-CC-PVTZ AUX)
    Blend: AUG-CC-PVTZ-RI
    Molecular point group: c1

    Geometry (in Angstrom), charge = 0, multiplicity = 1:

       Center              X                  Y                   Z               Mass
    ------------   -----------------  -----------------  -----------------  -----------------
         O            2.221149093727    -0.342137757328     0.053651760171    15.994914619570
         N            1.033286393727     0.318925342672    -0.348123639829    14.003074004430
         C           -1.289019906273     0.597713242672     0.131813760171    12.000000000000
         C           -2.313211906273    -0.489436757328    -0.206082239829    12.000000000000
         C            0.062377093727     0.019846242672     0.402129760171    12.000000000000
         H           -1.623719906273     1.156550242672     1.014544760171     1.007825032230
         H           -1.198135906273     1.311498242672    -0.692427239829     1.007825032230
         H           -2.016859906273    -1.026749757328    -1.110666239829     1.007825032230
         H           -2.399848906273    -1.216150757328     0.607092760171     1.007825032230
         H           -3.301291906273    -0.052433757328    -0.374312239829     1.007825032230
         H            0.207819093727    -0.675977757328     1.233033760171     1.007825032230
         H            2.872390093727    -0.023557757328    -0.595594239829     1.007825032230

  Basis Set: AUG-CC-PVTZ
    Blend: AUG-CC-PVTZ
  Basis Set: (AUG-CC-PVTZ AUX)
    Blend: AUG-CC-PVTZ-JKFIT
	 Reference Energy          =    -247.0171117101191669 [Eh]
	 Singles Energy            =      -0.0000000000000000 [Eh]
	 Same-Spin Energy          =      -0.2449499798853323 [Eh]
	 Opposite-Spin Energy      =      -0.8174206949567014 [Eh]
	 Correlation Energy        =      -1.0623706748420338 [Eh]
	 Total Energy              =    -248.0794823849612101 [Eh]

	 ================> DF-SCS-MP2 Energies <==================
	-----------------------------------------------------------
	 SCS Same-Spin Scale       =       0.3333333333333333 [-]
	 SCS Opposite-Spin Scale   =       1.2000000000000000 [-]
	 SCS Same-Spin Energy      =      -0.0816499932951108 [Eh]
	 SCS Opposite-Spin Energy  =      -0.9809048339480417 [Eh]
	 SCS Correlation Energy    =      -1.0625548272431524 [Eh]
	 SCS Total Energy          =    -248.0796665373623284 [Eh]
	-----------------------------------------------------------

  Dipole Moment: [D]
     X:    -0.9448      Y:     0.0647      Z:     0.1338     Total:     0.9565

*** Psi4 exiting successfully. Buy a developer a beer!
