                               Psi4 1.3.2 release

  ==> Input File <==

--------------------------------------------------------------------------
#psi4
#
memory 32 gb

molecule  {
0 1
  O        2.3113770    -0.3374580     0.0558470
  N        1.3018400     0.2396034    -0.3050702
  C       -1.1987920     0.6023930     0.1340090
  C       -2.2229840    -0.4847570    -0.2038870
  C        0.1526050     0.0245260     0.4043250
  H       -1.5334920     1.1612300     1.0167400
  H       -1.1079080     1.3161780    -0.6902320
  H       -1.9266320    -1.0220700    -1.1084710
  H       -2.3096210    -1.2114710     0.6092880
  H       -3.2110640    -0.0477540    -0.3721170
  H        0.2980470    -0.6712980     1.2352290
  H        2.9626180    -0.0188780    -0.5933990
units angstrom
no_reorient  #important for SAPT in psi4, default
symmetry c1  #important for SAPT in psi4, default
}

set PROPERTIES_ORIGIN ["COM"]
properties('MP2/aug-cc-pvtz', properties = ['dipole'])
--------------------------------------------------------------------------

    Molecular point group: c1
  Charge       = 0
  Multiplicity = 1
  Basis Set: AUG-CC-PVTZ
    Blend: AUG-CC-PVTZ
  Basis Set: (AUG-CC-PVTZ AUX)
    Blend: AUG-CC-PVTZ-JKFIT

    Orbital Energies [Eh]
    ---------------------

    Doubly Occupied:

       1A    -20.621180     2A    -15.627103     3A    -11.263021
       4A    -11.235607     5A    -11.220568     6A     -1.538286
       7A     -1.116299     8A     -1.029010     9A     -0.883988
      10A     -0.790432    11A     -0.747878    12A     -0.682459
      13A     -0.650274    14A     -0.611053    15A     -0.578411
      16A     -0.530447    17A     -0.505851    18A     -0.494459
      19A     -0.417250    20A     -0.335730

  @DF-RHF Final Energy:  -246.97729366702097

   => Energetics <=

    Nuclear Repulsion Energy =            172.1736433666813184
    One-Electron Energy =                -676.5432662444460448
    Two-Electron Energy =                 257.3923292107438101
    Total Energy =                       -246.9772936670209447
  Basis Set: (AUG-CC-PVTZ AUX)
    Blend: AUG-CC-PVTZ-RI
    Molecular point group: c1

    Geometry (in Angstrom), charge = 0, multiplicity = 1:

       Center              X                  Y                   Z               Mass
    ------------   -----------------  -----------------  -----------------  -----------------
         O            2.186966841853    -0.326035943247     0.045819881292    15.994914619570
         N            1.177429841853     0.251025456753    -0.315097318708    14.003074004430
         C           -1.323202158147     0.613815056753     0.123981881292    12.000000000000
         C           -2.347394158147    -0.473334943247    -0.213914118708    12.000000000000
         C            0.028194841853     0.035948056753     0.394297881292    12.000000000000
         H           -1.657902158147     1.172652056753     1.006712881292     1.007825032230
         H           -1.232318158147     1.327600056753    -0.700259118708     1.007825032230
         H           -2.051042158147    -1.010647943247    -1.118498118708     1.007825032230
         H           -2.434031158147    -1.200048943247     0.599260881292     1.007825032230
         H           -3.335474158147    -0.036331943247    -0.382144118708     1.007825032230
         H            0.173636841853    -0.659875943247     1.225201881292     1.007825032230
         H            2.838207841853    -0.007455943247    -0.603426118708     1.007825032230

  Basis Set: AUG-CC-PVTZ
    Blend: AUG-CC-PVTZ
  Basis Set: (AUG-CC-PVTZ AUX)
    Blend: AUG-CC-PVTZ-JKFIT
	 Reference Energy          =    -246.9772936670209731 [Eh]
	 Singles Energy            =      -0.0000000000000000 [Eh]
	 Same-Spin Energy          =      -0.2473046642849922 [Eh]
	 Opposite-Spin Energy      =      -0.8182669758660384 [Eh]
	 Correlation Energy        =      -1.0655716401510307 [Eh]
	 Total Energy              =    -248.0428653071720078 [Eh]

	 ================> DF-SCS-MP2 Energies <==================
	-----------------------------------------------------------
	 SCS Same-Spin Scale       =       0.3333333333333333 [-]
	 SCS Opposite-Spin Scale   =       1.2000000000000000 [-]
	 SCS Same-Spin Energy      =      -0.0824348880949974 [Eh]
	 SCS Opposite-Spin Energy  =      -0.9819203710392460 [Eh]
	 SCS Correlation Energy    =      -1.0643552591342433 [Eh]
	 SCS Total Energy          =    -248.0416489261552044 [Eh]
	-----------------------------------------------------------

  Dipole Moment: [D]
     X:     0.0629      Y:    -0.0271      Z:    -0.0785     Total:     0.1042

*** Psi4 exiting successfully. Buy a developer a beer!
