                               Psi4 1.3.2 release

  ==> Input File <==

--------------------------------------------------------------------------
#psi4
#
memory 32 gb

molecule  {
0 1
  O        2.2579337    -0.3782752     0.1284251
  N        1.1360090     0.3343940    -0.3643560
  C       -1.1987920     0.6023930     0.1340090
  C       -2.2229840    -0.4847570    -0.2038870
  C        0.1526050     0.0245260     0.4043250
  H       -1.5334920     1.1612300     1.0167400
  H       -1.1079080     1.3161780    -0.6902320
  H       -1.9266320    -1.0220700    -1.1084710
  H       -2.3096210    -1.2114710     0.6092880
  H       -3.2110640    -0.0477540    -0.3721170
  H        0.2980470    -0.6712980     1.2352290
  H        2.9626180    -0.0188780    -0.5933990
units angstrom
no_reorient  #important for SAPT in psi4, default
symmetry c1  #important for SAPT in psi4, default
}

set PROPERTIES_ORIGIN ["COM"]
properties('MP2/aug-cc-pvtz', properties = ['dipole'])
--------------------------------------------------------------------------

    Molecular point group: c1
  Charge       = 0
  Multiplicity = 1
  Basis Set: AUG-CC-PVTZ
    Blend: AUG-CC-PVTZ
  Basis Set: (AUG-CC-PVTZ AUX)
    Blend: AUG-CC-PVTZ-JKFIT

    Orbital Energies [Eh]
    ---------------------

    Doubly Occupied:

       1A    -20.599178     2A    -15.621481     3A    -11.275468
       4A    -11.238516     5A    -11.226954     6A     -1.401016
       7A     -1.149178     8A     -1.034865     9A     -0.878751
      10A     -0.775042    11A     -0.681218    12A     -0.654334
      13A     -0.610523    14A     -0.584003    15A     -0.577454
      16A     -0.529716    17A     -0.506862    18A     -0.500398
      19A     -0.449990    20A     -0.383020

  @DF-RHF Final Energy:  -246.99880365816671

   => Energetics <=

    Nuclear Repulsion Energy =            170.7987517645303797
    One-Electron Energy =                -674.2391789382278375
    Two-Electron Energy =                 256.4416235155307504
    Total Energy =                       -246.9988036581667075
  Basis Set: (AUG-CC-PVTZ AUX)
    Blend: AUG-CC-PVTZ-RI
    Molecular point group: c1

    Geometry (in Angstrom), charge = 0, multiplicity = 1:

       Center              X                  Y                   Z               Mass
    ------------   -----------------  -----------------  -----------------  -----------------
         O            2.177012174155    -0.376086088342     0.113871156425    15.994914619570
         N            1.055087474155     0.336583111658    -0.378909943575    14.003074004430
         C           -1.279713525845     0.604582111658     0.119455056425    12.000000000000
         C           -2.303905525845    -0.482567888342    -0.218440943575    12.000000000000
         C            0.071683474155     0.026715111658     0.389771056425    12.000000000000
         H           -1.614413525845     1.163419111658     1.002186056425     1.007825032230
         H           -1.188829525845     1.318367111658    -0.704785943575     1.007825032230
         H           -2.007553525845    -1.019880888342    -1.123024943575     1.007825032230
         H           -2.390542525845    -1.209281888342     0.594734056425     1.007825032230
         H           -3.291985525845    -0.045564888342    -0.386670943575     1.007825032230
         H            0.217125474155    -0.669108888342     1.220675056425     1.007825032230
         H            2.881696474155    -0.016688888342    -0.607952943575     1.007825032230

  Basis Set: AUG-CC-PVTZ
    Blend: AUG-CC-PVTZ
  Basis Set: (AUG-CC-PVTZ AUX)
    Blend: AUG-CC-PVTZ-JKFIT
	 Reference Energy          =    -246.9988036581667075 [Eh]
	 Singles Energy            =      -0.0000000000000000 [Eh]
	 Same-Spin Energy          =      -0.2470930000190437 [Eh]
	 Opposite-Spin Energy      =      -0.8231166047797309 [Eh]
	 Correlation Energy        =      -1.0702096047987746 [Eh]
	 Total Energy              =    -248.0690132629654840 [Eh]

	 ================> DF-SCS-MP2 Energies <==================
	-----------------------------------------------------------
	 SCS Same-Spin Scale       =       0.3333333333333333 [-]
	 SCS Opposite-Spin Scale   =       1.2000000000000000 [-]
	 SCS Same-Spin Energy      =      -0.0823643333396812 [Eh]
	 SCS Opposite-Spin Energy  =      -0.9877399257356770 [Eh]
	 SCS Correlation Energy    =      -1.0701042590753582 [Eh]
	 SCS Total Energy          =    -248.0689079172420577 [Eh]
	-----------------------------------------------------------

  Dipole Moment: [D]
     X:    -0.8746      Y:     0.0906      Z:     0.0820     Total:     0.8831

*** Psi4 exiting successfully. Buy a developer a beer!
