                               Psi4 1.3.2 release

  ==> Input File <==

--------------------------------------------------------------------------
#psi4
#
memory 32 gb

molecule  {
0 1
  O        2.3590941    -0.2933676    -0.0187783
  N        1.1360090     0.3343940    -0.3643560
  C       -1.1987920     0.6023930     0.1340090
  C       -2.2229840    -0.4847570    -0.2038870
  C        0.1526050     0.0245260     0.4043250
  H       -1.5334920     1.1612300     1.0167400
  H       -1.1079080     1.3161780    -0.6902320
  H       -1.9266320    -1.0220700    -1.1084710
  H       -2.3096210    -1.2114710     0.6092880
  H       -3.2110640    -0.0477540    -0.3721170
  H        0.2980470    -0.6712980     1.2352290
  H        2.9626180    -0.0188780    -0.5933990
units angstrom
no_reorient  #important for SAPT in psi4, default
symmetry c1  #important for SAPT in psi4, default
}

set PROPERTIES_ORIGIN ["COM"]
properties('MP2/aug-cc-pvtz', properties = ['dipole'])
--------------------------------------------------------------------------

    Molecular point group: c1
  Charge       = 0
  Multiplicity = 1
  Basis Set: AUG-CC-PVTZ
    Blend: AUG-CC-PVTZ
  Basis Set: (AUG-CC-PVTZ AUX)
    Blend: AUG-CC-PVTZ-JKFIT

    Orbital Energies [Eh]
    ---------------------

    Doubly Occupied:

       1A    -20.584418     2A    -15.624924     3A    -11.279952
       4A    -11.241121     5A    -11.228071     6A     -1.424430
       7A     -1.172263     8A     -1.041638     9A     -0.885324
      10A     -0.776096    11A     -0.727472    12A     -0.653662
      13A     -0.620195    14A     -0.589606    15A     -0.583370
      16A     -0.535644    17A     -0.515323    18A     -0.501696
      19A     -0.435819    20A     -0.389086

  @DF-RHF Final Energy:  -247.01004306204410

   => Energetics <=

    Nuclear Repulsion Energy =            170.6298343174102570
    One-Electron Energy =                -673.6595359276504951
    Two-Electron Energy =                 256.0196585481961620
    Total Energy =                       -247.0100430620440761
  Basis Set: (AUG-CC-PVTZ AUX)
    Blend: AUG-CC-PVTZ-RI
    Molecular point group: c1

    Geometry (in Angstrom), charge = 0, multiplicity = 1:

       Center              X                  Y                   Z               Mass
    ------------   -----------------  -----------------  -----------------  -----------------
         O            2.256023487993    -0.309769021280    -0.001102035015    15.994914619570
         N            1.032938387993     0.317992578720    -0.346679735015    14.003074004430
         C           -1.301862612007     0.585991578720     0.151685264985    12.000000000000
         C           -2.326054612007    -0.501158421280    -0.186210735015    12.000000000000
         C            0.049534387993     0.008124578720     0.422001264985    12.000000000000
         H           -1.636562612007     1.144828578720     1.034416264985     1.007825032230
         H           -1.210978612007     1.299776578720    -0.672555735015     1.007825032230
         H           -2.029702612007    -1.038471421280    -1.090794735015     1.007825032230
         H           -2.412691612007    -1.227872421280     0.626964264985     1.007825032230
         H           -3.314134612007    -0.064155421280    -0.354440735015     1.007825032230
         H            0.194976387993    -0.687699421280     1.252905264985     1.007825032230
         H            2.859547387993    -0.035279421280    -0.575722735015     1.007825032230

  Basis Set: AUG-CC-PVTZ
    Blend: AUG-CC-PVTZ
  Basis Set: (AUG-CC-PVTZ AUX)
    Blend: AUG-CC-PVTZ-JKFIT
	 Reference Energy          =    -247.0100430620441045 [Eh]
	 Singles Energy            =      -0.0000000000000000 [Eh]
	 Same-Spin Energy          =      -0.2439982336756364 [Eh]
	 Opposite-Spin Energy      =      -0.8153419245951551 [Eh]
	 Correlation Energy        =      -1.0593401582707915 [Eh]
	 Total Energy              =    -248.0693832203149043 [Eh]

	 ================> DF-SCS-MP2 Energies <==================
	-----------------------------------------------------------
	 SCS Same-Spin Scale       =       0.3333333333333333 [-]
	 SCS Opposite-Spin Scale   =       1.2000000000000000 [-]
	 SCS Same-Spin Energy      =      -0.0813327445585454 [Eh]
	 SCS Opposite-Spin Energy  =      -0.9784103095141861 [Eh]
	 SCS Correlation Energy    =      -1.0597430540727315 [Eh]
	 SCS Total Energy          =    -248.0697861161168305 [Eh]
	-----------------------------------------------------------

  Dipole Moment: [D]
     X:    -1.0310      Y:     0.0122      Z:     0.2253     Total:     1.0554

*** Psi4 exiting successfully. Buy a developer a beer!
