                               Psi4 1.4a3.dev225

  ==> Input File <==

--------------------------------------------------------------------------
#psi4
#
memory 32 gb

molecule  {
0 1
  O        2.3113080    -0.3373280     0.0560680
  N        1.1524489     0.3244057    -0.3588184
  C       -1.1988180     0.6025260     0.1336480
  C       -2.2227880    -0.4850450    -0.2036580
  C        0.1526150     0.0250550     0.4045550
  H       -1.5338160     1.1619340     1.0159040
  H       -1.1079660     1.3157390    -0.6910980
  H       -1.9258830    -1.0232670    -1.1075140
  H       -2.3098400    -1.2108550     0.6102710
  H       -3.2107560    -0.0481840    -0.3728900
  H        0.2982470    -0.6695660     1.2364510
  H        2.9624570    -0.0195260    -0.5936430
units angstrom
no_reorient  #important for SAPT in psi4, default
symmetry c1  #important for SAPT in psi4, default
}

set PROPERTIES_ORIGIN ["COM"]
properties('MP2/aug-cc-pvtz', properties = ['dipole'])
--------------------------------------------------------------------------

    Molecular point group: c1
  Charge       = 0
  Multiplicity = 1
  Basis Set: AUG-CC-PVTZ
    Blend: AUG-CC-PVTZ
  Basis Set: (AUG-CC-PVTZ AUX)
    Blend: AUG-CC-PVTZ-JKFIT

    Orbital Energies [Eh]
    ---------------------

    Doubly Occupied:

       1A    -20.594977     2A    -15.622523     3A    -11.276405
       4A    -11.239533     5A    -11.226996     6A     -1.419350
       7A     -1.155522     8A     -1.037378     9A     -0.881406
      10A     -0.774073    11A     -0.706665    12A     -0.657559
      13A     -0.616291    14A     -0.587027    15A     -0.584741
      16A     -0.532863    17A     -0.511654    18A     -0.500560
      19A     -0.441459    20A     -0.381456

  @DF-RHF Final Energy:  -247.01518139467206

   => Energetics <=

    Nuclear Repulsion Energy =            170.7633946948938899
    One-Electron Energy =                -674.0602795143747699
    Two-Electron Energy =                 256.2817034248088248
    Total Energy =                       -247.0151813946720267
  Basis Set: (AUG-CC-PVTZ AUX)
    Blend: AUG-CC-PVTZ-RI
    Molecular point group: c1

    Geometry (in Angstrom), charge = 0, multiplicity = 1:

       Center              X                  Y                   Z               Mass
    ------------   -----------------  -----------------  -----------------  -----------------
         O            2.215512493708    -0.342255781411     0.056272974373    15.994914619570
         N            1.056653393708     0.319477918589    -0.358613425627    14.003074004430
         C           -1.294613506292     0.597598218589     0.133852974373    12.000000000000
         C           -2.318583506292    -0.489972781411    -0.203453025627    12.000000000000
         C            0.056819493708     0.020127218589     0.404759974373    12.000000000000
         H           -1.629611506292     1.157006218589     1.016108974373     1.007825032230
         H           -1.203761506292     1.310811218589    -0.690893025627     1.007825032230
         H           -2.021678506292    -1.028194781411    -1.107309025627     1.007825032230
         H           -2.405635506292    -1.215782781411     0.610475974373     1.007825032230
         H           -3.306551506292    -0.053111781411    -0.372685025627     1.007825032230
         H            0.202451493708    -0.674493781411     1.236655974373     1.007825032230
         H            2.866661493708    -0.024453781411    -0.593438025627     1.007825032230

  Basis Set: AUG-CC-PVTZ
    Blend: AUG-CC-PVTZ
  Basis Set: (AUG-CC-PVTZ AUX)
    Blend: AUG-CC-PVTZ-JKFIT
	 Reference Energy          =    -247.0151813946720551 [Eh]
	 Singles Energy            =      -0.0000000000000000 [Eh]
	 Same-Spin Energy          =      -0.2454966146157873 [Eh]
	 Opposite-Spin Energy      =      -0.8185398339475609 [Eh]
	 Correlation Energy        =      -1.0640364485633482 [Eh]
	 Total Energy              =    -248.0792178432353978 [Eh]

	 ================> DF-SCS-MP2 Energies <==================
	-----------------------------------------------------------
	 SCS Same-Spin Scale       =       0.3333333333333333 [-]
	 SCS Opposite-Spin Scale   =       1.2000000000000000 [-]
	 SCS Same-Spin Energy      =      -0.0818322048719291 [Eh]
	 SCS Opposite-Spin Energy  =      -0.9822478007370731 [Eh]
	 SCS Correlation Energy    =      -1.0640800056090021 [Eh]
	 SCS Total Energy          =    -248.0792614002810694 [Eh]
	-----------------------------------------------------------

  Dipole Moment: [D]
     X:    -0.8577      Y:     0.0443      Z:     0.1317     Total:     0.8689

*** Psi4 exiting successfully. Buy a developer a beer!
