                               Psi4 1.3.2 release

  ==> Input File <==

--------------------------------------------------------------------------
#psi4
#
memory 32 gb

molecule  {
0 1
  O        2.3113770    -0.3374580     0.0558470
  N        1.1881092     0.2816827    -0.3137095
  C       -1.1987920     0.6023930     0.1340090
  C       -2.2229840    -0.4847570    -0.2038870
  C        0.1526050     0.0245260     0.4043250
  H       -1.5334920     1.1612300     1.0167400
  H       -1.1079080     1.3161780    -0.6902320
  H       -1.9266320    -1.0220700    -1.1084710
  H       -2.3096210    -1.2114710     0.6092880
  H       -3.2110640    -0.0477540    -0.3721170
  H        0.2980470    -0.6712980     1.2352290
  H        2.9626180    -0.0188780    -0.5933990
units angstrom
no_reorient  #important for SAPT in psi4, default
symmetry c1  #important for SAPT in psi4, default
}

set PROPERTIES_ORIGIN ["COM"]
properties('MP2/aug-cc-pvtz', properties = ['dipole'])
--------------------------------------------------------------------------

    Molecular point group: c1
  Charge       = 0
  Multiplicity = 1
  Basis Set: AUG-CC-PVTZ
    Blend: AUG-CC-PVTZ
  Basis Set: (AUG-CC-PVTZ AUX)
    Blend: AUG-CC-PVTZ-JKFIT

    Orbital Energies [Eh]
    ---------------------

    Doubly Occupied:

       1A    -20.602445     2A    -15.617347     3A    -11.268187
       4A    -11.238264     5A    -11.225127     6A     -1.452996
       7A     -1.152503     8A     -1.036612     9A     -0.881243
      10A     -0.774871    11A     -0.724014    12A     -0.666895
      13A     -0.621685    14A     -0.600602    15A     -0.583997
      16A     -0.533619    17A     -0.511347    18A     -0.498728
      19A     -0.428182    20A     -0.374097

  @DF-RHF Final Energy:  -247.01475705766126

   => Energetics <=

    Nuclear Repulsion Energy =            171.7105204551553186
    One-Electron Energy =                -675.8650332046388485
    Two-Electron Energy =                 257.1397556918222449
    Total Energy =                       -247.0147570576612566
  Basis Set: (AUG-CC-PVTZ AUX)
    Blend: AUG-CC-PVTZ-RI
    Molecular point group: c1

    Geometry (in Angstrom), charge = 0, multiplicity = 1:

       Center              X                  Y                   Z               Mass
    ------------   -----------------  -----------------  -----------------  -----------------
         O            2.208767260141    -0.334101887927     0.047475900186    15.994914619570
         N            1.085499460141     0.285038812073    -0.322080599814    14.003074004430
         C           -1.301401739859     0.605749112073     0.125637900186    12.000000000000
         C           -2.325593739859    -0.481400887927    -0.212258099814    12.000000000000
         C            0.049995260141     0.027882112073     0.395953900186    12.000000000000
         H           -1.636101739859     1.164586112073     1.008368900186     1.007825032230
         H           -1.210517739859     1.319534112073    -0.698603099814     1.007825032230
         H           -2.029241739859    -1.018713887927    -1.116842099814     1.007825032230
         H           -2.412230739859    -1.208114887927     0.600916900186     1.007825032230
         H           -3.313673739859    -0.044397887927    -0.380488099814     1.007825032230
         H            0.195437260141    -0.667941887927     1.226857900186     1.007825032230
         H            2.860008260141    -0.015521887927    -0.601770099814     1.007825032230

  Basis Set: AUG-CC-PVTZ
    Blend: AUG-CC-PVTZ
  Basis Set: (AUG-CC-PVTZ AUX)
    Blend: AUG-CC-PVTZ-JKFIT
	 Reference Energy          =    -247.0147570576612566 [Eh]
	 Singles Energy            =      -0.0000000000000000 [Eh]
	 Same-Spin Energy          =      -0.2451242117898021 [Eh]
	 Opposite-Spin Energy      =      -0.8158355377787125 [Eh]
	 Correlation Energy        =      -1.0609597495685146 [Eh]
	 Total Energy              =    -248.0757168072297816 [Eh]

	 ================> DF-SCS-MP2 Energies <==================
	-----------------------------------------------------------
	 SCS Same-Spin Scale       =       0.3333333333333333 [-]
	 SCS Opposite-Spin Scale   =       1.2000000000000000 [-]
	 SCS Same-Spin Energy      =      -0.0817080705966007 [Eh]
	 SCS Opposite-Spin Energy  =      -0.9790026453344550 [Eh]
	 SCS Correlation Energy    =      -1.0607107159310558 [Eh]
	 SCS Total Energy          =    -248.0754677735923224 [Eh]
	-----------------------------------------------------------

  Dipole Moment: [D]
     X:    -0.5848      Y:     0.0465      Z:     0.0344     Total:     0.5876

*** Psi4 exiting successfully. Buy a developer a beer!
