                               Psi4 1.3.2 release

  ==> Input File <==

--------------------------------------------------------------------------
#psi4
#
memory 32 gb

molecule  {
0 1
  O        2.3113770    -0.3374580     0.0558470
  N        1.1895284     0.3754713    -0.4367311
  C       -1.1987920     0.6023930     0.1340090
  C       -2.2229840    -0.4847570    -0.2038870
  C        0.1526050     0.0245260     0.4043250
  H       -1.5334920     1.1612300     1.0167400
  H       -1.1079080     1.3161780    -0.6902320
  H       -1.9266320    -1.0220700    -1.1084710
  H       -2.3096210    -1.2114710     0.6092880
  H       -3.2110640    -0.0477540    -0.3721170
  H        0.2980470    -0.6712980     1.2352290
  H        2.9626180    -0.0188780    -0.5933990
units angstrom
no_reorient  #important for SAPT in psi4, default
symmetry c1  #important for SAPT in psi4, default
}

set PROPERTIES_ORIGIN ["COM"]
properties('MP2/aug-cc-pvtz', properties = ['dipole'])
--------------------------------------------------------------------------

    Molecular point group: c1
  Charge       = 0
  Multiplicity = 1
  Basis Set: AUG-CC-PVTZ
    Blend: AUG-CC-PVTZ
  Basis Set: (AUG-CC-PVTZ AUX)
    Blend: AUG-CC-PVTZ-JKFIT

    Orbital Energies [Eh]
    ---------------------

    Doubly Occupied:

       1A    -20.591099     2A    -15.635746     3A    -11.294350
       4A    -11.241489     5A    -11.228710     6A     -1.407720
       7A     -1.128985     8A     -1.032259     9A     -0.884102
      10A     -0.781363    11A     -0.689951    12A     -0.654691
      13A     -0.608235    14A     -0.588766    15A     -0.575519
      16A     -0.531105    17A     -0.507933    18A     -0.501915
      19A     -0.457832    20A     -0.364569

  @DF-RHF Final Energy:  -246.99294614018842

   => Energetics <=

    Nuclear Repulsion Energy =            168.9957677786457566
    One-Electron Energy =                -670.5647512797937679
    Two-Electron Energy =                 254.5760373609595888
    Total Energy =                       -246.9929461401884225
  Basis Set: (AUG-CC-PVTZ AUX)
    Blend: AUG-CC-PVTZ-RI
    Molecular point group: c1

    Geometry (in Angstrom), charge = 0, multiplicity = 1:

       Center              X                  Y                   Z               Mass
    ------------   -----------------  -----------------  -----------------  -----------------
         O            2.208495221664    -0.352079697901     0.071057219745    15.994914619570
         N            1.086646621664     0.360849602099    -0.421520880255    14.003074004430
         C           -1.301673778336     0.587771302099     0.149219219745    12.000000000000
         C           -2.325865778336    -0.499378697901    -0.188676780255    12.000000000000
         C            0.049723221664     0.009904302099     0.419535219745    12.000000000000
         H           -1.636373778336     1.146608302099     1.031950219745     1.007825032230
         H           -1.210789778336     1.301556302099    -0.675021780255     1.007825032230
         H           -2.029513778336    -1.036691697901    -1.093260780255     1.007825032230
         H           -2.412502778336    -1.226092697901     0.624498219745     1.007825032230
         H           -3.313945778336    -0.062375697901    -0.356906780255     1.007825032230
         H            0.195165221664    -0.685919697901     1.250439219745     1.007825032230
         H            2.859736221664    -0.033499697901    -0.578188780255     1.007825032230

  Basis Set: AUG-CC-PVTZ
    Blend: AUG-CC-PVTZ
  Basis Set: (AUG-CC-PVTZ AUX)
    Blend: AUG-CC-PVTZ-JKFIT
	 Reference Energy          =    -246.9929461401884225 [Eh]
	 Singles Energy            =      -0.0000000000000000 [Eh]
	 Same-Spin Energy          =      -0.2480672049710036 [Eh]
	 Opposite-Spin Energy      =      -0.8258673199918980 [Eh]
	 Correlation Energy        =      -1.0739345249629015 [Eh]
	 Total Energy              =    -248.0668806651513307 [Eh]

	 ================> DF-SCS-MP2 Energies <==================
	-----------------------------------------------------------
	 SCS Same-Spin Scale       =       0.3333333333333333 [-]
	 SCS Opposite-Spin Scale   =       1.2000000000000000 [-]
	 SCS Same-Spin Energy      =      -0.0826890683236678 [Eh]
	 SCS Opposite-Spin Energy  =      -0.9910407839902775 [Eh]
	 SCS Correlation Energy    =      -1.0737298523139454 [Eh]
	 SCS Total Energy          =    -248.0666759925023541 [Eh]
	-----------------------------------------------------------

  Dipole Moment: [D]
     X:    -0.8795      Y:     0.0037      Z:     0.1911     Total:     0.9000

*** Psi4 exiting successfully. Buy a developer a beer!
