                               Psi4 1.3.2 release

  ==> Input File <==

--------------------------------------------------------------------------
#psi4
#
memory 32 gb

molecule  {
0 1
  O        2.3113770    -0.3374580     0.0558470
  N        1.1360090     0.3343940    -0.3643560
  C       -1.1987920     0.6023930     0.1340090
  C       -2.2229840    -0.4847570    -0.2038870
  C        0.1526050     0.0245260     0.4043250
  H       -1.5334920     1.1612300     1.0167400
  H       -1.1079080     1.3161780    -0.6902320
  H       -1.9266320    -1.0220700    -1.1084710
  H       -2.3096210    -1.2114710     0.6092880
  H       -3.2110640    -0.0477540    -0.3721170
  H        0.2980470    -0.6712980     1.2352290
  H        2.8287837    -0.0843483    -0.4599747
units angstrom
no_reorient  #important for SAPT in psi4, default
symmetry c1  #important for SAPT in psi4, default
}

set PROPERTIES_ORIGIN ["COM"]
properties('MP2/aug-cc-pvtz', properties = ['dipole'])
--------------------------------------------------------------------------

    Molecular point group: c1
  Charge       = 0
  Multiplicity = 1
  Basis Set: AUG-CC-PVTZ
    Blend: AUG-CC-PVTZ
  Basis Set: (AUG-CC-PVTZ AUX)
    Blend: AUG-CC-PVTZ-JKFIT

    Orbital Energies [Eh]
    ---------------------

    Doubly Occupied:

       1A    -20.571793     2A    -15.626506     3A    -11.280874
       4A    -11.241569     5A    -11.228941     6A     -1.460801
       7A     -1.183564     8A     -1.044759     9A     -0.888018
      10A     -0.777379    11A     -0.744071    12A     -0.661909
      13A     -0.620487    14A     -0.592146    15A     -0.588304
      16A     -0.536322    17A     -0.515996    18A     -0.502780
      19A     -0.449567    20A     -0.391232

  @DF-RHF Final Energy:  -246.96944730326584

   => Energetics <=

    Nuclear Repulsion Energy =            172.0483539045844736
    One-Electron Energy =                -676.2215664799480237
    Two-Electron Energy =                 257.2037652720977121
    Total Energy =                       -246.9694473032658379
  Basis Set: (AUG-CC-PVTZ AUX)
    Blend: AUG-CC-PVTZ-RI
    Molecular point group: c1

    Geometry (in Angstrom), charge = 0, multiplicity = 1:

       Center              X                  Y                   Z               Mass
    ------------   -----------------  -----------------  -----------------  -----------------
         O            2.220600412898    -0.343302602481     0.055343341579    15.994914619570
         N            1.045232412898     0.328549397519    -0.364859658421    14.003074004430
         C           -1.289568587102     0.596548397519     0.133505341579    12.000000000000
         C           -2.313760587102    -0.490601602481    -0.204390658421    12.000000000000
         C            0.061828412898     0.018681397519     0.403821341579    12.000000000000
         H           -1.624268587102     1.155385397519     1.016236341579     1.007825032230
         H           -1.198684587102     1.310333397519    -0.690735658421     1.007825032230
         H           -2.017408587102    -1.027914602481    -1.108974658421     1.007825032230
         H           -2.400397587102    -1.217315602481     0.608784341579     1.007825032230
         H           -3.301840587102    -0.053598602481    -0.372620658421     1.007825032230
         H            0.207270412898    -0.677142602481     1.234725341579     1.007825032230
         H            2.738007112898    -0.090192902481    -0.460478358421     1.007825032230

  Basis Set: AUG-CC-PVTZ
    Blend: AUG-CC-PVTZ
  Basis Set: (AUG-CC-PVTZ AUX)
    Blend: AUG-CC-PVTZ-JKFIT
	 Reference Energy          =    -246.9694473032658379 [Eh]
	 Singles Energy            =      -0.0000000000000000 [Eh]
	 Same-Spin Energy          =      -0.2430045526107646 [Eh]
	 Opposite-Spin Energy      =      -0.8129131119974321 [Eh]
	 Correlation Energy        =      -1.0559176646081967 [Eh]
	 Total Energy              =    -248.0253649678740260 [Eh]

	 ================> DF-SCS-MP2 Energies <==================
	-----------------------------------------------------------
	 SCS Same-Spin Scale       =       0.3333333333333333 [-]
	 SCS Opposite-Spin Scale   =       1.2000000000000000 [-]
	 SCS Same-Spin Energy      =      -0.0810015175369215 [Eh]
	 SCS Opposite-Spin Energy  =      -0.9754957343969185 [Eh]
	 SCS Correlation Energy    =      -1.0564972519338400 [Eh]
	 SCS Total Energy          =    -248.0259445551996862 [Eh]
	-----------------------------------------------------------

  Dipole Moment: [D]
     X:    -1.2087      Y:     0.0048      Z:     0.2984     Total:     1.2450

*** Psi4 exiting successfully. Buy a developer a beer!
