                               Psi4 1.3.2 release

  ==> Input File <==

--------------------------------------------------------------------------
#psi4
#
memory 32 gb

molecule  {
0 1
  O        2.3113770    -0.3374580     0.0558470
  N        1.1620686     0.3553547    -0.4008217
  C       -1.1987920     0.6023930     0.1340090
  C       -2.2229840    -0.4847570    -0.2038870
  C        0.1526050     0.0245260     0.4043250
  H       -1.5334920     1.1612300     1.0167400
  H       -1.1079080     1.3161780    -0.6902320
  H       -1.9266320    -1.0220700    -1.1084710
  H       -2.3096210    -1.2114710     0.6092880
  H       -3.2110640    -0.0477540    -0.3721170
  H        0.2980470    -0.6712980     1.2352290
  H        2.9626180    -0.0188780    -0.5933990
units angstrom
no_reorient  #important for SAPT in psi4, default
symmetry c1  #important for SAPT in psi4, default
}

set PROPERTIES_ORIGIN ["COM"]
properties('MP2/aug-cc-pvtz', properties = ['dipole'])
--------------------------------------------------------------------------

    Molecular point group: c1
  Charge       = 0
  Multiplicity = 1
  Basis Set: AUG-CC-PVTZ
    Blend: AUG-CC-PVTZ
  Basis Set: (AUG-CC-PVTZ AUX)
    Blend: AUG-CC-PVTZ-JKFIT

    Orbital Energies [Eh]
    ---------------------

    Doubly Occupied:

       1A    -20.592029     2A    -15.629668     3A    -11.285881
       4A    -11.240593     5A    -11.228035     6A     -1.408689
       7A     -1.143569     8A     -1.035595     9A     -0.882605
      10A     -0.777687    11A     -0.695769    12A     -0.654989
      13A     -0.611987    14A     -0.587799    15A     -0.578144
      16A     -0.531722    17A     -0.509862    18A     -0.501512
      19A     -0.451392    20A     -0.375019

  @DF-RHF Final Energy:  -247.00654102032991

   => Energetics <=

    Nuclear Repulsion Energy =            169.8073784148118932
    One-Electron Energy =                -672.1827435769495196
    Two-Electron Energy =                 255.3688241418077496
    Total Energy =                       -247.0065410203299052
  Basis Set: (AUG-CC-PVTZ AUX)
    Blend: AUG-CC-PVTZ-RI
    Molecular point group: c1

    Geometry (in Angstrom), charge = 0, multiplicity = 1:

       Center              X                  Y                   Z               Mass
    ------------   -----------------  -----------------  -----------------  -----------------
         O            2.213758836499    -0.348223659831     0.064173948542    15.994914619570
         N            1.064450436499     0.344589040169    -0.392494751458    14.003074004430
         C           -1.296410163501     0.591627340169     0.142335948542    12.000000000000
         C           -2.320602163501    -0.495522659831    -0.195560051458    12.000000000000
         C            0.054986836499     0.013760340169     0.412651948542    12.000000000000
         H           -1.631110163501     1.150464340169     1.025066948542     1.007825032230
         H           -1.205526163501     1.305412340169    -0.681905051458     1.007825032230
         H           -2.024250163501    -1.032835659831    -1.100144051458     1.007825032230
         H           -2.407239163501    -1.222236659831     0.617614948542     1.007825032230
         H           -3.308682163501    -0.058519659831    -0.363790051458     1.007825032230
         H            0.200428836499    -0.682063659831     1.243555948542     1.007825032230
         H            2.864999836499    -0.029643659831    -0.585072051458     1.007825032230

  Basis Set: AUG-CC-PVTZ
    Blend: AUG-CC-PVTZ
  Basis Set: (AUG-CC-PVTZ AUX)
    Blend: AUG-CC-PVTZ-JKFIT
	 Reference Energy          =    -247.0065410203299052 [Eh]
	 Singles Energy            =      -0.0000000000000000 [Eh]
	 Same-Spin Energy          =      -0.2466437410734770 [Eh]
	 Opposite-Spin Energy      =      -0.8221580494077569 [Eh]
	 Correlation Energy        =      -1.0688017904812339 [Eh]
	 Total Energy              =    -248.0753428108111507 [Eh]

	 ================> DF-SCS-MP2 Energies <==================
	-----------------------------------------------------------
	 SCS Same-Spin Scale       =       0.3333333333333333 [-]
	 SCS Opposite-Spin Scale   =       1.2000000000000000 [-]
	 SCS Same-Spin Energy      =      -0.0822145803578257 [Eh]
	 SCS Opposite-Spin Energy  =      -0.9865896592893083 [Eh]
	 SCS Correlation Energy    =      -1.0688042396471340 [Eh]
	 SCS Total Energy          =    -248.0753452599770412 [Eh]
	-----------------------------------------------------------

  Dipole Moment: [D]
     X:    -0.9177      Y:     0.0239      Z:     0.1773     Total:     0.9350

*** Psi4 exiting successfully. Buy a developer a beer!
