                               Psi4 1.3.2 release

  ==> Input File <==

--------------------------------------------------------------------------
#psi4
#
memory 32 gb

molecule  {
0 1
  O        2.3113770    -0.3374580     0.0558470
  N        1.1113814     0.3126148    -0.3273783
  C       -1.1987920     0.6023930     0.1340090
  C       -2.2229840    -0.4847570    -0.2038870
  C        0.1526050     0.0245260     0.4043250
  H       -1.5334920     1.1612300     1.0167400
  H       -1.1079080     1.3161780    -0.6902320
  H       -1.9266320    -1.0220700    -1.1084710
  H       -2.3096210    -1.2114710     0.6092880
  H       -3.2110640    -0.0477540    -0.3721170
  H        0.2980470    -0.6712980     1.2352290
  H        2.9626180    -0.0188780    -0.5933990
units angstrom
no_reorient  #important for SAPT in psi4, default
symmetry c1  #important for SAPT in psi4, default
}

set PROPERTIES_ORIGIN ["COM"]
properties('MP2/aug-cc-pvtz', properties = ['dipole'])
--------------------------------------------------------------------------

    Molecular point group: c1
  Charge       = 0
  Multiplicity = 1
  Basis Set: AUG-CC-PVTZ
    Blend: AUG-CC-PVTZ
  Basis Set: (AUG-CC-PVTZ AUX)
    Blend: AUG-CC-PVTZ-JKFIT

    Orbital Energies [Eh]
    ---------------------

    Doubly Occupied:

       1A    -20.593939     2A    -15.615450     3A    -11.268585
       4A    -11.238917     5A    -11.226870     6A     -1.411639
       7A     -1.177658     8A     -1.039787     9A     -0.880157
      10A     -0.770304    11A     -0.711289    12A     -0.653875
      13A     -0.618719    14A     -0.586525    15A     -0.584515
      16A     -0.533980    17A     -0.514170    18A     -0.500427
      19A     -0.433263    20A     -0.396989

  @DF-RHF Final Energy:  -247.01739951157160

   => Energetics <=

    Nuclear Repulsion Energy =            171.5159175165690328
    One-Electron Energy =                -675.5525168270000904
    Two-Electron Energy =                 257.0191997988594608
    Total Energy =                       -247.0173995115715684
  Basis Set: (AUG-CC-PVTZ AUX)
    Blend: AUG-CC-PVTZ-RI
    Molecular point group: c1

    Geometry (in Angstrom), charge = 0, multiplicity = 1:

       Center              X                  Y                   Z               Mass
    ------------   -----------------  -----------------  -----------------  -----------------
         O            2.223474781184    -0.340031088447     0.050095995688    15.994914619570
         N            1.023479181184     0.310041711553    -0.333129304312    14.003074004430
         C           -1.286694218816     0.599819911553     0.128257995688    12.000000000000
         C           -2.310886218816    -0.487330088447    -0.209638004312    12.000000000000
         C            0.064702781184     0.021952911553     0.398573995688    12.000000000000
         H           -1.621394218816     1.158656911553     1.010988995688     1.007825032230
         H           -1.195810218816     1.313604911553    -0.695983004312     1.007825032230
         H           -2.014534218816    -1.024643088447    -1.114222004312     1.007825032230
         H           -2.397523218816    -1.214044088447     0.603536995688     1.007825032230
         H           -3.298966218816    -0.050327088447    -0.377868004312     1.007825032230
         H            0.210144781184    -0.673871088447     1.229477995688     1.007825032230
         H            2.874715781184    -0.021451088447    -0.599150004312     1.007825032230

  Basis Set: AUG-CC-PVTZ
    Blend: AUG-CC-PVTZ
  Basis Set: (AUG-CC-PVTZ AUX)
    Blend: AUG-CC-PVTZ-JKFIT
	 Reference Energy          =    -247.0173995115715968 [Eh]
	 Singles Energy            =      -0.0000000000000000 [Eh]
	 Same-Spin Energy          =      -0.2445102169908235 [Eh]
	 Opposite-Spin Energy      =      -0.8160696170343207 [Eh]
	 Correlation Energy        =      -1.0605798340251442 [Eh]
	 Total Energy              =    -248.0779793455967308 [Eh]

	 ================> DF-SCS-MP2 Energies <==================
	-----------------------------------------------------------
	 SCS Same-Spin Scale       =       0.3333333333333333 [-]
	 SCS Opposite-Spin Scale   =       1.2000000000000000 [-]
	 SCS Same-Spin Energy      =      -0.0815034056636078 [Eh]
	 SCS Opposite-Spin Energy  =      -0.9792835404411848 [Eh]
	 SCS Correlation Energy    =      -1.0607869461047927 [Eh]
	 SCS Total Energy          =    -248.0781864576763951 [Eh]
	-----------------------------------------------------------

  Dipole Moment: [D]
     X:    -0.9466      Y:     0.0811      Z:     0.1135     Total:     0.9568

*** Psi4 exiting successfully. Buy a developer a beer!
