                               Psi4 1.3.2 release

  ==> Input File <==

--------------------------------------------------------------------------
#psi4
#
memory 32 gb

molecule  {
0 1
  O        2.3113770    -0.3374580     0.0558470
  N        1.1360090     0.3343940    -0.3643560
  C       -1.1987920     0.6023930     0.1340090
  C       -2.2229840    -0.4847570    -0.2038870
  C       -0.0003268    -0.0236624     0.5238647
  H       -1.5334920     1.1612300     1.0167400
  H       -1.1079080     1.3161780    -0.6902320
  H       -1.9266320    -1.0220700    -1.1084710
  H       -2.3096210    -1.2114710     0.6092880
  H       -3.2110640    -0.0477540    -0.3721170
  H        0.2980470    -0.6712980     1.2352290
  H        2.9626180    -0.0188780    -0.5933990
units angstrom
no_reorient  #important for SAPT in psi4, default
symmetry c1  #important for SAPT in psi4, default
}

set PROPERTIES_ORIGIN ["COM"]
properties('MP2/aug-cc-pvtz', properties = ['dipole'])
--------------------------------------------------------------------------

    Molecular point group: c1
  Charge       = 0
  Multiplicity = 1
  Basis Set: AUG-CC-PVTZ
    Blend: AUG-CC-PVTZ
  Basis Set: (AUG-CC-PVTZ AUX)
    Blend: AUG-CC-PVTZ-JKFIT

    Orbital Energies [Eh]
    ---------------------

    Doubly Occupied:

       1A    -20.589705     2A    -15.637340     3A    -11.294673
       4A    -11.240675     5A    -11.229998     6A     -1.395444
       7A     -1.129598     8A     -1.022590     9A     -0.892964
      10A     -0.803856    11A     -0.688577    12A     -0.650599
      13A     -0.624835    14A     -0.600588    15A     -0.565542
      16A     -0.534719    17A     -0.527295    18A     -0.497100
      19A     -0.436448    20A     -0.338032

  @DF-RHF Final Energy:  -246.94551338361902

   => Energetics <=

    Nuclear Repulsion Energy =            169.1165853985735055
    One-Electron Energy =                -670.7230420885337026
    Two-Electron Energy =                 254.6609433063411529
    Total Energy =                       -246.9455133836190157
  Basis Set: (AUG-CC-PVTZ AUX)
    Blend: AUG-CC-PVTZ-RI
    Molecular point group: c1

    Geometry (in Angstrom), charge = 0, multiplicity = 1:

       Center              X                  Y                   Z               Mass
    ------------   -----------------  -----------------  -----------------  -----------------
         O            2.243875371334    -0.336290161530     0.037547874548    15.994914619570
         N            1.068507371334     0.335561838470    -0.382655125452    14.003074004430
         C           -1.266293628666     0.603560838470     0.115709874548    12.000000000000
         C           -2.290485628666    -0.483589161530    -0.222186125452    12.000000000000
         C           -0.067828428666    -0.022494561530     0.505565574548    12.000000000000
         H           -1.600993628666     1.162397838470     0.998440874548     1.007825032230
         H           -1.175409628666     1.317345838470    -0.708531125452     1.007825032230
         H           -1.994133628666    -1.020902161530    -1.126770125452     1.007825032230
         H           -2.377122628666    -1.210303161530     0.590988874548     1.007825032230
         H           -3.278565628666    -0.046586161530    -0.390416125452     1.007825032230
         H            0.230545371334    -0.670130161530     1.216929874548     1.007825032230
         H            2.895116371334    -0.017710161530    -0.611698125452     1.007825032230

  Basis Set: AUG-CC-PVTZ
    Blend: AUG-CC-PVTZ
  Basis Set: (AUG-CC-PVTZ AUX)
    Blend: AUG-CC-PVTZ-JKFIT
	 Reference Energy          =    -246.9455133836190157 [Eh]
	 Singles Energy            =      -0.0000000000000000 [Eh]
	 Same-Spin Energy          =      -0.2528090117741381 [Eh]
	 Opposite-Spin Energy      =      -0.8346969508628074 [Eh]
	 Correlation Energy        =      -1.0875059626369454 [Eh]
	 Total Energy              =    -248.0330193462559691 [Eh]

	 ================> DF-SCS-MP2 Energies <==================
	-----------------------------------------------------------
	 SCS Same-Spin Scale       =       0.3333333333333333 [-]
	 SCS Opposite-Spin Scale   =       1.2000000000000000 [-]
	 SCS Same-Spin Energy      =      -0.0842696705913794 [Eh]
	 SCS Opposite-Spin Energy  =      -1.0016363410353688 [Eh]
	 SCS Correlation Energy    =      -1.0859060116267480 [Eh]
	 SCS Total Energy          =    -248.0314193952457629 [Eh]
	-----------------------------------------------------------

  Dipole Moment: [D]
     X:    -0.8545      Y:     0.0461      Z:     0.1434     Total:     0.8677

*** Psi4 exiting successfully. Buy a developer a beer!
