                               Psi4 1.3.2 release

  ==> Input File <==

--------------------------------------------------------------------------
#psi4
#
memory 32 gb

molecule  {
0 1
  O        2.3113770    -0.3374580     0.0558470
  N        0.9701780     0.4291846    -0.4236418
  C       -1.1987920     0.6023930     0.1340090
  C       -2.2229840    -0.4847570    -0.2038870
  C        0.1526050     0.0245260     0.4043250
  H       -1.5334920     1.1612300     1.0167400
  H       -1.1079080     1.3161780    -0.6902320
  H       -1.9266320    -1.0220700    -1.1084710
  H       -2.3096210    -1.2114710     0.6092880
  H       -3.2110640    -0.0477540    -0.3721170
  H        0.2980470    -0.6712980     1.2352290
  H        2.9626180    -0.0188780    -0.5933990
units angstrom
no_reorient  #important for SAPT in psi4, default
symmetry c1  #important for SAPT in psi4, default
}

set PROPERTIES_ORIGIN ["COM"]
properties('MP2/aug-cc-pvtz', properties = ['dipole'])
--------------------------------------------------------------------------

    Molecular point group: c1
  Charge       = 0
  Multiplicity = 1
  Basis Set: AUG-CC-PVTZ
    Blend: AUG-CC-PVTZ
  Basis Set: (AUG-CC-PVTZ AUX)
    Blend: AUG-CC-PVTZ-JKFIT

    Orbital Energies [Eh]
    ---------------------

    Doubly Occupied:

       1A    -20.572384     2A    -15.633513     3A    -11.285336
       4A    -11.242807     5A    -11.231154     6A     -1.343540
       7A     -1.199957     8A     -1.042534     9A     -0.881043
      10A     -0.782126    11A     -0.676384    12A     -0.633545
      13A     -0.607821    14A     -0.588506    15A     -0.559101
      16A     -0.525986    17A     -0.516128    18A     -0.506446
      19A     -0.439478    20A     -0.420254

  @DF-RHF Final Energy:  -246.98697623044183

   => Energetics <=

    Nuclear Repulsion Energy =            169.7998490683302748
    One-Electron Energy =                -672.1975610717399832
    Two-Electron Energy =                 255.4107357729678824
    Total Energy =                       -246.9869762304418259
  Basis Set: (AUG-CC-PVTZ AUX)
    Blend: AUG-CC-PVTZ-RI
    Molecular point group: c1

    Geometry (in Angstrom), charge = 0, multiplicity = 1:

       Center              X                  Y                   Z               Mass
    ------------   -----------------  -----------------  -----------------  -----------------
         O            2.250541267867    -0.362375698700     0.068548205343    15.994914619570
         N            0.909342267867     0.404266901300    -0.410940594657    14.003074004430
         C           -1.259627732133     0.577475301300     0.146710205343    12.000000000000
         C           -2.283819732133    -0.509674698700    -0.191185794657    12.000000000000
         C            0.091769267867    -0.000391698700     0.417026205343    12.000000000000
         H           -1.594327732133     1.136312301300     1.029441205343     1.007825032230
         H           -1.168743732133     1.291260301300    -0.677530794657     1.007825032230
         H           -1.987467732133    -1.046987698700    -1.095769794657     1.007825032230
         H           -2.370456732133    -1.236388698700     0.621989205343     1.007825032230
         H           -3.271899732133    -0.072671698700    -0.359415794657     1.007825032230
         H            0.237211267867    -0.696215698700     1.247930205343     1.007825032230
         H            2.901782267867    -0.043795698700    -0.580697794657     1.007825032230

  Basis Set: AUG-CC-PVTZ
    Blend: AUG-CC-PVTZ
  Basis Set: (AUG-CC-PVTZ AUX)
    Blend: AUG-CC-PVTZ-JKFIT
	 Reference Energy          =    -246.9869762304418259 [Eh]
	 Singles Energy            =      -0.0000000000000000 [Eh]
	 Same-Spin Energy          =      -0.2466694040066720 [Eh]
	 Opposite-Spin Energy      =      -0.8254865387887192 [Eh]
	 Correlation Energy        =      -1.0721559427953913 [Eh]
	 Total Energy              =    -248.0591321732372307 [Eh]

	 ================> DF-SCS-MP2 Energies <==================
	-----------------------------------------------------------
	 SCS Same-Spin Scale       =       0.3333333333333333 [-]
	 SCS Opposite-Spin Scale   =       1.2000000000000000 [-]
	 SCS Same-Spin Energy      =      -0.0822231346688907 [Eh]
	 SCS Opposite-Spin Energy  =      -0.9905838465464630 [Eh]
	 SCS Correlation Energy    =      -1.0728069812153538 [Eh]
	 SCS Total Energy          =    -248.0597832116571908 [Eh]
	-----------------------------------------------------------

  Dipole Moment: [D]
     X:    -1.5829      Y:     0.0947      Z:     0.3106     Total:     1.6158

*** Psi4 exiting successfully. Buy a developer a beer!
