                               Psi4 1.3.2 release

  ==> Input File <==

--------------------------------------------------------------------------
#psi4
#
memory 32 gb

molecule  {
0 1
  O        2.3113770    -0.3374580     0.0558470
  N        1.1876652     0.2801376    -0.3149003
  C       -1.1987920     0.6023930     0.1340090
  C       -2.2229840    -0.4847570    -0.2038870
  C        0.1526050     0.0245260     0.4043250
  H       -1.5334920     1.1612300     1.0167400
  H       -1.1079080     1.3161780    -0.6902320
  H       -1.9266320    -1.0220700    -1.1084710
  H       -2.3096210    -1.2114710     0.6092880
  H       -3.2110640    -0.0477540    -0.3721170
  H        0.2980470    -0.6712980     1.2352290
  H        2.9626180    -0.0188780    -0.5933990
units angstrom
no_reorient  #important for SAPT in psi4, default
symmetry c1  #important for SAPT in psi4, default
}

set PROPERTIES_ORIGIN ["COM"]
properties('MP2/aug-cc-pvtz', properties = ['dipole'])
--------------------------------------------------------------------------

    Molecular point group: c1
  Charge       = 0
  Multiplicity = 1
  Basis Set: AUG-CC-PVTZ
    Blend: AUG-CC-PVTZ
  Basis Set: (AUG-CC-PVTZ AUX)
    Blend: AUG-CC-PVTZ-JKFIT

    Orbital Energies [Eh]
    ---------------------

    Doubly Occupied:

       1A    -20.602447     2A    -15.617347     3A    -11.268184
       4A    -11.238264     5A    -11.225117     6A     -1.453002
       7A     -1.152504     8A     -1.036604     9A     -0.881244
      10A     -0.774871    11A     -0.724024    12A     -0.666895
      13A     -0.621665    14A     -0.600594    15A     -0.583994
      16A     -0.533650    17A     -0.511333    18A     -0.498721
      19A     -0.428180    20A     -0.374095

  @DF-RHF Final Energy:  -247.01475572348269

   => Energetics <=

    Nuclear Repulsion Energy =            171.7125400432108790
    One-Electron Energy =                -675.8691194795063666
    Two-Electron Energy =                 257.1418237128127657
    Total Energy =                       -247.0147557234827218
  Basis Set: (AUG-CC-PVTZ AUX)
    Blend: AUG-CC-PVTZ-RI
    Molecular point group: c1

    Geometry (in Angstrom), charge = 0, multiplicity = 1:

       Center              X                  Y                   Z               Mass
    ------------   -----------------  -----------------  -----------------  -----------------
         O            2.208852368007    -0.333805716386     0.047704157950    15.994914619570
         N            1.085140568007     0.283789883614    -0.323043142050    14.003074004430
         C           -1.301316631993     0.606045283614     0.125866157950    12.000000000000
         C           -2.325508631993    -0.481104716386    -0.212029842050    12.000000000000
         C            0.050080368007     0.028178283614     0.396182157950    12.000000000000
         H           -1.636016631993     1.164882283614     1.008597157950     1.007825032230
         H           -1.210432631993     1.319830283614    -0.698374842050     1.007825032230
         H           -2.029156631993    -1.018417716386    -1.116613842050     1.007825032230
         H           -2.412145631993    -1.207818716386     0.601145157950     1.007825032230
         H           -3.313588631993    -0.044101716386    -0.380259842050     1.007825032230
         H            0.195522368007    -0.667645716386     1.227086157950     1.007825032230
         H            2.860093368007    -0.015225716386    -0.601541842050     1.007825032230

  Basis Set: AUG-CC-PVTZ
    Blend: AUG-CC-PVTZ
  Basis Set: (AUG-CC-PVTZ AUX)
    Blend: AUG-CC-PVTZ-JKFIT
	 Reference Energy          =    -247.0147557234826934 [Eh]
	 Singles Energy            =      -0.0000000000000000 [Eh]
	 Same-Spin Energy          =      -0.2451246055184566 [Eh]
	 Opposite-Spin Energy      =      -0.8158357120167979 [Eh]
	 Correlation Energy        =      -1.0609603175352544 [Eh]
	 Total Energy              =    -248.0757160410179551 [Eh]

	 ================> DF-SCS-MP2 Energies <==================
	-----------------------------------------------------------
	 SCS Same-Spin Scale       =       0.3333333333333333 [-]
	 SCS Opposite-Spin Scale   =       1.2000000000000000 [-]
	 SCS Same-Spin Energy      =      -0.0817082018394855 [Eh]
	 SCS Opposite-Spin Energy  =      -0.9790028544201574 [Eh]
	 SCS Correlation Energy    =      -1.0607110562596429 [Eh]
	 SCS Total Energy          =    -248.0754667797423281 [Eh]
	-----------------------------------------------------------

  Dipole Moment: [D]
     X:    -0.5842      Y:     0.0481      Z:     0.0356     Total:     0.5873

*** Psi4 exiting successfully. Buy a developer a beer!
