                               Psi4 1.3.2 release

  ==> Input File <==

--------------------------------------------------------------------------
#psi4
#
memory 32 gb

molecule  {
0 1
  O        2.3113770    -0.3374580     0.0558470
  N        1.1360090     0.3343940    -0.3643560
  C       -1.1987920     0.6023930     0.1340090
  C       -2.2229840    -0.4847570    -0.2038870
  C        0.1526050     0.0245260     0.4043250
  H       -1.5334920     1.1612300     1.0167400
  H       -1.1079080     1.3161780    -0.6902320
  H       -1.9266320    -1.0220700    -1.1084710
  H       -2.3096210    -1.2114710     0.6092880
  H       -3.2110640    -0.0477540    -0.3721170
  H        0.2980470    -0.6712980     1.2352290
  H        3.0295351     0.0138571    -0.6601111
units angstrom
no_reorient  #important for SAPT in psi4, default
symmetry c1  #important for SAPT in psi4, default
}

set PROPERTIES_ORIGIN ["COM"]
properties('MP2/aug-cc-pvtz', properties = ['dipole'])
--------------------------------------------------------------------------

    Molecular point group: c1
  Charge       = 0
  Multiplicity = 1
  Basis Set: AUG-CC-PVTZ
    Blend: AUG-CC-PVTZ
  Basis Set: (AUG-CC-PVTZ AUX)
    Blend: AUG-CC-PVTZ-JKFIT

    Orbital Energies [Eh]
    ---------------------

    Doubly Occupied:

       1A    -20.600760     2A    -15.621467     3A    -11.275867
       4A    -11.239056     5A    -11.226829     6A     -1.395532
       7A     -1.151351     8A     -1.035250     9A     -0.878963
      10A     -0.772710    11A     -0.686111    12A     -0.649699
      13A     -0.612643    14A     -0.583823    15A     -0.577854
      16A     -0.530978    17A     -0.509721    18A     -0.500260
      19A     -0.439878    20A     -0.383830

  @DF-RHF Final Energy:  -247.00138414481887

   => Energetics <=

    Nuclear Repulsion Energy =            170.1103953621341418
    One-Electron Energy =                -672.8783961972379757
    Two-Electron Energy =                 255.7666166902849909
    Total Energy =                       -247.0013841448188714
  Basis Set: (AUG-CC-PVTZ AUX)
    Blend: AUG-CC-PVTZ-RI
    Molecular point group: c1

    Geometry (in Angstrom), charge = 0, multiplicity = 1:

       Center              X                  Y                   Z               Mass
    ------------   -----------------  -----------------  -----------------  -----------------
         O            2.217830876531    -0.344657429529     0.058104393497    15.994914619570
         N            1.042462876531     0.327194570471    -0.362098606503    14.003074004430
         C           -1.292338123469     0.595193570471     0.136266393497    12.000000000000
         C           -2.316530123469    -0.491956429529    -0.201629606503    12.000000000000
         C            0.059058876531     0.017326570471     0.406582393497    12.000000000000
         H           -1.627038123469     1.154030570471     1.018997393497     1.007825032230
         H           -1.201454123469     1.308978570471    -0.687974606503     1.007825032230
         H           -2.020178123469    -1.029269429529    -1.106213606503     1.007825032230
         H           -2.403167123469    -1.218670429529     0.611545393497     1.007825032230
         H           -3.304610123469    -0.054953429529    -0.369859606503     1.007825032230
         H            0.204500876531    -0.678497429529     1.237486393497     1.007825032230
         H            2.935988976531     0.006657670471    -0.657853706503     1.007825032230

  Basis Set: AUG-CC-PVTZ
    Blend: AUG-CC-PVTZ
  Basis Set: (AUG-CC-PVTZ AUX)
    Blend: AUG-CC-PVTZ-JKFIT
	 Reference Energy          =    -247.0013841448188714 [Eh]
	 Singles Energy            =      -0.0000000000000000 [Eh]
	 Same-Spin Energy          =      -0.2466707903693728 [Eh]
	 Opposite-Spin Energy      =      -0.8223589890885902 [Eh]
	 Correlation Energy        =      -1.0690297794579631 [Eh]
	 Total Energy              =    -248.0704139242768349 [Eh]

	 ================> DF-SCS-MP2 Energies <==================
	-----------------------------------------------------------
	 SCS Same-Spin Scale       =       0.3333333333333333 [-]
	 SCS Opposite-Spin Scale   =       1.2000000000000000 [-]
	 SCS Same-Spin Energy      =      -0.0822235967897909 [Eh]
	 SCS Opposite-Spin Energy  =      -0.9868307869063082 [Eh]
	 SCS Correlation Energy    =      -1.0690543836960991 [Eh]
	 SCS Total Energy          =    -248.0704385285149840 [Eh]
	-----------------------------------------------------------

  Dipole Moment: [D]
     X:    -0.8275      Y:     0.0765      Z:     0.0794     Total:     0.8348

*** Psi4 exiting successfully. Buy a developer a beer!
