                               Psi4 1.3.2 release

  ==> Input File <==

--------------------------------------------------------------------------
#psi4
#
memory 32 gb

molecule  {
0 1
  O        2.3113770    -0.3374580     0.0558470
  N        1.1360090     0.3343940    -0.3643560
  C       -1.1987920     0.6023930     0.1340090
  C       -2.2229840    -0.4847570    -0.2038870
  C        0.3055368     0.0727144     0.2847853
  H       -1.5334920     1.1612300     1.0167400
  H       -1.1079080     1.3161780    -0.6902320
  H       -1.9266320    -1.0220700    -1.1084710
  H       -2.3096210    -1.2114710     0.6092880
  H       -3.2110640    -0.0477540    -0.3721170
  H        0.2980470    -0.6712980     1.2352290
  H        2.9626180    -0.0188780    -0.5933990
units angstrom
no_reorient  #important for SAPT in psi4, default
symmetry c1  #important for SAPT in psi4, default
}

set PROPERTIES_ORIGIN ["COM"]
properties('MP2/aug-cc-pvtz', properties = ['dipole'])
--------------------------------------------------------------------------

    Molecular point group: c1
  Charge       = 0
  Multiplicity = 1
  Basis Set: AUG-CC-PVTZ
    Blend: AUG-CC-PVTZ
  Basis Set: (AUG-CC-PVTZ AUX)
    Blend: AUG-CC-PVTZ-JKFIT

    Orbital Energies [Eh]
    ---------------------

    Doubly Occupied:

       1A    -20.600075     2A    -15.596270     3A    -11.257848
       4A    -11.240894     5A    -11.225855     6A     -1.441849
       7A     -1.231360     8A     -1.034234     9A     -0.867477
      10A     -0.742416    11A     -0.727117    12A     -0.657291
      13A     -0.628894    14A     -0.605662    15A     -0.569475
      16A     -0.536989    17A     -0.514445    18A     -0.493105
      19A     -0.441415    20A     -0.404447

  @DF-RHF Final Energy:  -246.94685863833928

   => Energetics <=

    Nuclear Repulsion Energy =            173.0392838234020303
    One-Electron Energy =                -678.3380474349644373
    Two-Electron Energy =                 258.3519049732231565
    Total Energy =                       -246.9468586383392790
  Basis Set: (AUG-CC-PVTZ AUX)
    Blend: AUG-CC-PVTZ-RI
    Molecular point group: c1

    Geometry (in Angstrom), charge = 0, multiplicity = 1:

       Center              X                  Y                   Z               Mass
    ------------   -----------------  -----------------  -----------------  -----------------
         O            2.193632738386    -0.352121480416     0.076820212086    15.994914619570
         N            1.018264738386     0.319730519584    -0.343382787914    14.003074004430
         C           -1.316536261614     0.587729519584     0.154982212086    12.000000000000
         C           -2.340728261614    -0.499420480416    -0.182913787914    12.000000000000
         C            0.187792538386     0.058050919584     0.305758512086    12.000000000000
         H           -1.651236261614     1.146566519584     1.037713212086     1.007825032230
         H           -1.225652261614     1.301514519584    -0.669258787914     1.007825032230
         H           -2.044376261614    -1.036733480416    -1.087497787914     1.007825032230
         H           -2.427365261614    -1.226134480416     0.630261212086     1.007825032230
         H           -3.328808261614    -0.062417480416    -0.351143787914     1.007825032230
         H            0.180302738386    -0.685961480416     1.256202212086     1.007825032230
         H            2.844873738386    -0.033541480416    -0.572425787914     1.007825032230

  Basis Set: AUG-CC-PVTZ
    Blend: AUG-CC-PVTZ
  Basis Set: (AUG-CC-PVTZ AUX)
    Blend: AUG-CC-PVTZ-JKFIT
	 Reference Energy          =    -246.9468586383392790 [Eh]
	 Singles Energy            =      -0.0000000000000000 [Eh]
	 Same-Spin Energy          =      -0.2431205306440293 [Eh]
	 Opposite-Spin Energy      =      -0.8114318603252556 [Eh]
	 Correlation Energy        =      -1.0545523909692849 [Eh]
	 Total Energy              =    -248.0014110293085707 [Eh]

	 ================> DF-SCS-MP2 Energies <==================
	-----------------------------------------------------------
	 SCS Same-Spin Scale       =       0.3333333333333333 [-]
	 SCS Opposite-Spin Scale   =       1.2000000000000000 [-]
	 SCS Same-Spin Energy      =      -0.0810401768813431 [Eh]
	 SCS Opposite-Spin Energy  =      -0.9737182323903066 [Eh]
	 SCS Correlation Energy    =      -1.0547584092716498 [Eh]
	 SCS Total Energy          =    -248.0016170476109210 [Eh]
	-----------------------------------------------------------

  Dipole Moment: [D]
     X:    -0.8776      Y:     0.1585      Z:    -0.0300     Total:     0.8923

*** Psi4 exiting successfully. Buy a developer a beer!
