                               Psi4 1.3.2 release

  ==> Input File <==

--------------------------------------------------------------------------
#psi4
#
memory 32 gb

molecule  {
0 1
  O        2.3113770    -0.3374580     0.0558470
  N        1.0882159     0.2900435    -0.2899337
  C       -1.1987920     0.6023930     0.1340090
  C       -2.2229840    -0.4847570    -0.2038870
  C        0.1526050     0.0245260     0.4043250
  H       -1.5334920     1.1612300     1.0167400
  H       -1.1079080     1.3161780    -0.6902320
  H       -1.9266320    -1.0220700    -1.1084710
  H       -2.3096210    -1.2114710     0.6092880
  H       -3.2110640    -0.0477540    -0.3721170
  H        0.2980470    -0.6712980     1.2352290
  H        2.9626180    -0.0188780    -0.5933990
units angstrom
no_reorient  #important for SAPT in psi4, default
symmetry c1  #important for SAPT in psi4, default
}

set PROPERTIES_ORIGIN ["COM"]
properties('MP2/aug-cc-pvtz', properties = ['dipole'])
--------------------------------------------------------------------------

    Molecular point group: c1
  Charge       = 0
  Multiplicity = 1
  Basis Set: AUG-CC-PVTZ
    Blend: AUG-CC-PVTZ
  Basis Set: (AUG-CC-PVTZ AUX)
    Blend: AUG-CC-PVTZ-JKFIT

    Orbital Energies [Eh]
    ---------------------

    Doubly Occupied:

       1A    -20.595109     2A    -15.607575     3A    -11.260001
       4A    -11.238027     5A    -11.226320     6A     -1.413853
       7A     -1.196149     8A     -1.041024     9A     -0.879184
      10A     -0.766748    11A     -0.720206    12A     -0.653108
      13A     -0.621886    14A     -0.589046    15A     -0.585617
      16A     -0.535530    17A     -0.515890    18A     -0.499857
      19A     -0.422169    20A     -0.408300

  @DF-RHF Final Energy:  -247.01209795531693

   => Energetics <=

    Nuclear Repulsion Energy =            172.4112062394162308
    One-Electron Energy =                -677.2954105306079100
    Two-Electron Energy =                 257.8721063358747188
    Total Energy =                       -247.0120979553169605
  Basis Set: (AUG-CC-PVTZ AUX)
    Blend: AUG-CC-PVTZ-RI
    Molecular point group: c1

    Geometry (in Angstrom), charge = 0, multiplicity = 1:

       Center              X                  Y                   Z               Mass
    ------------   -----------------  -----------------  -----------------  -----------------
         O            2.227915245771    -0.335704522721     0.042918450620    15.994914619570
         N            1.004754145771     0.291796977279    -0.302862249380    14.003074004430
         C           -1.282253754229     0.604146477279     0.121080450620    12.000000000000
         C           -2.306445754229    -0.483003522721    -0.216815549380    12.000000000000
         C            0.069143245771     0.026279477279     0.391396450620    12.000000000000
         H           -1.616953754229     1.162983477279     1.003811450620     1.007825032230
         H           -1.191369754229     1.317931477279    -0.703160549380     1.007825032230
         H           -2.010093754229    -1.020316522721    -1.121399549380     1.007825032230
         H           -2.393082754229    -1.209717522721     0.596359450620     1.007825032230
         H           -3.294525754229    -0.046000522721    -0.385045549380     1.007825032230
         H            0.214585245771    -0.669544522721     1.222300450620     1.007825032230
         H            2.879156245771    -0.017124522721    -0.606327549380     1.007825032230

  Basis Set: AUG-CC-PVTZ
    Blend: AUG-CC-PVTZ
  Basis Set: (AUG-CC-PVTZ AUX)
    Blend: AUG-CC-PVTZ-JKFIT
	 Reference Energy          =    -247.0120979553169320 [Eh]
	 Singles Energy            =      -0.0000000000000000 [Eh]
	 Same-Spin Energy          =      -0.2438249828093836 [Eh]
	 Opposite-Spin Energy      =      -0.8137117556392810 [Eh]
	 Correlation Energy        =      -1.0575367384486647 [Eh]
	 Total Energy              =    -248.0696346937656074 [Eh]

	 ================> DF-SCS-MP2 Energies <==================
	-----------------------------------------------------------
	 SCS Same-Spin Scale       =       0.3333333333333333 [-]
	 SCS Opposite-Spin Scale   =       1.2000000000000000 [-]
	 SCS Same-Spin Energy      =      -0.0812749942697945 [Eh]
	 SCS Opposite-Spin Energy  =      -0.9764541067671372 [Eh]
	 SCS Correlation Energy    =      -1.0577291010369316 [Eh]
	 SCS Total Energy          =    -248.0698270563538586 [Eh]
	-----------------------------------------------------------

  Dipole Moment: [D]
     X:    -0.9387      Y:     0.1181      Z:     0.0638     Total:     0.9482

*** Psi4 exiting successfully. Buy a developer a beer!
