                               Psi4 1.3.2 release

  ==> Input File <==

--------------------------------------------------------------------------
#psi4
#
memory 32 gb

molecule  {
0 1
  O        2.3113770    -0.3374580     0.0558470
  N        1.1360090     0.3343940    -0.3643560
  C       -1.1987920     0.6023930     0.1340090
  C       -2.2229840    -0.4847570    -0.2038870
  C        0.2290709     0.0486202     0.3445552
  H       -1.5334920     1.1612300     1.0167400
  H       -1.1079080     1.3161780    -0.6902320
  H       -1.9266320    -1.0220700    -1.1084710
  H       -2.3096210    -1.2114710     0.6092880
  H       -3.2110640    -0.0477540    -0.3721170
  H        0.2980470    -0.6712980     1.2352290
  H        2.9626180    -0.0188780    -0.5933990
units angstrom
no_reorient  #important for SAPT in psi4, default
symmetry c1  #important for SAPT in psi4, default
}

set PROPERTIES_ORIGIN ["COM"]
properties('MP2/aug-cc-pvtz', properties = ['dipole'])
--------------------------------------------------------------------------

    Molecular point group: c1
  Charge       = 0
  Multiplicity = 1
  Basis Set: AUG-CC-PVTZ
    Blend: AUG-CC-PVTZ
  Basis Set: (AUG-CC-PVTZ AUX)
    Blend: AUG-CC-PVTZ-JKFIT

    Orbital Energies [Eh]
    ---------------------

    Doubly Occupied:

       1A    -20.595556     2A    -15.610810     3A    -11.267758
       4A    -11.240378     5A    -11.226644     6A     -1.422618
       7A     -1.193181     8A     -1.037610     9A     -0.874517
      10A     -0.758056    11A     -0.713823    12A     -0.656557
      13A     -0.619710    14A     -0.593530    15A     -0.576050
      16A     -0.533584    17A     -0.512494    18A     -0.495735
      19A     -0.429956    20A     -0.412975

  @DF-RHF Final Energy:  -247.00635071612658

   => Energetics <=

    Nuclear Repulsion Energy =            171.7003579901711419
    One-Electron Energy =                -675.8703351467064522
    Two-Electron Energy =                 257.1636264404087342
    Total Energy =                       -247.0063507161265761
  Basis Set: (AUG-CC-PVTZ AUX)
    Blend: AUG-CC-PVTZ-RI
    Molecular point group: c1

    Geometry (in Angstrom), charge = 0, multiplicity = 1:

       Center              X                  Y                   Z               Mass
    ------------   -----------------  -----------------  -----------------  -----------------
         O            2.206193396623    -0.348163650695     0.067002119489    15.994914619570
         N            1.030825396623     0.323688349305    -0.353200880511    14.003074004430
         C           -1.303975603377     0.591687349305     0.145164119489    12.000000000000
         C           -2.328167603377    -0.495462650695    -0.192731880511    12.000000000000
         C            0.123887296623     0.037914549305     0.355710319489    12.000000000000
         H           -1.638675603377     1.150524349305     1.027895119489     1.007825032230
         H           -1.213091603377     1.305472349305    -0.679076880511     1.007825032230
         H           -2.031815603377    -1.032775650695    -1.097315880511     1.007825032230
         H           -2.414804603377    -1.222176650695     0.620443119489     1.007825032230
         H           -3.316247603377    -0.058459650695    -0.360961880511     1.007825032230
         H            0.192863396623    -0.682003650695     1.246384119489     1.007825032230
         H            2.857434396623    -0.029583650695    -0.582243880511     1.007825032230

  Basis Set: AUG-CC-PVTZ
    Blend: AUG-CC-PVTZ
  Basis Set: (AUG-CC-PVTZ AUX)
    Blend: AUG-CC-PVTZ-JKFIT
	 Reference Energy          =    -247.0063507161265761 [Eh]
	 Singles Energy            =      -0.0000000000000000 [Eh]
	 Same-Spin Energy          =      -0.2436259815615839 [Eh]
	 Opposite-Spin Energy      =      -0.8141343466114916 [Eh]
	 Correlation Energy        =      -1.0577603281730756 [Eh]
	 Total Energy              =    -248.0641110442996649 [Eh]

	 ================> DF-SCS-MP2 Energies <==================
	-----------------------------------------------------------
	 SCS Same-Spin Scale       =       0.3333333333333333 [-]
	 SCS Opposite-Spin Scale   =       1.2000000000000000 [-]
	 SCS Same-Spin Energy      =      -0.0812086605205280 [Eh]
	 SCS Opposite-Spin Energy  =      -0.9769612159337899 [Eh]
	 SCS Correlation Energy    =      -1.0581698764543179 [Eh]
	 SCS Total Energy          =    -248.0645205925808909 [Eh]
	-----------------------------------------------------------

  Dipole Moment: [D]
     X:    -0.9300      Y:     0.0887      Z:     0.0876     Total:     0.9384

*** Psi4 exiting successfully. Buy a developer a beer!
