                               Psi4 1.4a3.dev225

  ==> Input File <==

--------------------------------------------------------------------------
#psi4
#
memory 32 gb

molecule  {
0 1
  O        2.3113080    -0.3373280     0.0560680
  N        1.0944018     0.3575518    -0.3796000
  C       -1.1988180     0.6025260     0.1336480
  C       -2.2227880    -0.4850450    -0.2036580
  C        0.1526150     0.0250550     0.4045550
  H       -1.5338160     1.1619340     1.0159040
  H       -1.1079660     1.3157390    -0.6910980
  H       -1.9258830    -1.0232670    -1.1075140
  H       -2.3098400    -1.2108550     0.6102710
  H       -3.2107560    -0.0481840    -0.3728900
  H        0.2982470    -0.6695660     1.2364510
  H        2.9624570    -0.0195260    -0.5936430
units angstrom
no_reorient  #important for SAPT in psi4, default
symmetry c1  #important for SAPT in psi4, default
}

set PROPERTIES_ORIGIN ["COM"]
properties('MP2/aug-cc-pvtz', properties = ['dipole'])
--------------------------------------------------------------------------

    Molecular point group: c1
  Charge       = 0
  Multiplicity = 1
  Basis Set: AUG-CC-PVTZ
    Blend: AUG-CC-PVTZ
  Basis Set: (AUG-CC-PVTZ AUX)
    Blend: AUG-CC-PVTZ-JKFIT

    Orbital Energies [Eh]
    ---------------------

    Doubly Occupied:

       1A    -20.588086     2A    -15.624326     3A    -11.279174
       4A    -11.240262     5A    -11.228385     6A     -1.389112
       7A     -1.170848     8A     -1.039413     9A     -0.881056
      10A     -0.774672    11A     -0.694702    12A     -0.647831
      13A     -0.613356    14A     -0.587770    15A     -0.572482
      16A     -0.531822    17A     -0.513193    18A     -0.502053
      19A     -0.445705    20A     -0.396113

  @DF-RHF Final Energy:  -247.01225585839046

   => Energetics <=

    Nuclear Repulsion Energy =            170.3941113920507178
    One-Electron Energy =                -673.3720158511825957
    Two-Electron Energy =                 255.9656486007414173
    Total Energy =                       -247.0122558583904606
  Basis Set: (AUG-CC-PVTZ AUX)
    Blend: AUG-CC-PVTZ-RI
    Molecular point group: c1

    Geometry (in Angstrom), charge = 0, multiplicity = 1:

       Center              X                  Y                   Z               Mass
    ------------   -----------------  -----------------  -----------------  -----------------
         O            2.226639216288    -0.348609371156     0.060256482558    15.994914619570
         N            1.009733016288     0.346270428844    -0.375411517442    14.003074004430
         C           -1.283486783712     0.591244628844     0.137836482558    12.000000000000
         C           -2.307456783712    -0.496326371156    -0.199469517442    12.000000000000
         C            0.067946216288     0.013773628844     0.408743482558    12.000000000000
         H           -1.618484783712     1.150652628844     1.020092482558     1.007825032230
         H           -1.192634783712     1.304457628844    -0.686909517442     1.007825032230
         H           -2.010551783712    -1.034548371156    -1.103325517442     1.007825032230
         H           -2.394508783712    -1.222136371156     0.614459482558     1.007825032230
         H           -3.295424783712    -0.059465371156    -0.368701517442     1.007825032230
         H            0.213578216288    -0.680847371156     1.240639482558     1.007825032230
         H            2.877788216288    -0.030807371156    -0.589454517442     1.007825032230

  Basis Set: AUG-CC-PVTZ
    Blend: AUG-CC-PVTZ
  Basis Set: (AUG-CC-PVTZ AUX)
    Blend: AUG-CC-PVTZ-JKFIT
	 Reference Energy          =    -247.0122558583904606 [Eh]
	 Singles Energy            =      -0.0000000000000000 [Eh]
	 Same-Spin Energy          =      -0.2454883241255333 [Eh]
	 Opposite-Spin Energy      =      -0.8200347835149888 [Eh]
	 Correlation Energy        =      -1.0655231076405220 [Eh]
	 Total Energy              =    -248.0777789660309907 [Eh]

	 ================> DF-SCS-MP2 Energies <==================
	-----------------------------------------------------------
	 SCS Same-Spin Scale       =       0.3333333333333333 [-]
	 SCS Opposite-Spin Scale   =       1.2000000000000000 [-]
	 SCS Same-Spin Energy      =      -0.0818294413751778 [Eh]
	 SCS Opposite-Spin Energy  =      -0.9840417402179865 [Eh]
	 SCS Correlation Energy    =      -1.0658711815931643 [Eh]
	 SCS Total Energy          =    -248.0781270399836274 [Eh]
	-----------------------------------------------------------

  Dipole Moment: [D]
     X:    -1.1262      Y:     0.0635      Z:     0.1972     Total:     1.1451

*** Psi4 exiting successfully. Buy a developer a beer!
