                               Psi4 1.3.2 release

  ==> Input File <==

--------------------------------------------------------------------------
#psi4
#
memory 32 gb

molecule  {
0 1
  O        2.3113770    -0.3374580     0.0558470
  N        1.1360090     0.3343940    -0.3643560
  C       -1.1987920     0.6023930     0.1340090
  C       -2.2229840    -0.4847570    -0.2038870
  C        0.1526050     0.0245260     0.4043250
  H       -1.5334920     1.1612300     1.0167400
  H       -1.1079080     1.3161780    -0.6902320
  H       -1.9266320    -1.0220700    -1.1084710
  H       -2.3096210    -1.2114710     0.6092880
  H       -3.2110640    -0.0477540    -0.3721170
  H        0.2980470    -0.6712980     1.2352290
  H        3.0964523     0.0465923    -0.7268233
units angstrom
no_reorient  #important for SAPT in psi4, default
symmetry c1  #important for SAPT in psi4, default
}

set PROPERTIES_ORIGIN ["COM"]
properties('MP2/aug-cc-pvtz', properties = ['dipole'])
--------------------------------------------------------------------------

    Molecular point group: c1
  Charge       = 0
  Multiplicity = 1
  Basis Set: AUG-CC-PVTZ
    Blend: AUG-CC-PVTZ
  Basis Set: (AUG-CC-PVTZ AUX)
    Blend: AUG-CC-PVTZ-JKFIT

    Orbital Energies [Eh]
    ---------------------

    Doubly Occupied:

       1A    -20.607098     2A    -15.620399     3A    -11.274816
       4A    -11.238528     5A    -11.226351     6A     -1.385660
       7A     -1.144848     8A     -1.032984     9A     -0.877220
      10A     -0.771695    11A     -0.674508    12A     -0.643607
      13A     -0.609730    14A     -0.580693    15A     -0.573833
      16A     -0.529375    17A     -0.506844    18A     -0.499651
      19A     -0.436566    20A     -0.382302

  @DF-RHF Final Energy:  -246.97877303262896

   => Energetics <=

    Nuclear Repulsion Energy =            169.6466771923736587
    One-Electron Energy =                -672.0174818134913721
    Two-Electron Energy =                 255.3920315884887486
    Total Energy =                       -246.9787730326289648
  Basis Set: (AUG-CC-PVTZ AUX)
    Blend: AUG-CC-PVTZ-RI
    Molecular point group: c1

    Geometry (in Angstrom), charge = 0, multiplicity = 1:

       Center              X                  Y                   Z               Mass
    ------------   -----------------  -----------------  -----------------  -----------------
         O            2.216907696822    -0.345109039465     0.059024745056    15.994914619570
         N            1.041539696822     0.326742960535    -0.361178254944    14.003074004430
         C           -1.293261303178     0.594741960535     0.137186745056    12.000000000000
         C           -2.317453303178    -0.492408039465    -0.200709254944    12.000000000000
         C            0.058135696822     0.016874960535     0.407502745056    12.000000000000
         H           -1.627961303178     1.153578960535     1.019917745056     1.007825032230
         H           -1.202377303178     1.308526960535    -0.687054254944     1.007825032230
         H           -2.021101303178    -1.029721039465    -1.105293254944     1.007825032230
         H           -2.404090303178    -1.219122039465     0.612465745056     1.007825032230
         H           -3.305533303178    -0.055405039465    -0.368939254944     1.007825032230
         H            0.203577696822    -0.678949039465     1.238406745056     1.007825032230
         H            3.001982996822     0.038941260535    -0.723645554944     1.007825032230

  Basis Set: AUG-CC-PVTZ
    Blend: AUG-CC-PVTZ
  Basis Set: (AUG-CC-PVTZ AUX)
    Blend: AUG-CC-PVTZ-JKFIT
	 Reference Energy          =    -246.9787730326289648 [Eh]
	 Singles Energy            =      -0.0000000000000000 [Eh]
	 Same-Spin Energy          =      -0.2478115352850248 [Eh]
	 Opposite-Spin Energy      =      -0.8260889022380500 [Eh]
	 Correlation Energy        =      -1.0739004375230747 [Eh]
	 Total Energy              =    -248.0526734701520297 [Eh]

	 ================> DF-SCS-MP2 Energies <==================
	-----------------------------------------------------------
	 SCS Same-Spin Scale       =       0.3333333333333333 [-]
	 SCS Opposite-Spin Scale   =       1.2000000000000000 [-]
	 SCS Same-Spin Energy      =      -0.0826038450950083 [Eh]
	 SCS Opposite-Spin Energy  =      -0.9913066826856599 [Eh]
	 SCS Correlation Energy    =      -1.0739105277806682 [Eh]
	 SCS Total Energy          =    -248.0526835604096334 [Eh]
	-----------------------------------------------------------

  Dipole Moment: [D]
     X:    -0.7349      Y:     0.1039      Z:     0.0130     Total:     0.7424

*** Psi4 exiting successfully. Buy a developer a beer!
