                               Psi4 1.3.2 release

  ==> Input File <==

--------------------------------------------------------------------------
#psi4
#
memory 32 gb

molecule  {
0 1
  O        2.3113770    -0.3374580     0.0558470
  N        1.0530935     0.3817893    -0.3939989
  C       -1.1987920     0.6023930     0.1340090
  C       -2.2229840    -0.4847570    -0.2038870
  C        0.1526050     0.0245260     0.4043250
  H       -1.5334920     1.1612300     1.0167400
  H       -1.1079080     1.3161780    -0.6902320
  H       -1.9266320    -1.0220700    -1.1084710
  H       -2.3096210    -1.2114710     0.6092880
  H       -3.2110640    -0.0477540    -0.3721170
  H        0.2980470    -0.6712980     1.2352290
  H        2.9626180    -0.0188780    -0.5933990
units angstrom
no_reorient  #important for SAPT in psi4, default
symmetry c1  #important for SAPT in psi4, default
}

set PROPERTIES_ORIGIN ["COM"]
properties('MP2/aug-cc-pvtz', properties = ['dipole'])
--------------------------------------------------------------------------

    Molecular point group: c1
  Charge       = 0
  Multiplicity = 1
  Basis Set: AUG-CC-PVTZ
    Blend: AUG-CC-PVTZ
  Basis Set: (AUG-CC-PVTZ AUX)
    Blend: AUG-CC-PVTZ-JKFIT

    Orbital Energies [Eh]
    ---------------------

    Doubly Occupied:

       1A    -20.583226     2A    -15.626620     3A    -11.281012
       4A    -11.240867     5A    -11.229273     6A     -1.371374
       7A     -1.181306     8A     -1.040570     9A     -0.880912
      10A     -0.776426    11A     -0.687451    12A     -0.642014
      13A     -0.611259    14A     -0.588286    15A     -0.565787
      16A     -0.530333    17A     -0.514362    18A     -0.503326
      19A     -0.446039    20A     -0.405327

  @DF-RHF Final Energy:  -247.00620943862535

   => Energetics <=

    Nuclear Repulsion Energy =            170.1697128709106437
    One-Electron Energy =                -672.9403050142381062
    Two-Electron Energy =                 255.7643827047021148
    Total Energy =                       -247.0062094386253477
  Basis Set: (AUG-CC-PVTZ AUX)
    Blend: AUG-CC-PVTZ-RI
    Molecular point group: c1

    Geometry (in Angstrom), charge = 0, multiplicity = 1:

       Center              X                  Y                   Z               Mass
    ------------   -----------------  -----------------  -----------------  -----------------
         O            2.234647661363    -0.353290759836     0.062866124330    15.994914619570
         N            0.976364161363     0.365956540164    -0.386979775670    14.003074004430
         C           -1.275521338637     0.586560240164     0.141028124330    12.000000000000
         C           -2.299713338637    -0.500589759836    -0.196867875670    12.000000000000
         C            0.075875661363     0.008693240164     0.411344124330    12.000000000000
         H           -1.610221338637     1.145397240164     1.023759124330     1.007825032230
         H           -1.184637338637     1.300345240164    -0.683212875670     1.007825032230
         H           -2.003361338637    -1.037902759836    -1.101451875670     1.007825032230
         H           -2.386350338637    -1.227303759836     0.616307124330     1.007825032230
         H           -3.287793338637    -0.063586759836    -0.365097875670     1.007825032230
         H            0.221317661363    -0.687130759836     1.242248124330     1.007825032230
         H            2.885888661363    -0.034710759836    -0.586379875670     1.007825032230

  Basis Set: AUG-CC-PVTZ
    Blend: AUG-CC-PVTZ
  Basis Set: (AUG-CC-PVTZ AUX)
    Blend: AUG-CC-PVTZ-JKFIT
	 Reference Energy          =    -247.0062094386253477 [Eh]
	 Singles Energy            =      -0.0000000000000000 [Eh]
	 Same-Spin Energy          =      -0.2457167444298053 [Eh]
	 Opposite-Spin Energy      =      -0.8215619837125047 [Eh]
	 Correlation Energy        =      -1.0672787281423100 [Eh]
	 Total Energy              =    -248.0734881667676461 [Eh]

	 ================> DF-SCS-MP2 Energies <==================
	-----------------------------------------------------------
	 SCS Same-Spin Scale       =       0.3333333333333333 [-]
	 SCS Opposite-Spin Scale   =       1.2000000000000000 [-]
	 SCS Same-Spin Energy      =      -0.0819055814766018 [Eh]
	 SCS Opposite-Spin Energy  =      -0.9858743804550055 [Eh]
	 SCS Correlation Energy    =      -1.0677799619316073 [Eh]
	 SCS Total Energy          =    -248.0739894005569681 [Eh]
	-----------------------------------------------------------

  Dipole Moment: [D]
     X:    -1.2940      Y:     0.0749      Z:     0.2384     Total:     1.3179

*** Psi4 exiting successfully. Buy a developer a beer!
