                               Psi4 1.3.2 release

  ==> Input File <==

--------------------------------------------------------------------------
#psi4
#
memory 32 gb

molecule  {
0 1
  O        2.3113770    -0.3374580     0.0558470
  N        1.0665406     0.2667078    -0.2520679
  C       -1.1987920     0.6023930     0.1340090
  C       -2.2229840    -0.4847570    -0.2038870
  C        0.1526050     0.0245260     0.4043250
  H       -1.5334920     1.1612300     1.0167400
  H       -1.1079080     1.3161780    -0.6902320
  H       -1.9266320    -1.0220700    -1.1084710
  H       -2.3096210    -1.2114710     0.6092880
  H       -3.2110640    -0.0477540    -0.3721170
  H        0.2980470    -0.6712980     1.2352290
  H        2.9626180    -0.0188780    -0.5933990
units angstrom
no_reorient  #important for SAPT in psi4, default
symmetry c1  #important for SAPT in psi4, default
}

set PROPERTIES_ORIGIN ["COM"]
properties('MP2/aug-cc-pvtz', properties = ['dipole'])
--------------------------------------------------------------------------

    Molecular point group: c1
  Charge       = 0
  Multiplicity = 1
  Basis Set: AUG-CC-PVTZ
    Blend: AUG-CC-PVTZ
  Basis Set: (AUG-CC-PVTZ AUX)
    Blend: AUG-CC-PVTZ-JKFIT

    Orbital Energies [Eh]
    ---------------------

    Doubly Occupied:

       1A    -20.596574     2A    -15.599439     3A    -11.251701
       4A    -11.237007     5A    -11.225745     6A     -1.416727
       7A     -1.214901     8A     -1.041853     9A     -0.878352
      10A     -0.763473    11A     -0.729464    12A     -0.652674
      13A     -0.625055    14A     -0.593647    15A     -0.585397
      16A     -0.537199    17A     -0.517199    18A     -0.499271
      19A     -0.419742    20A     -0.409866

  @DF-RHF Final Energy:  -246.99774513052171

   => Energetics <=

    Nuclear Repulsion Energy =            173.3315679204829109
    One-Electron Energy =                -679.0680542203771211
    Two-Electron Energy =                 258.7387411693724744
    Total Energy =                       -246.9977451305217073
  Basis Set: (AUG-CC-PVTZ AUX)
    Blend: AUG-CC-PVTZ-RI
    Molecular point group: c1

    Geometry (in Angstrom), charge = 0, multiplicity = 1:

       Center              X                  Y                   Z               Mass
    ------------   -----------------  -----------------  -----------------  -----------------
         O            2.232070062290    -0.331231433452     0.035660168090    15.994914619570
         N            0.987233662290     0.272934366548    -0.272254731910    14.003074004430
         C           -1.278098937710     0.608619566548     0.113822168090    12.000000000000
         C           -2.302290937710    -0.478530433452    -0.224073831910    12.000000000000
         C            0.073298062290     0.030752566548     0.384138168090    12.000000000000
         H           -1.612798937710     1.167456566548     0.996553168090     1.007825032230
         H           -1.187214937710     1.322404566548    -0.710418831910     1.007825032230
         H           -2.005938937710    -1.015843433452    -1.128657831910     1.007825032230
         H           -2.388927937710    -1.205244433452     0.589101168090     1.007825032230
         H           -3.290370937710    -0.041527433452    -0.392303831910     1.007825032230
         H            0.218740062290    -0.665071433452     1.215042168090     1.007825032230
         H            2.883311062290    -0.012651433452    -0.613585831910     1.007825032230

  Basis Set: AUG-CC-PVTZ
    Blend: AUG-CC-PVTZ
  Basis Set: (AUG-CC-PVTZ AUX)
    Blend: AUG-CC-PVTZ-JKFIT
	 Reference Energy          =    -246.9977451305217073 [Eh]
	 Singles Energy            =      -0.0000000000000000 [Eh]
	 Same-Spin Energy          =      -0.2434015140634937 [Eh]
	 Opposite-Spin Energy      =      -0.8118077327865725 [Eh]
	 Correlation Energy        =      -1.0552092468500662 [Eh]
	 Total Energy              =    -248.0529543773717762 [Eh]

	 ================> DF-SCS-MP2 Energies <==================
	-----------------------------------------------------------
	 SCS Same-Spin Scale       =       0.3333333333333333 [-]
	 SCS Opposite-Spin Scale   =       1.2000000000000000 [-]
	 SCS Same-Spin Energy      =      -0.0811338380211646 [Eh]
	 SCS Opposite-Spin Energy  =      -0.9741692793438870 [Eh]
	 SCS Correlation Energy    =      -1.0553031173650516 [Eh]
	 SCS Total Energy          =    -248.0530482478867498 [Eh]
	-----------------------------------------------------------

  Dipole Moment: [D]
     X:    -0.9138      Y:     0.1612      Z:     0.0011     Total:     0.9279

*** Psi4 exiting successfully. Buy a developer a beer!
