                               Psi4 1.4a3.dev225

  ==> Input File <==

--------------------------------------------------------------------------
#psi4
#
memory 32 gb

molecule  {
0 1
  O        2.3113080    -0.3373280     0.0560680
  N        1.1358640     0.3338760    -0.3647560
  C       -1.1988180     0.6025260     0.1336480
  C       -2.2227880    -0.4850450    -0.2036580
  C        0.1373243     0.0202525     0.4165187
  H       -1.5338160     1.1619340     1.0159040
  H       -1.1079660     1.3157390    -0.6910980
  H       -1.9258830    -1.0232670    -1.1075140
  H       -2.3098400    -1.2108550     0.6102710
  H       -3.2107560    -0.0481840    -0.3728900
  H        0.2982470    -0.6695660     1.2364510
  H        2.9624570    -0.0195260    -0.5936430
units angstrom
no_reorient  #important for SAPT in psi4, default
symmetry c1  #important for SAPT in psi4, default
}

set PROPERTIES_ORIGIN ["COM"]
properties('MP2/aug-cc-pvtz', properties = ['dipole'])
--------------------------------------------------------------------------

    Molecular point group: c1
  Charge       = 0
  Multiplicity = 1
  Basis Set: AUG-CC-PVTZ
    Blend: AUG-CC-PVTZ
  Basis Set: (AUG-CC-PVTZ AUX)
    Blend: AUG-CC-PVTZ-JKFIT

    Orbital Energies [Eh]
    ---------------------

    Doubly Occupied:

       1A    -20.592556     2A    -15.624900     3A    -11.279078
       4A    -11.239671     5A    -11.227609     6A     -1.408026
       7A     -1.154523     8A     -1.037539     9A     -0.882588
      10A     -0.777097    11A     -0.701171    12A     -0.654170
      13A     -0.614744    14A     -0.589248    15A     -0.579410
      16A     -0.532696    17A     -0.512843    18A     -0.501575
      19A     -0.444140    20A     -0.380648

  @DF-RHF Final Energy:  -247.01247490283126

   => Energetics <=

    Nuclear Repulsion Energy =            170.4669170722925458
    One-Electron Energy =                -673.4903209809168629
    Two-Electron Energy =                 256.0109290057930593
    Total Energy =                       -247.0124749028312863
  Basis Set: (AUG-CC-PVTZ AUX)
    Blend: AUG-CC-PVTZ-RI
    Molecular point group: c1

    Geometry (in Angstrom), charge = 0, multiplicity = 1:

       Center              X                  Y                   Z               Mass
    ------------   -----------------  -----------------  -----------------  -----------------
         O            2.221203284312    -0.343282208172     0.055445904395    15.994914619570
         N            1.045759284312     0.327921791828    -0.365378095605    14.003074004430
         C           -1.288922715688     0.596571791828     0.133025904395    12.000000000000
         C           -2.312892715688    -0.490999208172    -0.204280095605    12.000000000000
         C            0.047219584312     0.014298291828     0.415896604395    12.000000000000
         H           -1.623920715688     1.155979791828     1.015281904395     1.007825032230
         H           -1.198070715688     1.309784791828    -0.691720095605     1.007825032230
         H           -2.015987715688    -1.029221208172    -1.108136095605     1.007825032230
         H           -2.399944715688    -1.216809208172     0.609648904395     1.007825032230
         H           -3.300860715688    -0.054138208172    -0.373512095605     1.007825032230
         H            0.208142284312    -0.675520208172     1.235828904395     1.007825032230
         H            2.872352284312    -0.025480208172    -0.594265095605     1.007825032230

  Basis Set: AUG-CC-PVTZ
    Blend: AUG-CC-PVTZ
  Basis Set: (AUG-CC-PVTZ AUX)
    Blend: AUG-CC-PVTZ-JKFIT
	 Reference Energy          =    -247.0124749028312579 [Eh]
	 Singles Energy            =      -0.0000000000000000 [Eh]
	 Same-Spin Energy          =      -0.2459720252964328 [Eh]
	 Opposite-Spin Energy      =      -0.8200883610427634 [Eh]
	 Correlation Energy        =      -1.0660603863391962 [Eh]
	 Total Energy              =    -248.0785352891704463 [Eh]

	 ================> DF-SCS-MP2 Energies <==================
	-----------------------------------------------------------
	 SCS Same-Spin Scale       =       0.3333333333333333 [-]
	 SCS Opposite-Spin Scale   =       1.2000000000000000 [-]
	 SCS Same-Spin Energy      =      -0.0819906750988109 [Eh]
	 SCS Opposite-Spin Energy  =      -0.9841060332513161 [Eh]
	 SCS Correlation Energy    =      -1.0660967083501269 [Eh]
	 SCS Total Energy          =    -248.0785716111813883 [Eh]
	-----------------------------------------------------------

  Dipole Moment: [D]
     X:    -0.9368      Y:     0.0456      Z:     0.1584     Total:     0.9512

*** Psi4 exiting successfully. Buy a developer a beer!
