                               Psi4 1.4a3.dev225

  ==> Input File <==

--------------------------------------------------------------------------
#psi4
#
memory 32 gb

molecule  {
0 1
  O        2.3113080    -0.3373280     0.0560680
  N        1.1358640     0.3338760    -0.3647560
  C       -1.1988180     0.6025260     0.1336480
  C       -2.2227880    -0.4850450    -0.2036580
  C        0.1143883     0.0130487     0.4344643
  H       -1.5338160     1.1619340     1.0159040
  H       -1.1079660     1.3157390    -0.6910980
  H       -1.9258830    -1.0232670    -1.1075140
  H       -2.3098400    -1.2108550     0.6102710
  H       -3.2107560    -0.0481840    -0.3728900
  H        0.2982470    -0.6695660     1.2364510
  H        2.9624570    -0.0195260    -0.5936430
units angstrom
no_reorient  #important for SAPT in psi4, default
symmetry c1  #important for SAPT in psi4, default
}

set PROPERTIES_ORIGIN ["COM"]
properties('MP2/aug-cc-pvtz', properties = ['dipole'])
--------------------------------------------------------------------------

    Molecular point group: c1
  Charge       = 0
  Multiplicity = 1
  Basis Set: AUG-CC-PVTZ
    Blend: AUG-CC-PVTZ
  Basis Set: (AUG-CC-PVTZ AUX)
    Blend: AUG-CC-PVTZ-JKFIT

    Orbital Energies [Eh]
    ---------------------

    Doubly Occupied:

       1A    -20.592015     2A    -15.627710     3A    -11.281766
       4A    -11.239611     5A    -11.227910     6A     -1.405362
       7A     -1.147338     8A     -1.036364     9A     -0.884488
      10A     -0.781734    11A     -0.698543    12A     -0.653484
      13A     -0.613861    14A     -0.592981    15A     -0.576732
      16A     -0.532818    17A     -0.514688    18A     -0.501793
      19A     -0.444889    20A     -0.373015

  @DF-RHF Final Energy:  -247.00633774657535

   => Energetics <=

    Nuclear Repulsion Energy =            170.2071006683179348
    One-Electron Energy =                -672.9726734904177192
    Two-Electron Energy =                 255.7592350755244297
    Total Energy =                       -247.0063377465753547
  Basis Set: (AUG-CC-PVTZ AUX)
    Blend: AUG-CC-PVTZ-RI
    Molecular point group: c1

    Geometry (in Angstrom), charge = 0, multiplicity = 1:

       Center              X                  Y                   Z               Mass
    ------------   -----------------  -----------------  -----------------  -----------------
         O            2.224970862504    -0.342098877173     0.052498073422    15.994914619570
         N            1.049526862504     0.329105122827    -0.368325926578    14.003074004430
         C           -1.285155137496     0.597755122827     0.130078073422    12.000000000000
         C           -2.309125137496    -0.489815877173    -0.207227926578    12.000000000000
         C            0.028051162504     0.008277822827     0.430894373422    12.000000000000
         H           -1.620153137496     1.157163122827     1.012334073422     1.007825032230
         H           -1.194303137496     1.310968122827    -0.694667926578     1.007825032230
         H           -2.012220137496    -1.028037877173    -1.111083926578     1.007825032230
         H           -2.396177137496    -1.215625877173     0.606701073422     1.007825032230
         H           -3.297093137496    -0.052954877173    -0.376459926578     1.007825032230
         H            0.211909862504    -0.674336877173     1.232881073422     1.007825032230
         H            2.876119862504    -0.024296877173    -0.597212926578     1.007825032230

  Basis Set: AUG-CC-PVTZ
    Blend: AUG-CC-PVTZ
  Basis Set: (AUG-CC-PVTZ AUX)
    Blend: AUG-CC-PVTZ-JKFIT
	 Reference Energy          =    -247.0063377465753547 [Eh]
	 Singles Energy            =      -0.0000000000000000 [Eh]
	 Same-Spin Energy          =      -0.2468432139044744 [Eh]
	 Opposite-Spin Energy      =      -0.8220526798543198 [Eh]
	 Correlation Energy        =      -1.0688958937587942 [Eh]
	 Total Energy              =    -248.0752336403341474 [Eh]

	 ================> DF-SCS-MP2 Energies <==================
	-----------------------------------------------------------
	 SCS Same-Spin Scale       =       0.3333333333333333 [-]
	 SCS Opposite-Spin Scale   =       1.2000000000000000 [-]
	 SCS Same-Spin Energy      =      -0.0822810713014915 [Eh]
	 SCS Opposite-Spin Energy  =      -0.9864632158251838 [Eh]
	 SCS Correlation Energy    =      -1.0687442871266752 [Eh]
	 SCS Total Energy          =    -248.0750820337020173 [Eh]
	-----------------------------------------------------------

  Dipole Moment: [D]
     X:    -0.9310      Y:     0.0407      Z:     0.1655     Total:     0.9465

*** Psi4 exiting successfully. Buy a developer a beer!
