                               Psi4 1.4a3.dev225

  ==> Input File <==

--------------------------------------------------------------------------
#psi4
#
memory 32 gb

molecule  {
0 1
  O        2.3113080    -0.3373280     0.0560680
  N        1.1773262     0.3102002    -0.3499120
  C       -1.1988180     0.6025260     0.1336480
  C       -2.2227880    -0.4850450    -0.2036580
  C        0.1526150     0.0250550     0.4045550
  H       -1.5338160     1.1619340     1.0159040
  H       -1.1079660     1.3157390    -0.6910980
  H       -1.9258830    -1.0232670    -1.1075140
  H       -2.3098400    -1.2108550     0.6102710
  H       -3.2107560    -0.0481840    -0.3728900
  H        0.2982470    -0.6695660     1.2364510
  H        2.9624570    -0.0195260    -0.5936430
units angstrom
no_reorient  #important for SAPT in psi4, default
symmetry c1  #important for SAPT in psi4, default
}

set PROPERTIES_ORIGIN ["COM"]
properties('MP2/aug-cc-pvtz', properties = ['dipole'])
--------------------------------------------------------------------------

    Molecular point group: c1
  Charge       = 0
  Multiplicity = 1
  Basis Set: AUG-CC-PVTZ
    Blend: AUG-CC-PVTZ
  Basis Set: (AUG-CC-PVTZ AUX)
    Blend: AUG-CC-PVTZ-JKFIT

    Orbital Energies [Eh]
    ---------------------

    Doubly Occupied:

       1A    -20.598192     2A    -15.622297     3A    -11.274984
       4A    -11.239175     5A    -11.226281     6A     -1.434623
       7A     -1.148838     8A     -1.036301     9A     -0.881605
      10A     -0.774729    11A     -0.712385    12A     -0.662129
      13A     -0.617691    14A     -0.592073    15A     -0.585394
      16A     -0.532982    17A     -0.510974    18A     -0.499898
      19A     -0.438514    20A     -0.374582

  @DF-RHF Final Energy:  -247.01401048693572

   => Energetics <=

    Nuclear Repulsion Energy =            170.9471574101876001
    One-Electron Energy =                -674.3950437793965875
    Two-Electron Energy =                 256.4338758822732416
    Total Energy =                       -247.0140104869357174
  Basis Set: (AUG-CC-PVTZ AUX)
    Blend: AUG-CC-PVTZ-RI
    Molecular point group: c1

    Geometry (in Angstrom), charge = 0, multiplicity = 1:

       Center              X                  Y                   Z               Mass
    ------------   -----------------  -----------------  -----------------  -----------------
         O            2.210743903794    -0.339532808901     0.054565756580    15.994914619570
         N            1.076762103794     0.307995391099    -0.351414243420    14.003074004430
         C           -1.299382096206     0.600321191099     0.132145756580    12.000000000000
         C           -2.323352096206    -0.487249808901    -0.205160243420    12.000000000000
         C            0.052050903794     0.022850191099     0.403052756580    12.000000000000
         H           -1.634380096206     1.159729191099     1.014401756580     1.007825032230
         H           -1.208530096206     1.313534191099    -0.692600243420     1.007825032230
         H           -2.026447096206    -1.025471808901    -1.109016243420     1.007825032230
         H           -2.410404096206    -1.213059808901     0.608768756580     1.007825032230
         H           -3.311320096206    -0.050388808901    -0.374392243420     1.007825032230
         H            0.197682903794    -0.671770808901     1.234948756580     1.007825032230
         H            2.861892903794    -0.021730808901    -0.595145243420     1.007825032230

  Basis Set: AUG-CC-PVTZ
    Blend: AUG-CC-PVTZ
  Basis Set: (AUG-CC-PVTZ AUX)
    Blend: AUG-CC-PVTZ-JKFIT
	 Reference Energy          =    -247.0140104869357174 [Eh]
	 Singles Energy            =      -0.0000000000000000 [Eh]
	 Same-Spin Energy          =      -0.2456251074472681 [Eh]
	 Opposite-Spin Energy      =      -0.8181500168728428 [Eh]
	 Correlation Energy        =      -1.0637751243201110 [Eh]
	 Total Energy              =    -248.0777856112558197 [Eh]

	 ================> DF-SCS-MP2 Energies <==================
	-----------------------------------------------------------
	 SCS Same-Spin Scale       =       0.3333333333333333 [-]
	 SCS Opposite-Spin Scale   =       1.2000000000000000 [-]
	 SCS Same-Spin Energy      =      -0.0818750358157560 [Eh]
	 SCS Opposite-Spin Energy  =      -0.9817800202474114 [Eh]
	 SCS Correlation Energy    =      -1.0636550560631675 [Eh]
	 SCS Total Energy          =    -248.0776655429988864 [Eh]
	-----------------------------------------------------------

  Dipole Moment: [D]
     X:    -0.7282      Y:     0.0349      Z:     0.1006     Total:     0.7359

*** Psi4 exiting successfully. Buy a developer a beer!
