                               Psi4 1.3.2 release

  ==> Input File <==

--------------------------------------------------------------------------
#psi4
#
memory 32 gb

molecule  {
0 1
  O        2.3113770    -0.3374580     0.0558470
  N        1.2116171     0.2525257    -0.2888427
  C       -1.1987920     0.6023930     0.1340090
  C       -2.2229840    -0.4847570    -0.2038870
  C        0.1526050     0.0245260     0.4043250
  H       -1.5334920     1.1612300     1.0167400
  H       -1.1079080     1.3161780    -0.6902320
  H       -1.9266320    -1.0220700    -1.1084710
  H       -2.3096210    -1.2114710     0.6092880
  H       -3.2110640    -0.0477540    -0.3721170
  H        0.2980470    -0.6712980     1.2352290
  H        2.9626180    -0.0188780    -0.5933990
units angstrom
no_reorient  #important for SAPT in psi4, default
symmetry c1  #important for SAPT in psi4, default
}

set PROPERTIES_ORIGIN ["COM"]
properties('MP2/aug-cc-pvtz', properties = ['dipole'])
--------------------------------------------------------------------------

    Molecular point group: c1
  Charge       = 0
  Multiplicity = 1
  Basis Set: AUG-CC-PVTZ
    Blend: AUG-CC-PVTZ
  Basis Set: (AUG-CC-PVTZ AUX)
    Blend: AUG-CC-PVTZ-JKFIT

    Orbital Energies [Eh]
    ---------------------

    Doubly Occupied:

       1A    -20.607739     2A    -15.615078     3A    -11.263479
       4A    -11.237409     5A    -11.223778     6A     -1.477536
       7A     -1.149211     8A     -1.035816     9A     -0.881568
      10A     -0.779302    11A     -0.733939    12A     -0.672743
      13A     -0.627851    14A     -0.608127    15A     -0.582218
      16A     -0.533650    17A     -0.510672    18A     -0.497379
      19A     -0.418777    20A     -0.367975

  @DF-RHF Final Energy:  -247.00970437303363

   => Energetics <=

    Nuclear Repulsion Energy =            172.2946669400832604
    One-Electron Energy =                -676.9602479301023550
    Two-Electron Energy =                 257.6558766169854380
    Total Energy =                       -247.0097043730336281
  Basis Set: (AUG-CC-PVTZ AUX)
    Blend: AUG-CC-PVTZ-RI
    Molecular point group: c1

    Geometry (in Angstrom), charge = 0, multiplicity = 1:

       Center              X                  Y                   Z               Mass
    ------------   -----------------  -----------------  -----------------  -----------------
         O            2.204261162821    -0.328512946356     0.042709322958    15.994914619570
         N            1.104501262821     0.261470753644    -0.301980377042    14.003074004430
         C           -1.305907837179     0.611338053644     0.120871322958    12.000000000000
         C           -2.330099837179    -0.475811946356    -0.217024677042    12.000000000000
         C            0.045489162821     0.033471053644     0.391187322958    12.000000000000
         H           -1.640607837179     1.170175053644     1.003602322958     1.007825032230
         H           -1.215023837179     1.325123053644    -0.703369677042     1.007825032230
         H           -2.033747837179    -1.013124946356    -1.121608677042     1.007825032230
         H           -2.416736837179    -1.202525946356     0.596150322958     1.007825032230
         H           -3.318179837179    -0.038808946356    -0.385254677042     1.007825032230
         H            0.190931162821    -0.662352946356     1.222091322958     1.007825032230
         H            2.855502162821    -0.009932946356    -0.606536677042     1.007825032230

  Basis Set: AUG-CC-PVTZ
    Blend: AUG-CC-PVTZ
  Basis Set: (AUG-CC-PVTZ AUX)
    Blend: AUG-CC-PVTZ-JKFIT
	 Reference Energy          =    -247.0097043730336281 [Eh]
	 Singles Energy            =      -0.0000000000000000 [Eh]
	 Same-Spin Energy          =      -0.2451303195535122 [Eh]
	 Opposite-Spin Energy      =      -0.8146487205977382 [Eh]
	 Correlation Energy        =      -1.0597790401512504 [Eh]
	 Total Energy              =    -248.0694834131848836 [Eh]

	 ================> DF-SCS-MP2 Energies <==================
	-----------------------------------------------------------
	 SCS Same-Spin Scale       =       0.3333333333333333 [-]
	 SCS Opposite-Spin Scale   =       1.2000000000000000 [-]
	 SCS Same-Spin Energy      =      -0.0817101065178374 [Eh]
	 SCS Opposite-Spin Energy  =      -0.9775784647172858 [Eh]
	 SCS Correlation Energy    =      -1.0592885712351232 [Eh]
	 SCS Total Energy          =    -248.0689929442687571 [Eh]
	-----------------------------------------------------------

  Dipole Moment: [D]
     X:    -0.3876      Y:     0.0519      Z:    -0.0340     Total:     0.3925

*** Psi4 exiting successfully. Buy a developer a beer!
