                               Psi4 1.3.2 release

  ==> Input File <==

--------------------------------------------------------------------------
#psi4
#
memory 32 gb

molecule  {
0 1
  O        2.3113770    -0.3374580     0.0558470
  N        1.1493825     0.3209612    -0.3523341
  C       -1.1987920     0.6023930     0.1340090
  C       -2.2229840    -0.4847570    -0.2038870
  C        0.1526050     0.0245260     0.4043250
  H       -1.5334920     1.1612300     1.0167400
  H       -1.1079080     1.3161780    -0.6902320
  H       -1.9266320    -1.0220700    -1.1084710
  H       -2.3096210    -1.2114710     0.6092880
  H       -3.2110640    -0.0477540    -0.3721170
  H        0.2980470    -0.6712980     1.2352290
  H        2.9626180    -0.0188780    -0.5933990
units angstrom
no_reorient  #important for SAPT in psi4, default
symmetry c1  #important for SAPT in psi4, default
}

set PROPERTIES_ORIGIN ["COM"]
properties('MP2/aug-cc-pvtz', properties = ['dipole'])
--------------------------------------------------------------------------

    Molecular point group: c1
  Charge       = 0
  Multiplicity = 1
  Basis Set: AUG-CC-PVTZ
    Blend: AUG-CC-PVTZ
  Basis Set: (AUG-CC-PVTZ AUX)
    Blend: AUG-CC-PVTZ-JKFIT

    Orbital Energies [Eh]
    ---------------------

    Doubly Occupied:

       1A    -20.595218     2A    -15.621363     3A    -11.275035
       4A    -11.239400     5A    -11.226894     6A     -1.419974
       7A     -1.157996     8A     -1.037696     9A     -0.881229
      10A     -0.773537    11A     -0.708094    12A     -0.657618
      13A     -0.616834    14A     -0.587146    15A     -0.585145
      16A     -0.533058    17A     -0.511961    18A     -0.500457
      19A     -0.439911    20A     -0.382993

  @DF-RHF Final Energy:  -247.01608243160891

   => Energetics <=

    Nuclear Repulsion Energy =            170.9009443968547259
    One-Electron Energy =                -674.3309364934983705
    Two-Electron Energy =                 256.4139096650347938
    Total Energy =                       -247.0160824316088792
  Basis Set: (AUG-CC-PVTZ AUX)
    Blend: AUG-CC-PVTZ-RI
    Molecular point group: c1

    Geometry (in Angstrom), charge = 0, multiplicity = 1:

       Center              X                  Y                   Z               Mass
    ------------   -----------------  -----------------  -----------------  -----------------
         O            2.216190563757    -0.341630962986     0.054879632827    15.994914619570
         N            1.054196063757     0.316788237014    -0.353301467173    14.003074004430
         C           -1.293978436243     0.598220037014     0.133041632827    12.000000000000
         C           -2.318170436243    -0.488929962986    -0.204854367173    12.000000000000
         C            0.057418563757     0.020353037014     0.403357632827    12.000000000000
         H           -1.628678436243     1.157057037014     1.015772632827     1.007825032230
         H           -1.203094436243     1.312005037014    -0.691199367173     1.007825032230
         H           -2.021818436243    -1.026242962986    -1.109438367173     1.007825032230
         H           -2.404807436243    -1.215643962986     0.608320632827     1.007825032230
         H           -3.306250436243    -0.051926962986    -0.373084367173     1.007825032230
         H            0.202860563757    -0.675470962986     1.234261632827     1.007825032230
         H            2.867431563757    -0.023050962986    -0.594366367173     1.007825032230

  Basis Set: AUG-CC-PVTZ
    Blend: AUG-CC-PVTZ
  Basis Set: (AUG-CC-PVTZ AUX)
    Blend: AUG-CC-PVTZ-JKFIT
	 Reference Energy          =    -247.0160824316089077 [Eh]
	 Singles Energy            =      -0.0000000000000000 [Eh]
	 Same-Spin Energy          =      -0.2453288464847348 [Eh]
	 Opposite-Spin Energy      =      -0.8180404381252214 [Eh]
	 Correlation Energy        =      -1.0633692846099563 [Eh]
	 Total Energy              =    -248.0794517162188697 [Eh]

	 ================> DF-SCS-MP2 Energies <==================
	-----------------------------------------------------------
	 SCS Same-Spin Scale       =       0.3333333333333333 [-]
	 SCS Opposite-Spin Scale   =       1.2000000000000000 [-]
	 SCS Same-Spin Energy      =      -0.0817762821615783 [Eh]
	 SCS Opposite-Spin Energy  =      -0.9816485257502656 [Eh]
	 SCS Correlation Energy    =      -1.0634248079118438 [Eh]
	 SCS Total Energy          =    -248.0795072395207512 [Eh]
	-----------------------------------------------------------

  Dipole Moment: [D]
     X:    -0.8561      Y:     0.0485      Z:     0.1251     Total:     0.8665

*** Psi4 exiting successfully. Buy a developer a beer!
