                               Psi4 1.3.2 release

  ==> Input File <==

--------------------------------------------------------------------------
#psi4
#
memory 32 gb

molecule  {
0 1
  O        2.2853555    -0.3582886     0.0924143
  N        1.1360090     0.3343940    -0.3643560
  C       -1.1987920     0.6023930     0.1340090
  C       -2.2229840    -0.4847570    -0.2038870
  C        0.1526050     0.0245260     0.4043250
  H       -1.5334920     1.1612300     1.0167400
  H       -1.1079080     1.3161780    -0.6902320
  H       -1.9266320    -1.0220700    -1.1084710
  H       -2.3096210    -1.2114710     0.6092880
  H       -3.2110640    -0.0477540    -0.3721170
  H        0.2980470    -0.6712980     1.2352290
  H        2.9626180    -0.0188780    -0.5933990
units angstrom
no_reorient  #important for SAPT in psi4, default
symmetry c1  #important for SAPT in psi4, default
}

set PROPERTIES_ORIGIN ["COM"]
properties('MP2/aug-cc-pvtz', properties = ['dipole'])
--------------------------------------------------------------------------

    Molecular point group: c1
  Charge       = 0
  Multiplicity = 1
  Basis Set: AUG-CC-PVTZ
    Blend: AUG-CC-PVTZ
  Basis Set: (AUG-CC-PVTZ AUX)
    Blend: AUG-CC-PVTZ-JKFIT

    Orbital Energies [Eh]
    ---------------------

    Doubly Occupied:

       1A    -20.596338     2A    -15.622101     3A    -11.276251
       4A    -11.239119     5A    -11.227174     6A     -1.404868
       7A     -1.154374     8A     -1.036396     9A     -0.879867
      10A     -0.774281    11A     -0.691399    12A     -0.654626
      13A     -0.612947    14A     -0.585410    15A     -0.579679
      16A     -0.531186    17A     -0.509828    18A     -0.500681
      19A     -0.446586    20A     -0.384387

  @DF-RHF Final Energy:  -247.00897312508621

   => Energetics <=

    Nuclear Repulsion Energy =            170.7072360759486003
    One-Electron Energy =                -674.0174197272569927
    Two-Electron Energy =                 256.3012105262221780
    Total Energy =                       -247.0089731250862428
  Basis Set: (AUG-CC-PVTZ AUX)
    Blend: AUG-CC-PVTZ-RI
    Molecular point group: c1

    Geometry (in Angstrom), charge = 0, multiplicity = 1:

       Center              X                  Y                   Z               Mass
    ------------   -----------------  -----------------  -----------------  -----------------
         O            2.198429966550    -0.360475557689     0.085744926988    15.994914619570
         N            1.049083466550     0.332207042311    -0.371025373012    14.003074004430
         C           -1.285717533450     0.600206042311     0.127339626988    12.000000000000
         C           -2.309909533450    -0.486943957689    -0.210556373012    12.000000000000
         C            0.065679466550     0.022339042311     0.397655626988    12.000000000000
         H           -1.620417533450     1.159043042311     1.010070626988     1.007825032230
         H           -1.194833533450     1.313991042311    -0.696901373012     1.007825032230
         H           -2.013557533450    -1.024256957689    -1.115140373012     1.007825032230
         H           -2.396546533450    -1.213657957689     0.602618626988     1.007825032230
         H           -3.297989533450    -0.049940957689    -0.378786373012     1.007825032230
         H            0.211121466550    -0.673484957689     1.228559626988     1.007825032230
         H            2.875692466550    -0.021064957689    -0.600068373012     1.007825032230

  Basis Set: AUG-CC-PVTZ
    Blend: AUG-CC-PVTZ
  Basis Set: (AUG-CC-PVTZ AUX)
    Blend: AUG-CC-PVTZ-JKFIT
	 Reference Energy          =    -247.0089731250862144 [Eh]
	 Singles Energy            =      -0.0000000000000000 [Eh]
	 Same-Spin Energy          =      -0.2462547385230655 [Eh]
	 Opposite-Spin Energy      =      -0.8209217829421026 [Eh]
	 Correlation Energy        =      -1.0671765214651681 [Eh]
	 Total Energy              =    -248.0761496465513858 [Eh]

	 ================> DF-SCS-MP2 Energies <==================
	-----------------------------------------------------------
	 SCS Same-Spin Scale       =       0.3333333333333333 [-]
	 SCS Opposite-Spin Scale   =       1.2000000000000000 [-]
	 SCS Same-Spin Energy      =      -0.0820849128410218 [Eh]
	 SCS Opposite-Spin Energy  =      -0.9851061395305231 [Eh]
	 SCS Correlation Energy    =      -1.0671910523715449 [Eh]
	 SCS Total Energy          =    -248.0761641774577697 [Eh]
	-----------------------------------------------------------

  Dipole Moment: [D]
     X:    -0.9038      Y:     0.0698      Z:     0.1160     Total:     0.9138

*** Psi4 exiting successfully. Buy a developer a beer!
