                               Psi4 1.3.2 release

  ==> Input File <==

--------------------------------------------------------------------------
#psi4
#
memory 32 gb

molecule  {
0 1
  O        2.3359665    -0.3158089     0.0187677
  N        1.1360090     0.3343940    -0.3643560
  C       -1.1987920     0.6023930     0.1340090
  C       -2.2229840    -0.4847570    -0.2038870
  C        0.1526050     0.0245260     0.4043250
  H       -1.5334920     1.1612300     1.0167400
  H       -1.1079080     1.3161780    -0.6902320
  H       -1.9266320    -1.0220700    -1.1084710
  H       -2.3096210    -1.2114710     0.6092880
  H       -3.2110640    -0.0477540    -0.3721170
  H        0.2980470    -0.6712980     1.2352290
  H        2.9626180    -0.0188780    -0.5933990
units angstrom
no_reorient  #important for SAPT in psi4, default
symmetry c1  #important for SAPT in psi4, default
}

set PROPERTIES_ORIGIN ["COM"]
properties('MP2/aug-cc-pvtz', properties = ['dipole'])
--------------------------------------------------------------------------

    Molecular point group: c1
  Charge       = 0
  Multiplicity = 1
  Basis Set: AUG-CC-PVTZ
    Blend: AUG-CC-PVTZ
  Basis Set: (AUG-CC-PVTZ AUX)
    Blend: AUG-CC-PVTZ-JKFIT

    Orbital Energies [Eh]
    ---------------------

    Doubly Occupied:

       1A    -20.588974     2A    -15.623797     3A    -11.278493
       4A    -11.240418     5A    -11.227730     6A     -1.416431
       7A     -1.165929     8A     -1.039779     9A     -0.883086
      10A     -0.774413    11A     -0.715390    12A     -0.654301
      13A     -0.617894    14A     -0.588441    15A     -0.582309
      16A     -0.534178    17A     -0.513869    18A     -0.501324
      19A     -0.439489    20A     -0.387424

  @DF-RHF Final Energy:  -247.01596576904575

   => Energetics <=

    Nuclear Repulsion Energy =            170.6212734328506428
    One-Electron Energy =                -673.7271388807329231
    Two-Electron Energy =                 256.0898996788365025
    Total Energy =                       -247.0159657690457493
  Basis Set: (AUG-CC-PVTZ AUX)
    Blend: AUG-CC-PVTZ-RI
    Molecular point group: c1

    Geometry (in Angstrom), charge = 0, multiplicity = 1:

       Center              X                  Y                   Z               Mass
    ------------   -----------------  -----------------  -----------------  -----------------
         O            2.237959679804    -0.327296794967     0.028223262130    15.994914619570
         N            1.038002179804     0.322906105033    -0.354900437870    14.003074004430
         C           -1.296798820196     0.590905105033     0.143464562130    12.000000000000
         C           -2.320990820196    -0.496244894967    -0.194431437870    12.000000000000
         C            0.054598179804     0.013038105033     0.413780562130    12.000000000000
         H           -1.631498820196     1.149742105033     1.026195562130     1.007825032230
         H           -1.205914820196     1.304690105033    -0.680776437870     1.007825032230
         H           -2.024638820196    -1.033557894967    -1.099015437870     1.007825032230
         H           -2.407627820196    -1.222958894967     0.618743562130     1.007825032230
         H           -3.309070820196    -0.059241894967    -0.362661437870     1.007825032230
         H            0.200040179804    -0.682785894967     1.244684562130     1.007825032230
         H            2.864611179804    -0.030365894967    -0.583943437870     1.007825032230

  Basis Set: AUG-CC-PVTZ
    Blend: AUG-CC-PVTZ
  Basis Set: (AUG-CC-PVTZ AUX)
    Blend: AUG-CC-PVTZ-JKFIT
	 Reference Energy          =    -247.0159657690457493 [Eh]
	 Singles Energy            =      -0.0000000000000000 [Eh]
	 Same-Spin Energy          =      -0.2446966796744895 [Eh]
	 Opposite-Spin Energy      =      -0.8170214714664370 [Eh]
	 Correlation Energy        =      -1.0617181511409266 [Eh]
	 Total Energy              =    -248.0776839201866721 [Eh]

	 ================> DF-SCS-MP2 Energies <==================
	-----------------------------------------------------------
	 SCS Same-Spin Scale       =       0.3333333333333333 [-]
	 SCS Opposite-Spin Scale   =       1.2000000000000000 [-]
	 SCS Same-Spin Energy      =      -0.0815655598914965 [Eh]
	 SCS Opposite-Spin Energy  =      -0.9804257657597244 [Eh]
	 SCS Correlation Energy    =      -1.0619913256512210 [Eh]
	 SCS Total Energy          =    -248.0779570946969841 [Eh]
	-----------------------------------------------------------

  Dipole Moment: [D]
     X:    -0.9819      Y:     0.0305      Z:     0.1876     Total:     1.0001

*** Psi4 exiting successfully. Buy a developer a beer!
