                               Psi4 1.3.2 release

  ==> Input File <==

--------------------------------------------------------------------------
#psi4
#
memory 32 gb

molecule  {
0 1
  O        2.3113770    -0.3374580     0.0558470
  N        1.0496265     0.4128673    -0.4314474
  C       -1.1987920     0.6023930     0.1340090
  C       -2.2229840    -0.4847570    -0.2038870
  C        0.1526050     0.0245260     0.4043250
  H       -1.5334920     1.1612300     1.0167400
  H       -1.1079080     1.3161780    -0.6902320
  H       -1.9266320    -1.0220700    -1.1084710
  H       -2.3096210    -1.2114710     0.6092880
  H       -3.2110640    -0.0477540    -0.3721170
  H        0.2980470    -0.6712980     1.2352290
  H        2.9626180    -0.0188780    -0.5933990
units angstrom
no_reorient  #important for SAPT in psi4, default
symmetry c1  #important for SAPT in psi4, default
}

set PROPERTIES_ORIGIN ["COM"]
properties('MP2/aug-cc-pvtz', properties = ['dipole'])
--------------------------------------------------------------------------

    Molecular point group: c1
  Charge       = 0
  Multiplicity = 1
  Basis Set: AUG-CC-PVTZ
    Blend: AUG-CC-PVTZ
  Basis Set: (AUG-CC-PVTZ AUX)
    Blend: AUG-CC-PVTZ-JKFIT

    Orbital Energies [Eh]
    ---------------------

    Doubly Occupied:

       1A    -20.579729     2A    -15.633573     3A    -11.290198
       4A    -11.241904     5A    -11.230307     6A     -1.359357
       7A     -1.172874     8A     -1.039825     9A     -0.882002
      10A     -0.780884    11A     -0.679026    12A     -0.640309
      13A     -0.606108    14A     -0.589196    15A     -0.558976
      16A     -0.527946    17A     -0.512761    18A     -0.504576
      19A     -0.451627    20A     -0.401665

  @DF-RHF Final Energy:  -246.99781568138434

   => Energetics <=

    Nuclear Repulsion Energy =            169.3146708042043258
    One-Electron Energy =                -671.2592838443870278
    Two-Electron Energy =                 254.9467973587983920
    Total Energy =                       -246.9978156813843384
  Basis Set: (AUG-CC-PVTZ AUX)
    Blend: AUG-CC-PVTZ-RI
    Molecular point group: c1

    Geometry (in Angstrom), charge = 0, multiplicity = 1:

       Center              X                  Y                   Z               Mass
    ------------   -----------------  -----------------  -----------------  -----------------
         O            2.235312231121    -0.359247927108     0.070044416967    15.994914619570
         N            0.973561731121     0.391077372892    -0.417249983033    14.003074004430
         C           -1.274856768879     0.580603072892     0.148206416967    12.000000000000
         C           -2.299048768879    -0.506546927108    -0.189689583033    12.000000000000
         C            0.076540231121     0.002736072892     0.418522416967    12.000000000000
         H           -1.609556768879     1.139440072892     1.030937416967     1.007825032230
         H           -1.183972768879     1.294388072892    -0.676034583033     1.007825032230
         H           -2.002696768879    -1.043859927108    -1.094273583033     1.007825032230
         H           -2.385685768879    -1.233260927108     0.623485416967     1.007825032230
         H           -3.287128768879    -0.069543927108    -0.357919583033     1.007825032230
         H            0.221982231121    -0.693087927108     1.249426416967     1.007825032230
         H            2.886553231121    -0.040667927108    -0.579201583033     1.007825032230

  Basis Set: AUG-CC-PVTZ
    Blend: AUG-CC-PVTZ
  Basis Set: (AUG-CC-PVTZ AUX)
    Blend: AUG-CC-PVTZ-JKFIT
	 Reference Energy          =    -246.9978156813843384 [Eh]
	 Singles Energy            =      -0.0000000000000000 [Eh]
	 Same-Spin Energy          =      -0.2467304205093848 [Eh]
	 Opposite-Spin Energy      =      -0.8249664104201475 [Eh]
	 Correlation Energy        =      -1.0716968309295323 [Eh]
	 Total Energy              =    -248.0695125123138780 [Eh]

	 ================> DF-SCS-MP2 Energies <==================
	-----------------------------------------------------------
	 SCS Same-Spin Scale       =       0.3333333333333333 [-]
	 SCS Opposite-Spin Scale   =       1.2000000000000000 [-]
	 SCS Same-Spin Energy      =      -0.0822434735031282 [Eh]
	 SCS Opposite-Spin Energy  =      -0.9899596925041769 [Eh]
	 SCS Correlation Energy    =      -1.0722031660073053 [Eh]
	 SCS Total Energy          =    -248.0700188473916512 [Eh]
	-----------------------------------------------------------

  Dipole Moment: [D]
     X:    -1.3531      Y:     0.0607      Z:     0.2761     Total:     1.3823

*** Psi4 exiting successfully. Buy a developer a beer!
