                               Psi4 1.3.2 release

  ==> Input File <==

--------------------------------------------------------------------------
#psi4
#
memory 32 gb

molecule  {
0 1
  O        2.2291450    -0.3973936     0.1638355
  N        1.1360090     0.3343940    -0.3643560
  C       -1.1987920     0.6023930     0.1340090
  C       -2.2229840    -0.4847570    -0.2038870
  C        0.1526050     0.0245260     0.4043250
  H       -1.5334920     1.1612300     1.0167400
  H       -1.1079080     1.3161780    -0.6902320
  H       -1.9266320    -1.0220700    -1.1084710
  H       -2.3096210    -1.2114710     0.6092880
  H       -3.2110640    -0.0477540    -0.3721170
  H        0.2980470    -0.6712980     1.2352290
  H        2.9626180    -0.0188780    -0.5933990
units angstrom
no_reorient  #important for SAPT in psi4, default
symmetry c1  #important for SAPT in psi4, default
}

set PROPERTIES_ORIGIN ["COM"]
properties('MP2/aug-cc-pvtz', properties = ['dipole'])
--------------------------------------------------------------------------

    Molecular point group: c1
  Charge       = 0
  Multiplicity = 1
  Basis Set: AUG-CC-PVTZ
    Blend: AUG-CC-PVTZ
  Basis Set: (AUG-CC-PVTZ AUX)
    Blend: AUG-CC-PVTZ-JKFIT

    Orbital Energies [Eh]
    ---------------------

    Doubly Occupied:

       1A    -20.601509     2A    -15.620982     3A    -11.274910
       4A    -11.237938     5A    -11.226771     6A     -1.398269
       7A     -1.144355     8A     -1.033432     9A     -0.877897
      10A     -0.776124    11A     -0.672858    12A     -0.653722
      13A     -0.608346    14A     -0.583078    15A     -0.574247
      16A     -0.528328    17A     -0.502971    18A     -0.500100
      19A     -0.453265    20A     -0.381753

  @DF-RHF Final Energy:  -246.98552887818661

   => Energetics <=

    Nuclear Repulsion Energy =            170.9209532505095126
    One-Electron Energy =                -674.5112536549117976
    Two-Electron Energy =                 256.6047715262156999
    Total Energy =                       -246.9855288781865852
  Basis Set: (AUG-CC-PVTZ AUX)
    Blend: AUG-CC-PVTZ-RI
    Molecular point group: c1

    Geometry (in Angstrom), charge = 0, multiplicity = 1:

       Center              X                  Y                   Z               Mass
    ------------   -----------------  -----------------  -----------------  -----------------
         O            2.154526764739    -0.391018511529     0.141528443541    15.994914619570
         N            1.061390764739     0.340769088471    -0.386663056459    14.003074004430
         C           -1.273410235261     0.608768088471     0.111701943541    12.000000000000
         C           -2.297602235261    -0.478381911529    -0.226194056459    12.000000000000
         C            0.077986764739     0.030901088471     0.382017943541    12.000000000000
         H           -1.608110235261     1.167605088471     0.994432943541     1.007825032230
         H           -1.182526235261     1.322553088471    -0.712539056459     1.007825032230
         H           -2.001250235261    -1.015694911529    -1.130778056459     1.007825032230
         H           -2.384239235261    -1.205095911529     0.586980943541     1.007825032230
         H           -3.285682235261    -0.041378911529    -0.394424056459     1.007825032230
         H            0.223428764739    -0.664922911529     1.212921943541     1.007825032230
         H            2.887999764739    -0.012502911529    -0.615706056459     1.007825032230

  Basis Set: AUG-CC-PVTZ
    Blend: AUG-CC-PVTZ
  Basis Set: (AUG-CC-PVTZ AUX)
    Blend: AUG-CC-PVTZ-JKFIT
	 Reference Energy          =    -246.9855288781866136 [Eh]
	 Singles Energy            =      -0.0000000000000000 [Eh]
	 Same-Spin Energy          =      -0.2479641436899042 [Eh]
	 Opposite-Spin Energy      =      -0.8254637334219201 [Eh]
	 Correlation Energy        =      -1.0734278771118244 [Eh]
	 Total Energy              =    -248.0589567552984249 [Eh]

	 ================> DF-SCS-MP2 Energies <==================
	-----------------------------------------------------------
	 SCS Same-Spin Scale       =       0.3333333333333333 [-]
	 SCS Opposite-Spin Scale   =       1.2000000000000000 [-]
	 SCS Same-Spin Energy      =      -0.0826547145633014 [Eh]
	 SCS Opposite-Spin Energy  =      -0.9905564801063041 [Eh]
	 SCS Correlation Energy    =      -1.0732111946696055 [Eh]
	 SCS Total Energy          =    -248.0587400728562102 [Eh]
	-----------------------------------------------------------

  Dipole Moment: [D]
     X:    -0.8520      Y:     0.1119      Z:     0.0495     Total:     0.8608

*** Psi4 exiting successfully. Buy a developer a beer!
