                               Psi4 1.3.2 release

  ==> Input File <==

--------------------------------------------------------------------------
#psi4
#
memory 32 gb

molecule  {
0 1
  O        2.3113770    -0.3374580     0.0558470
  N        1.2122824     0.2548409    -0.2870583
  C       -1.1987920     0.6023930     0.1340090
  C       -2.2229840    -0.4847570    -0.2038870
  C        0.1526050     0.0245260     0.4043250
  H       -1.5334920     1.1612300     1.0167400
  H       -1.1079080     1.3161780    -0.6902320
  H       -1.9266320    -1.0220700    -1.1084710
  H       -2.3096210    -1.2114710     0.6092880
  H       -3.2110640    -0.0477540    -0.3721170
  H        0.2980470    -0.6712980     1.2352290
  H        2.9626180    -0.0188780    -0.5933990
units angstrom
no_reorient  #important for SAPT in psi4, default
symmetry c1  #important for SAPT in psi4, default
}

set PROPERTIES_ORIGIN ["COM"]
properties('MP2/aug-cc-pvtz', properties = ['dipole'])
--------------------------------------------------------------------------

    Molecular point group: c1
  Charge       = 0
  Multiplicity = 1
  Basis Set: AUG-CC-PVTZ
    Blend: AUG-CC-PVTZ
  Basis Set: (AUG-CC-PVTZ AUX)
    Blend: AUG-CC-PVTZ-JKFIT

    Orbital Energies [Eh]
    ---------------------

    Doubly Occupied:

       1A    -20.607737     2A    -15.615078     3A    -11.263483
       4A    -11.237409     5A    -11.223795     6A     -1.477524
       7A     -1.149209     8A     -1.035828     9A     -0.881567
      10A     -0.779297    11A     -0.733927    12A     -0.672744
      13A     -0.627864    14A     -0.608150    15A     -0.582224
      16A     -0.533605    17A     -0.510694    18A     -0.497390
      19A     -0.418780    20A     -0.367978

  @DF-RHF Final Energy:  -247.00970770372803

   => Energetics <=

    Nuclear Repulsion Energy =            172.2916487395580134
    One-Electron Energy =                -676.9541457511406861
    Two-Electron Energy =                 257.6527893078546185
    Total Energy =                       -247.0097077037280542
  Basis Set: (AUG-CC-PVTZ AUX)
    Blend: AUG-CC-PVTZ-RI
    Molecular point group: c1

    Geometry (in Angstrom), charge = 0, multiplicity = 1:

       Center              X                  Y                   Z               Mass
    ------------   -----------------  -----------------  -----------------  -----------------
         O            2.204133635200    -0.328956734041     0.042367281344    15.994914619570
         N            1.105039035200     0.263342165959    -0.300538018656    14.003074004430
         C           -1.306035364800     0.610894265959     0.120529281344    12.000000000000
         C           -2.330227364800    -0.476255734041    -0.217366718656    12.000000000000
         C            0.045361635200     0.033027265959     0.390845281344    12.000000000000
         H           -1.640735364800     1.169731265959     1.003260281344     1.007825032230
         H           -1.215151364800     1.324679265959    -0.703711718656     1.007825032230
         H           -2.033875364800    -1.013568734041    -1.121950718656     1.007825032230
         H           -2.416864364800    -1.202969734041     0.595808281344     1.007825032230
         H           -3.318307364800    -0.039252734041    -0.385596718656     1.007825032230
         H            0.190803635200    -0.662796734041     1.221749281344     1.007825032230
         H            2.855374635200    -0.010376734041    -0.606878718656     1.007825032230

  Basis Set: AUG-CC-PVTZ
    Blend: AUG-CC-PVTZ
  Basis Set: (AUG-CC-PVTZ AUX)
    Blend: AUG-CC-PVTZ-JKFIT
	 Reference Energy          =    -247.0097077037280258 [Eh]
	 Singles Energy            =      -0.0000000000000000 [Eh]
	 Same-Spin Energy          =      -0.2451297692655234 [Eh]
	 Opposite-Spin Energy      =      -0.8146484486617032 [Eh]
	 Correlation Energy        =      -1.0597782179272266 [Eh]
	 Total Energy              =    -248.0694859216552572 [Eh]

	 ================> DF-SCS-MP2 Energies <==================
	-----------------------------------------------------------
	 SCS Same-Spin Scale       =       0.3333333333333333 [-]
	 SCS Opposite-Spin Scale   =       1.2000000000000000 [-]
	 SCS Same-Spin Energy      =      -0.0817099230885078 [Eh]
	 SCS Opposite-Spin Energy  =      -0.9775781383940437 [Eh]
	 SCS Correlation Energy    =      -1.0592880614825515 [Eh]
	 SCS Total Energy          =    -248.0689957652105875 [Eh]
	-----------------------------------------------------------

  Dipole Moment: [D]
     X:    -0.3885      Y:     0.0494      Z:    -0.0358     Total:     0.3933

*** Psi4 exiting successfully. Buy a developer a beer!
