                               Psi4 1.3.2 release

  ==> Input File <==

--------------------------------------------------------------------------
#psi4
#
memory 32 gb

molecule  {
0 1
  O        2.3113770    -0.3374580     0.0558470
  N        1.2189245     0.2869987    -0.3347131
  C       -1.1987920     0.6023930     0.1340090
  C       -2.2229840    -0.4847570    -0.2038870
  C        0.1526050     0.0245260     0.4043250
  H       -1.5334920     1.1612300     1.0167400
  H       -1.1079080     1.3161780    -0.6902320
  H       -1.9266320    -1.0220700    -1.1084710
  H       -2.3096210    -1.2114710     0.6092880
  H       -3.2110640    -0.0477540    -0.3721170
  H        0.2980470    -0.6712980     1.2352290
  H        2.9626180    -0.0188780    -0.5933990
units angstrom
no_reorient  #important for SAPT in psi4, default
symmetry c1  #important for SAPT in psi4, default
}

set PROPERTIES_ORIGIN ["COM"]
properties('MP2/aug-cc-pvtz', properties = ['dipole'])
--------------------------------------------------------------------------

    Molecular point group: c1
  Charge       = 0
  Multiplicity = 1
  Basis Set: AUG-CC-PVTZ
    Blend: AUG-CC-PVTZ
  Basis Set: (AUG-CC-PVTZ AUX)
    Blend: AUG-CC-PVTZ-JKFIT

    Orbital Energies [Eh]
    ---------------------

    Doubly Occupied:

       1A    -20.604266     2A    -15.622731     3A    -11.272067
       4A    -11.238404     5A    -11.224846     6A     -1.463692
       7A     -1.137717     8A     -1.034198     9A     -0.882042
      10A     -0.777488    11A     -0.722648    12A     -0.669862
      13A     -0.621545    14A     -0.602902    15A     -0.583750
      16A     -0.532765    17A     -0.509683    18A     -0.498588
      19A     -0.432455    20A     -0.362412

  @DF-RHF Final Energy:  -247.00811451716942

   => Energetics <=

    Nuclear Repulsion Energy =            171.2918994994045363
    One-Electron Energy =                -675.0119048886274413
    Two-Electron Energy =                 256.7118908720535160
    Total Energy =                       -247.0081145171694175
  Basis Set: (AUG-CC-PVTZ AUX)
    Blend: AUG-CC-PVTZ-RI
    Molecular point group: c1

    Geometry (in Angstrom), charge = 0, multiplicity = 1:

       Center              X                  Y                   Z               Mass
    ------------   -----------------  -----------------  -----------------  -----------------
         O            2.202860448357    -0.335120882110     0.051501962305    15.994914619570
         N            1.110407948357     0.289335817890    -0.339058137695    14.003074004430
         C           -1.307308551643     0.604730117890     0.129663962305    12.000000000000
         C           -2.331500551643    -0.482419882110    -0.208232037695    12.000000000000
         C            0.044088448357     0.026863117890     0.399979962305    12.000000000000
         H           -1.642008551643     1.163567117890     1.012394962305     1.007825032230
         H           -1.216424551643     1.318515117890    -0.694577037695     1.007825032230
         H           -2.035148551643    -1.019732882110    -1.112816037695     1.007825032230
         H           -2.418137551643    -1.209133882110     0.604942962305     1.007825032230
         H           -3.319580551643    -0.045416882110    -0.376462037695     1.007825032230
         H            0.189530448357    -0.668960882110     1.230883962305     1.007825032230
         H            2.854101448357    -0.016540882110    -0.597744037695     1.007825032230

  Basis Set: AUG-CC-PVTZ
    Blend: AUG-CC-PVTZ
  Basis Set: (AUG-CC-PVTZ AUX)
    Blend: AUG-CC-PVTZ-JKFIT
	 Reference Energy          =    -247.0081145171694175 [Eh]
	 Singles Energy            =      -0.0000000000000000 [Eh]
	 Same-Spin Energy          =      -0.2460065860117667 [Eh]
	 Opposite-Spin Energy      =      -0.8178400951132527 [Eh]
	 Correlation Energy        =      -1.0638466811250193 [Eh]
	 Total Energy              =    -248.0719611982944457 [Eh]

	 ================> DF-SCS-MP2 Energies <==================
	-----------------------------------------------------------
	 SCS Same-Spin Scale       =       0.3333333333333333 [-]
	 SCS Opposite-Spin Scale   =       1.2000000000000000 [-]
	 SCS Same-Spin Energy      =      -0.0820021953372556 [Eh]
	 SCS Opposite-Spin Energy  =      -0.9814081141359032 [Eh]
	 SCS Correlation Energy    =      -1.0634103094731588 [Eh]
	 SCS Total Energy          =    -248.0715248266425874 [Eh]
	-----------------------------------------------------------

  Dipole Moment: [D]
     X:    -0.4912      Y:     0.0170      Z:     0.0447     Total:     0.4935

*** Psi4 exiting successfully. Buy a developer a beer!
