                               Psi4 1.3.2 release

  ==> Input File <==

--------------------------------------------------------------------------
#psi4
#
memory 32 gb

molecule  {
0 1
  O        2.2985433    -0.3479772     0.0741974
  N        1.1360090     0.3343940    -0.3643560
  C       -1.1987920     0.6023930     0.1340090
  C       -2.2229840    -0.4847570    -0.2038870
  C        0.1526050     0.0245260     0.4043250
  H       -1.5334920     1.1612300     1.0167400
  H       -1.1079080     1.3161780    -0.6902320
  H       -1.9266320    -1.0220700    -1.1084710
  H       -2.3096210    -1.2114710     0.6092880
  H       -3.2110640    -0.0477540    -0.3721170
  H        0.2980470    -0.6712980     1.2352290
  H        2.9626180    -0.0188780    -0.5933990
units angstrom
no_reorient  #important for SAPT in psi4, default
symmetry c1  #important for SAPT in psi4, default
}

set PROPERTIES_ORIGIN ["COM"]
properties('MP2/aug-cc-pvtz', properties = ['dipole'])
--------------------------------------------------------------------------

    Molecular point group: c1
  Charge       = 0
  Multiplicity = 1
  Basis Set: AUG-CC-PVTZ
    Blend: AUG-CC-PVTZ
  Basis Set: (AUG-CC-PVTZ AUX)
    Blend: AUG-CC-PVTZ-JKFIT

    Orbital Energies [Eh]
    ---------------------

    Doubly Occupied:

       1A    -20.594713     2A    -15.622463     3A    -11.276727
       4A    -11.239432     5A    -11.227298     6A     -1.407249
       7A     -1.157117     8A     -1.037201     9A     -0.880538
      10A     -0.774061    11A     -0.697064    12A     -0.654659
      13A     -0.614199    14A     -0.586209    15A     -0.580482
      16A     -0.531935    17A     -0.511033    18A     -0.500831
      19A     -0.444844    20A     -0.385109

  @DF-RHF Final Energy:  -247.01260958188971

   => Energetics <=

    Nuclear Repulsion Energy =            170.6733525043977124
    One-Electron Energy =                -673.9255928088203973
    Two-Electron Energy =                 256.2396307225329792
    Total Energy =                       -247.0126095818897056
  Basis Set: (AUG-CC-PVTZ AUX)
    Blend: AUG-CC-PVTZ-RI
    Molecular point group: c1

    Geometry (in Angstrom), charge = 0, multiplicity = 1:

       Center              X                  Y                   Z               Mass
    ------------   -----------------  -----------------  -----------------  -----------------
         O            2.208730295579    -0.352421840409     0.071516620229    15.994914619570
         N            1.046195995579     0.329949359591    -0.367036779771    14.003074004430
         C           -1.288605004421     0.597948359591     0.131328220229    12.000000000000
         C           -2.312797004421    -0.489201640409    -0.206567779771    12.000000000000
         C            0.062791995579     0.020081359591     0.401644220229    12.000000000000
         H           -1.623305004421     1.156785359591     1.014059220229     1.007825032230
         H           -1.197721004421     1.311733359591    -0.692912779771     1.007825032230
         H           -2.016445004421    -1.026514640409    -1.111151779771     1.007825032230
         H           -2.399434004421    -1.215915640409     0.606607220229     1.007825032230
         H           -3.300877004421    -0.052198640409    -0.374797779771     1.007825032230
         H            0.208233995579    -0.675742640409     1.232548220229     1.007825032230
         H            2.872804995579    -0.023322640409    -0.596079779771     1.007825032230

  Basis Set: AUG-CC-PVTZ
    Blend: AUG-CC-PVTZ
  Basis Set: (AUG-CC-PVTZ AUX)
    Blend: AUG-CC-PVTZ-JKFIT
	 Reference Energy          =    -247.0126095818897056 [Eh]
	 Singles Energy            =      -0.0000000000000000 [Eh]
	 Same-Spin Energy          =      -0.2458489484137767 [Eh]
	 Opposite-Spin Energy      =      -0.8198836223979068 [Eh]
	 Correlation Energy        =      -1.0657325708116834 [Eh]
	 Total Energy              =    -248.0783421527013957 [Eh]

	 ================> DF-SCS-MP2 Energies <==================
	-----------------------------------------------------------
	 SCS Same-Spin Scale       =       0.3333333333333333 [-]
	 SCS Opposite-Spin Scale   =       1.2000000000000000 [-]
	 SCS Same-Spin Energy      =      -0.0819496494712589 [Eh]
	 SCS Opposite-Spin Energy  =      -0.9838603468774881 [Eh]
	 SCS Correlation Energy    =      -1.0658099963487471 [Eh]
	 SCS Total Energy          =    -248.0784195782384529 [Eh]
	-----------------------------------------------------------

  Dipole Moment: [D]
     X:    -0.9208      Y:     0.0597      Z:     0.1334     Total:     0.9323

*** Psi4 exiting successfully. Buy a developer a beer!
