                               Psi4 1.3.2 release

  ==> Input File <==

--------------------------------------------------------------------------
#psi4
#
memory 32 gb

molecule  {
0 1
  O        2.3113770    -0.3374580     0.0558470
  N        1.1488617     0.3449783    -0.3826556
  C       -1.1987920     0.6023930     0.1340090
  C       -2.2229840    -0.4847570    -0.2038870
  C        0.1526050     0.0245260     0.4043250
  H       -1.5334920     1.1612300     1.0167400
  H       -1.1079080     1.3161780    -0.6902320
  H       -1.9266320    -1.0220700    -1.1084710
  H       -2.3096210    -1.2114710     0.6092880
  H       -3.2110640    -0.0477540    -0.3721170
  H        0.2980470    -0.6712980     1.2352290
  H        2.9626180    -0.0188780    -0.5933990
units angstrom
no_reorient  #important for SAPT in psi4, default
symmetry c1  #important for SAPT in psi4, default
}

set PROPERTIES_ORIGIN ["COM"]
properties('MP2/aug-cc-pvtz', properties = ['dipole'])
--------------------------------------------------------------------------

    Molecular point group: c1
  Charge       = 0
  Multiplicity = 1
  Basis Set: AUG-CC-PVTZ
    Blend: AUG-CC-PVTZ
  Basis Set: (AUG-CC-PVTZ AUX)
    Blend: AUG-CC-PVTZ-JKFIT

    Orbital Energies [Eh]
    ---------------------

    Doubly Occupied:

       1A    -20.592484     2A    -15.626351     3A    -11.281584
       4A    -11.240169     5A    -11.227726     6A     -1.409279
       7A     -1.151568     8A     -1.036912     9A     -0.881926
      10A     -0.775835    11A     -0.699240    12A     -0.654869
      13A     -0.613749    14A     -0.587377    15A     -0.579598
      16A     -0.532161    17A     -0.510974    18A     -0.501258
      19A     -0.447443    20A     -0.380395

  @DF-RHF Final Energy:  -247.01152159954614

   => Energetics <=

    Nuclear Repulsion Energy =            170.2239374803055796
    One-Electron Energy =                -673.0091238842971961
    Two-Electron Energy =                 255.7736648044454455
    Total Energy =                       -247.0115215995461426
  Basis Set: (AUG-CC-PVTZ AUX)
    Blend: AUG-CC-PVTZ-RI
    Molecular point group: c1

    Geometry (in Angstrom), charge = 0, multiplicity = 1:

       Center              X                  Y                   Z               Mass
    ------------   -----------------  -----------------  -----------------  -----------------
         O            2.216290392984    -0.346234665994     0.060691790862    15.994914619570
         N            1.053775092984     0.336201634006    -0.377810809138    14.003074004430
         C           -1.293878607016     0.593616334006     0.138853790862    12.000000000000
         C           -2.318070607016    -0.493533665994    -0.199042209138    12.000000000000
         C            0.057518392984     0.015749334006     0.409169790862    12.000000000000
         H           -1.628578607016     1.152453334006     1.021584790862     1.007825032230
         H           -1.202994607016     1.307401334006    -0.685387209138     1.007825032230
         H           -2.021718607016    -1.030846665994    -1.103626209138     1.007825032230
         H           -2.404707607016    -1.220247665994     0.614132790862     1.007825032230
         H           -3.306150607016    -0.056530665994    -0.367272209138     1.007825032230
         H            0.202960392984    -0.680074665994     1.240073790862     1.007825032230
         H            2.867531392984    -0.027654665994    -0.588554209138     1.007825032230

  Basis Set: AUG-CC-PVTZ
    Blend: AUG-CC-PVTZ
  Basis Set: (AUG-CC-PVTZ AUX)
    Blend: AUG-CC-PVTZ-JKFIT
	 Reference Energy          =    -247.0115215995461426 [Eh]
	 Singles Energy            =      -0.0000000000000000 [Eh]
	 Same-Spin Energy          =      -0.2460183065552914 [Eh]
	 Opposite-Spin Energy      =      -0.8204661647297119 [Eh]
	 Correlation Energy        =      -1.0664844712850035 [Eh]
	 Total Energy              =    -248.0780060708311510 [Eh]

	 ================> DF-SCS-MP2 Energies <==================
	-----------------------------------------------------------
	 SCS Same-Spin Scale       =       0.3333333333333333 [-]
	 SCS Opposite-Spin Scale   =       1.2000000000000000 [-]
	 SCS Same-Spin Energy      =      -0.0820061021850971 [Eh]
	 SCS Opposite-Spin Energy  =      -0.9845593976756543 [Eh]
	 SCS Correlation Energy    =      -1.0665654998607514 [Eh]
	 SCS Total Energy          =    -248.0780870994069005 [Eh]
	-----------------------------------------------------------

  Dipole Moment: [D]
     X:    -0.9305      Y:     0.0361      Z:     0.1657     Total:     0.9458

*** Psi4 exiting successfully. Buy a developer a beer!
