                               Psi4 1.3.2 release

  ==> Input File <==

--------------------------------------------------------------------------
#psi4
#
memory 32 gb

molecule  {
0 1
  O        2.3113770    -0.3374580     0.0558470
  N        1.1624523     0.3074382    -0.3400816
  C       -1.1987920     0.6023930     0.1340090
  C       -2.2229840    -0.4847570    -0.2038870
  C        0.1526050     0.0245260     0.4043250
  H       -1.5334920     1.1612300     1.0167400
  H       -1.1079080     1.3161780    -0.6902320
  H       -1.9266320    -1.0220700    -1.1084710
  H       -2.3096210    -1.2114710     0.6092880
  H       -3.2110640    -0.0477540    -0.3721170
  H        0.2980470    -0.6712980     1.2352290
  H        2.9626180    -0.0188780    -0.5933990
units angstrom
no_reorient  #important for SAPT in psi4, default
symmetry c1  #important for SAPT in psi4, default
}

set PROPERTIES_ORIGIN ["COM"]
properties('MP2/aug-cc-pvtz', properties = ['dipole'])
--------------------------------------------------------------------------

    Molecular point group: c1
  Charge       = 0
  Multiplicity = 1
  Basis Set: AUG-CC-PVTZ
    Blend: AUG-CC-PVTZ
  Basis Set: (AUG-CC-PVTZ AUX)
    Blend: AUG-CC-PVTZ-JKFIT

    Orbital Energies [Eh]
    ---------------------

    Doubly Occupied:

       1A    -20.597550     2A    -15.619942     3A    -11.272781
       4A    -11.239037     5A    -11.226330     6A     -1.430482
       7A     -1.156097     8A     -1.037345     9A     -0.881193
      10A     -0.773460    11A     -0.713360    12A     -0.660700
      13A     -0.618236    14A     -0.591109    15A     -0.585393
      16A     -0.533339    17A     -0.511795    18A     -0.499909
      19A     -0.436350    20A     -0.380074

  @DF-RHF Final Energy:  -247.01639214556661

   => Energetics <=

    Nuclear Repulsion Energy =            171.1629816755161073
    One-Electron Energy =                -674.8297798705392552
    Two-Electron Energy =                 256.6504060494565351
    Total Energy =                       -247.0163921455666127
  Basis Set: (AUG-CC-PVTZ AUX)
    Blend: AUG-CC-PVTZ-RI
    Molecular point group: c1

    Geometry (in Angstrom), charge = 0, multiplicity = 1:

       Center              X                  Y                   Z               Mass
    ------------   -----------------  -----------------  -----------------  -----------------
         O            2.213685287201    -0.339038815067     0.052531019918    15.994914619570
         N            1.064760587201     0.305857384933    -0.343397580082    14.003074004430
         C           -1.296483712799     0.600812184933     0.130693019918    12.000000000000
         C           -2.320675712799    -0.486337815067    -0.207202980082    12.000000000000
         C            0.054913287201     0.022945184933     0.401009019918    12.000000000000
         H           -1.631183712799     1.159649184933     1.013424019918     1.007825032230
         H           -1.205599712799     1.314597184933    -0.693547980082     1.007825032230
         H           -2.024323712799    -1.023650815067    -1.111786980082     1.007825032230
         H           -2.407312712799    -1.213051815067     0.605972019918     1.007825032230
         H           -3.308755712799    -0.049334815067    -0.375432980082     1.007825032230
         H            0.200355287201    -0.672878815067     1.231913019918     1.007825032230
         H            2.864926287201    -0.020458815067    -0.596714980082     1.007825032230

  Basis Set: AUG-CC-PVTZ
    Blend: AUG-CC-PVTZ
  Basis Set: (AUG-CC-PVTZ AUX)
    Blend: AUG-CC-PVTZ-JKFIT
	 Reference Energy          =    -247.0163921455666127 [Eh]
	 Singles Energy            =      -0.0000000000000000 [Eh]
	 Same-Spin Energy          =      -0.2452323939182073 [Eh]
	 Opposite-Spin Energy      =      -0.8172492316768158 [Eh]
	 Correlation Energy        =      -1.0624816255950231 [Eh]
	 Total Energy              =    -248.0788737711616250 [Eh]

	 ================> DF-SCS-MP2 Energies <==================
	-----------------------------------------------------------
	 SCS Same-Spin Scale       =       0.3333333333333333 [-]
	 SCS Opposite-Spin Scale   =       1.2000000000000000 [-]
	 SCS Same-Spin Energy      =      -0.0817441313060691 [Eh]
	 SCS Opposite-Spin Energy  =      -0.9806990780121789 [Eh]
	 SCS Correlation Energy    =      -1.0624432093182481 [Eh]
	 SCS Total Energy          =    -248.0788353548848590 [Eh]
	-----------------------------------------------------------

  Dipole Moment: [D]
     X:    -0.7689      Y:     0.0477      Z:     0.0972     Total:     0.7765

*** Psi4 exiting successfully. Buy a developer a beer!
