                               Psi4 1.4a3.dev225

  ==> Input File <==

--------------------------------------------------------------------------
#psi4
#
memory 32 gb

molecule  {
0 1
  O        2.3113080    -0.3373280     0.0560680
  N        1.1358640     0.3338760    -0.3647560
  C       -1.1988180     0.6025260     0.1336480
  C       -2.2227880    -0.4850450    -0.2036580
  C        0.1526150     0.0250550     0.4045550
  H       -1.5338160     1.1619340     1.0159040
  H       -1.1079660     1.3157390    -0.6910980
  H       -1.9258830    -1.0232670    -1.1075140
  H       -2.3098400    -1.2108550     0.6102710
  H       -3.2107560    -0.0481840    -0.3728900
  H        0.2982470    -0.6695660     1.2364510
  H        2.9959110    -0.0031983    -0.6270232
units angstrom
no_reorient  #important for SAPT in psi4, default
symmetry c1  #important for SAPT in psi4, default
}

set PROPERTIES_ORIGIN ["COM"]
properties('MP2/aug-cc-pvtz', properties = ['dipole'])
--------------------------------------------------------------------------

    Molecular point group: c1
  Charge       = 0
  Multiplicity = 1
  Basis Set: AUG-CC-PVTZ
    Blend: AUG-CC-PVTZ
  Basis Set: (AUG-CC-PVTZ AUX)
    Blend: AUG-CC-PVTZ-JKFIT

    Orbital Energies [Eh]
    ---------------------

    Doubly Occupied:

       1A    -20.597067     2A    -15.622125     3A    -11.276520
       4A    -11.239379     5A    -11.227109     6A     -1.402096
       7A     -1.155372     8A     -1.036570     9A     -0.880047
      10A     -0.773306    11A     -0.694014    12A     -0.652318
      13A     -0.614062    14A     -0.585471    15A     -0.579532
      16A     -0.531812    17A     -0.510957    18A     -0.500599
      19A     -0.441479    20A     -0.384772

  @DF-RHF Final Energy:  -247.00981482913679

   => Energetics <=

    Nuclear Repulsion Energy =            170.3708774426597472
    One-Electron Energy =                -673.3521719000635812
    Two-Electron Energy =                 255.9714796282670193
    Total Energy =                       -247.0098148291367863
  Basis Set: (AUG-CC-PVTZ AUX)
    Blend: AUG-CC-PVTZ-RI
    Molecular point group: c1

    Geometry (in Angstrom), charge = 0, multiplicity = 1:

       Center              X                  Y                   Z               Mass
    ------------   -----------------  -----------------  -----------------  -----------------
         O            2.218230033648    -0.344296344542     0.057871627829    15.994914619570
         N            1.042786033648     0.326907655458    -0.362952372171    14.003074004430
         C           -1.291895966352     0.595557655458     0.135451627829    12.000000000000
         C           -2.315865966352    -0.492013344542    -0.201854372171    12.000000000000
         C            0.059537033648     0.018086655458     0.406358627829    12.000000000000
         H           -1.626893966352     1.154965655458     1.017707627829     1.007825032230
         H           -1.201043966352     1.308770655458    -0.689294372171     1.007825032230
         H           -2.018960966352    -1.030235344542    -1.105710372171     1.007825032230
         H           -2.402917966352    -1.217823344542     0.612074627829     1.007825032230
         H           -3.303833966352    -0.055152344542    -0.371086372171     1.007825032230
         H            0.205169033648    -0.676534344542     1.238254627829     1.007825032230
         H            2.902833033648    -0.010166644542    -0.625219572171     1.007825032230

  Basis Set: AUG-CC-PVTZ
    Blend: AUG-CC-PVTZ
  Basis Set: (AUG-CC-PVTZ AUX)
    Blend: AUG-CC-PVTZ-JKFIT
	 Reference Energy          =    -247.0098148291367863 [Eh]
	 Singles Energy            =      -0.0000000000000000 [Eh]
	 Same-Spin Energy          =      -0.2460705440190518 [Eh]
	 Opposite-Spin Energy      =      -0.8205879530434574 [Eh]
	 Correlation Energy        =      -1.0666584970625093 [Eh]
	 Total Energy              =    -248.0764733261993058 [Eh]

	 ================> DF-SCS-MP2 Energies <==================
	-----------------------------------------------------------
	 SCS Same-Spin Scale       =       0.3333333333333333 [-]
	 SCS Opposite-Spin Scale   =       1.2000000000000000 [-]
	 SCS Same-Spin Energy      =      -0.0820235146730173 [Eh]
	 SCS Opposite-Spin Energy  =      -0.9847055436521489 [Eh]
	 SCS Correlation Energy    =      -1.0667290583251663 [Eh]
	 SCS Total Energy          =    -248.0765438874619520 [Eh]
	-----------------------------------------------------------

  Dipole Moment: [D]
     X:    -0.8808      Y:     0.0632      Z:     0.1150     Total:     0.8905

*** Psi4 exiting successfully. Buy a developer a beer!
