                               Psi4 1.3.2 release

  ==> Input File <==

--------------------------------------------------------------------------
#psi4
#
memory 32 gb

molecule  {
0 1
  O        2.3113770    -0.3374580     0.0558470
  N        1.0791177     0.3855956    -0.4112576
  C       -1.1987920     0.6023930     0.1340090
  C       -2.2229840    -0.4847570    -0.2038870
  C        0.1526050     0.0245260     0.4043250
  H       -1.5334920     1.1612300     1.0167400
  H       -1.1079080     1.3161780    -0.6902320
  H       -1.9266320    -1.0220700    -1.1084710
  H       -2.3096210    -1.2114710     0.6092880
  H       -3.2110640    -0.0477540    -0.3721170
  H        0.2980470    -0.6712980     1.2352290
  H        2.9626180    -0.0188780    -0.5933990
units angstrom
no_reorient  #important for SAPT in psi4, default
symmetry c1  #important for SAPT in psi4, default
}

set PROPERTIES_ORIGIN ["COM"]
properties('MP2/aug-cc-pvtz', properties = ['dipole'])
--------------------------------------------------------------------------

    Molecular point group: c1
  Charge       = 0
  Multiplicity = 1
  Basis Set: AUG-CC-PVTZ
    Blend: AUG-CC-PVTZ
  Basis Set: (AUG-CC-PVTZ AUX)
    Blend: AUG-CC-PVTZ-JKFIT

    Orbital Energies [Eh]
    ---------------------

    Doubly Occupied:

       1A    -20.584156     2A    -15.629683     3A    -11.285930
       4A    -11.241142     5A    -11.229383     6A     -1.374534
       7A     -1.168378     8A     -1.039251     9A     -0.881720
      10A     -0.778038    11A     -0.685701    12A     -0.644245
      13A     -0.609302    14A     -0.588653    15A     -0.564996
      16A     -0.530139    17A     -0.512467    18A     -0.503191
      19A     -0.451038    20A     -0.396676

  @DF-RHF Final Energy:  -247.00543737360860

   => Energetics <=

    Nuclear Repulsion Energy =            169.7251192391173049
    One-Electron Energy =                -672.0638657623904919
    Two-Electron Energy =                 255.3333091496645864
    Total Energy =                       -247.0054373736086006
  Basis Set: (AUG-CC-PVTZ AUX)
    Blend: AUG-CC-PVTZ-RI
    Molecular point group: c1

    Geometry (in Angstrom), charge = 0, multiplicity = 1:

       Center              X                  Y                   Z               Mass
    ------------   -----------------  -----------------  -----------------  -----------------
         O            2.229659228629    -0.354020368105     0.066174347600    15.994914619570
         N            0.997399928629     0.369033231895    -0.400930252400    14.003074004430
         C           -1.280509771371     0.585830631895     0.144336347600    12.000000000000
         C           -2.304701771371    -0.501319368105    -0.193559652400    12.000000000000
         C            0.070887228629     0.007963631895     0.414652347600    12.000000000000
         H           -1.615209771371     1.144667631895     1.027067347600     1.007825032230
         H           -1.189625771371     1.299615631895    -0.679904652400     1.007825032230
         H           -2.008349771371    -1.038632368105    -1.098143652400     1.007825032230
         H           -2.391338771371    -1.228033368105     0.619615347600     1.007825032230
         H           -3.292781771371    -0.064316368105    -0.361789652400     1.007825032230
         H            0.216329228629    -0.687860368105     1.245556347600     1.007825032230
         H            2.880900228629    -0.035440368105    -0.583071652400     1.007825032230

  Basis Set: AUG-CC-PVTZ
    Blend: AUG-CC-PVTZ
  Basis Set: (AUG-CC-PVTZ AUX)
    Blend: AUG-CC-PVTZ-JKFIT
	 Reference Energy          =    -247.0054373736086006 [Eh]
	 Singles Energy            =      -0.0000000000000000 [Eh]
	 Same-Spin Energy          =      -0.2462122110260622 [Eh]
	 Opposite-Spin Energy      =      -0.8227725962693888 [Eh]
	 Correlation Energy        =      -1.0689848072954509 [Eh]
	 Total Energy              =    -248.0744221809040653 [Eh]

	 ================> DF-SCS-MP2 Energies <==================
	-----------------------------------------------------------
	 SCS Same-Spin Scale       =       0.3333333333333333 [-]
	 SCS Opposite-Spin Scale   =       1.2000000000000000 [-]
	 SCS Same-Spin Energy      =      -0.0820707370086874 [Eh]
	 SCS Opposite-Spin Energy  =      -0.9873271155232666 [Eh]
	 SCS Correlation Energy    =      -1.0693978525319539 [Eh]
	 SCS Total Energy          =    -248.0748352261405500 [Eh]
	-----------------------------------------------------------

  Dipole Moment: [D]
     X:    -1.2319      Y:     0.0586      Z:     0.2409     Total:     1.2566

*** Psi4 exiting successfully. Buy a developer a beer!
