                               Psi4 1.3.2 release

  ==> Input File <==

--------------------------------------------------------------------------
#psi4
#
memory 32 gb

molecule  {
0 1
  O        2.3807315    -0.2701615    -0.0567454
  N        1.1360090     0.3343940    -0.3643560
  C       -1.1987920     0.6023930     0.1340090
  C       -2.2229840    -0.4847570    -0.2038870
  C        0.1526050     0.0245260     0.4043250
  H       -1.5334920     1.1612300     1.0167400
  H       -1.1079080     1.3161780    -0.6902320
  H       -1.9266320    -1.0220700    -1.1084710
  H       -2.3096210    -1.2114710     0.6092880
  H       -3.2110640    -0.0477540    -0.3721170
  H        0.2980470    -0.6712980     1.2352290
  H        2.9626180    -0.0188780    -0.5933990
units angstrom
no_reorient  #important for SAPT in psi4, default
symmetry c1  #important for SAPT in psi4, default
}

set PROPERTIES_ORIGIN ["COM"]
properties('MP2/aug-cc-pvtz', properties = ['dipole'])
--------------------------------------------------------------------------

    Molecular point group: c1
  Charge       = 0
  Multiplicity = 1
  Basis Set: AUG-CC-PVTZ
    Blend: AUG-CC-PVTZ
  Basis Set: (AUG-CC-PVTZ AUX)
    Blend: AUG-CC-PVTZ-JKFIT

    Orbital Energies [Eh]
    ---------------------

    Doubly Occupied:

       1A    -20.579289     2A    -15.626275     3A    -11.281638
       4A    -11.241864     5A    -11.228457     6A     -1.434069
       7A     -1.178904     8A     -1.043610     9A     -0.888095
      10A     -0.779887    11A     -0.737846    12A     -0.652679
      13A     -0.622328    14A     -0.590505    15A     -0.584422
      16A     -0.537077    17A     -0.516566    18A     -0.502107
      19A     -0.432075    20A     -0.390833

  @DF-RHF Final Energy:  -246.99542275538826

   => Energetics <=

    Nuclear Repulsion Energy =            170.6749987691266028
    One-Electron Energy =                -673.6437930412563446
    Two-Electron Energy =                 255.9733715167414800
    Total Energy =                       -246.9954227553882617
  Basis Set: (AUG-CC-PVTZ AUX)
    Blend: AUG-CC-PVTZ-RI
    Molecular point group: c1

    Geometry (in Angstrom), charge = 0, multiplicity = 1:

       Center              X                  Y                   Z               Mass
    ------------   -----------------  -----------------  -----------------  -----------------
         O            2.272923375717    -0.291643900679    -0.030756232247    15.994914619570
         N            1.028200875717     0.312911599321    -0.338366832247    14.003074004430
         C           -1.306600124283     0.580910599321     0.159998167753    12.000000000000
         C           -2.330792124283    -0.506239400679    -0.177897832247    12.000000000000
         C            0.044796875717     0.003043599321     0.430314167753    12.000000000000
         H           -1.641300124283     1.139747599321     1.042729167753     1.007825032230
         H           -1.215716124283     1.294695599321    -0.664242832247     1.007825032230
         H           -2.034440124283    -1.043552400679    -1.082481832247     1.007825032230
         H           -2.417429124283    -1.232953400679     0.635277167753     1.007825032230
         H           -3.318872124283    -0.069236400679    -0.346127832247     1.007825032230
         H            0.190238875717    -0.692780400679     1.261218167753     1.007825032230
         H            2.854809875717    -0.040360400679    -0.567409832247     1.007825032230

  Basis Set: AUG-CC-PVTZ
    Blend: AUG-CC-PVTZ
  Basis Set: (AUG-CC-PVTZ AUX)
    Blend: AUG-CC-PVTZ-JKFIT
	 Reference Energy          =    -246.9954227553882617 [Eh]
	 Singles Energy            =      -0.0000000000000000 [Eh]
	 Same-Spin Energy          =      -0.2433729090634996 [Eh]
	 Opposite-Spin Energy      =      -0.8138671728432549 [Eh]
	 Correlation Energy        =      -1.0572400819067544 [Eh]
	 Total Energy              =    -248.0526628372950029 [Eh]

	 ================> DF-SCS-MP2 Energies <==================
	-----------------------------------------------------------
	 SCS Same-Spin Scale       =       0.3333333333333333 [-]
	 SCS Opposite-Spin Scale   =       1.2000000000000000 [-]
	 SCS Same-Spin Energy      =      -0.0811243030211665 [Eh]
	 SCS Opposite-Spin Energy  =      -0.9766406074119058 [Eh]
	 SCS Correlation Energy    =      -1.0577649104330724 [Eh]
	 SCS Total Energy          =    -248.0531876658213264 [Eh]
	-----------------------------------------------------------

  Dipole Moment: [D]
     X:    -1.0867      Y:    -0.0054      Z:     0.2641     Total:     1.1183

*** Psi4 exiting successfully. Buy a developer a beer!
