                               Psi4 1.4a3.dev225

  ==> Input File <==

--------------------------------------------------------------------------
#psi4
#
memory 32 gb

molecule  {
0 1
  O        2.3113080    -0.3373280     0.0560680
  N        1.1358640     0.3338760    -0.3647560
  C       -1.1988180     0.6025260     0.1336480
  C       -2.2227880    -0.4850450    -0.2036580
  C        0.1679057     0.0298575     0.3925913
  H       -1.5338160     1.1619340     1.0159040
  H       -1.1079660     1.3157390    -0.6910980
  H       -1.9258830    -1.0232670    -1.1075140
  H       -2.3098400    -1.2108550     0.6102710
  H       -3.2107560    -0.0481840    -0.3728900
  H        0.2982470    -0.6695660     1.2364510
  H        2.9624570    -0.0195260    -0.5936430
units angstrom
no_reorient  #important for SAPT in psi4, default
symmetry c1  #important for SAPT in psi4, default
}

set PROPERTIES_ORIGIN ["COM"]
properties('MP2/aug-cc-pvtz', properties = ['dipole'])
--------------------------------------------------------------------------

    Molecular point group: c1
  Charge       = 0
  Multiplicity = 1
  Basis Set: AUG-CC-PVTZ
    Blend: AUG-CC-PVTZ
  Basis Set: (AUG-CC-PVTZ AUX)
    Blend: AUG-CC-PVTZ-JKFIT

    Orbital Energies [Eh]
    ---------------------

    Doubly Occupied:

       1A    -20.593375     2A    -15.620695     3A    -11.275408
       4A    -11.239845     5A    -11.227252     6A     -1.412108
       7A     -1.165855     8A     -1.038289     9A     -0.879970
      10A     -0.770826    11A     -0.705005    12A     -0.655062
      13A     -0.616193    14A     -0.585678    15A     -0.582256
      16A     -0.532716    17A     -0.511732    18A     -0.500064
      19A     -0.441519    20A     -0.391126

  @DF-RHF Final Energy:  -247.01643017182096

   => Energetics <=

    Nuclear Repulsion Energy =            170.8413805575077049
    One-Electron Energy =                -674.2256770072704057
    Two-Electron Energy =                 256.3678662779417436
    Total Energy =                       -247.0164301718209572
  Basis Set: (AUG-CC-PVTZ AUX)
    Blend: AUG-CC-PVTZ-RI
    Molecular point group: c1

    Geometry (in Angstrom), charge = 0, multiplicity = 1:

       Center              X                  Y                   Z               Mass
    ------------   -----------------  -----------------  -----------------  -----------------
         O            2.216179835770    -0.344859971886     0.059376334743    15.994914619570
         N            1.040735835770     0.326344028114    -0.361447665257    14.003074004430
         C           -1.293946164230     0.594994028114     0.136956334743    12.000000000000
         C           -2.317916164230    -0.492576971886    -0.200349665257    12.000000000000
         C            0.072777535770     0.022325528114     0.395899634743    12.000000000000
         H           -1.628944164230     1.154402028114     1.019212334743     1.007825032230
         H           -1.203094164230     1.308207028114    -0.687789665257     1.007825032230
         H           -2.021011164230    -1.030798971886    -1.104205665257     1.007825032230
         H           -2.404968164230    -1.218386971886     0.613579334743     1.007825032230
         H           -3.305884164230    -0.055715971886    -0.369581665257     1.007825032230
         H            0.203118835770    -0.677097971886     1.239759334743     1.007825032230
         H            2.867328835770    -0.027057971886    -0.590334665257     1.007825032230

  Basis Set: AUG-CC-PVTZ
    Blend: AUG-CC-PVTZ
  Basis Set: (AUG-CC-PVTZ AUX)
    Blend: AUG-CC-PVTZ-JKFIT
	 Reference Energy          =    -247.0164301718209572 [Eh]
	 Singles Energy            =      -0.0000000000000000 [Eh]
	 Same-Spin Energy          =      -0.2449846045880643 [Eh]
	 Opposite-Spin Energy      =      -0.8177663581215755 [Eh]
	 Correlation Energy        =      -1.0627509627096399 [Eh]
	 Total Energy              =    -248.0791811345305860 [Eh]

	 ================> DF-SCS-MP2 Energies <==================
	-----------------------------------------------------------
	 SCS Same-Spin Scale       =       0.3333333333333333 [-]
	 SCS Opposite-Spin Scale   =       1.2000000000000000 [-]
	 SCS Same-Spin Energy      =      -0.0816615348626881 [Eh]
	 SCS Opposite-Spin Energy  =      -0.9813196297458906 [Eh]
	 SCS Correlation Energy    =      -1.0629811646085787 [Eh]
	 SCS Total Energy          =    -248.0794113364295299 [Eh]
	-----------------------------------------------------------

  Dipole Moment: [D]
     X:    -0.9400      Y:     0.0556      Z:     0.1425     Total:     0.9523

*** Psi4 exiting successfully. Buy a developer a beer!
