                               Psi4 1.3.2 release

  ==> Input File <==

--------------------------------------------------------------------------
#psi4
#
memory 32 gb

molecule  {
0 1
  O        2.3113770    -0.3374580     0.0558470
  N        1.1626744     0.3082112    -0.3394858
  C       -1.1987920     0.6023930     0.1340090
  C       -2.2229840    -0.4847570    -0.2038870
  C        0.1526050     0.0245260     0.4043250
  H       -1.5334920     1.1612300     1.0167400
  H       -1.1079080     1.3161780    -0.6902320
  H       -1.9266320    -1.0220700    -1.1084710
  H       -2.3096210    -1.2114710     0.6092880
  H       -3.2110640    -0.0477540    -0.3721170
  H        0.2980470    -0.6712980     1.2352290
  H        2.9626180    -0.0188780    -0.5933990
units angstrom
no_reorient  #important for SAPT in psi4, default
symmetry c1  #important for SAPT in psi4, default
}

set PROPERTIES_ORIGIN ["COM"]
properties('MP2/aug-cc-pvtz', properties = ['dipole'])
--------------------------------------------------------------------------

    Molecular point group: c1
  Charge       = 0
  Multiplicity = 1
  Basis Set: AUG-CC-PVTZ
    Blend: AUG-CC-PVTZ
  Basis Set: (AUG-CC-PVTZ AUX)
    Blend: AUG-CC-PVTZ-JKFIT

    Orbital Energies [Eh]
    ---------------------

    Doubly Occupied:

       1A    -20.597549     2A    -15.619943     3A    -11.272782
       4A    -11.239037     5A    -11.226335     6A     -1.430479
       7A     -1.156096     8A     -1.037349     9A     -0.881192
      10A     -0.773461    11A     -0.713355    12A     -0.660700
      13A     -0.618249    14A     -0.591110    15A     -0.585395
      16A     -0.533323    17A     -0.511802    18A     -0.499913
      19A     -0.436350    20A     -0.380075

  @DF-RHF Final Energy:  -247.01639248587702

   => Energetics <=

    Nuclear Repulsion Energy =            171.1619681456715796
    One-Electron Energy =                -674.8277281402282597
    Two-Electron Energy =                 256.6493675086796316
    Total Energy =                       -247.0163924858770201
  Basis Set: (AUG-CC-PVTZ AUX)
    Blend: AUG-CC-PVTZ-RI
    Molecular point group: c1

    Geometry (in Angstrom), charge = 0, multiplicity = 1:

       Center              X                  Y                   Z               Mass
    ------------   -----------------  -----------------  -----------------  -----------------
         O            2.213642714099    -0.339186987096     0.052416814362    15.994914619570
         N            1.064940114099     0.306482212904    -0.342915985638    14.003074004430
         C           -1.296526285901     0.600664012904     0.130578814362    12.000000000000
         C           -2.320718285901    -0.486485987096    -0.207317185638    12.000000000000
         C            0.054870714099     0.022797012904     0.400894814362    12.000000000000
         H           -1.631226285901     1.159501012904     1.013309814362     1.007825032230
         H           -1.205642285901     1.314449012904    -0.693662185638     1.007825032230
         H           -2.024366285901    -1.023798987096    -1.111901185638     1.007825032230
         H           -2.407355285901    -1.213199987096     0.605857814362     1.007825032230
         H           -3.308798285901    -0.049482987096    -0.375547185638     1.007825032230
         H            0.200312714099    -0.673026987096     1.231798814362     1.007825032230
         H            2.864883714099    -0.020606987096    -0.596829185638     1.007825032230

  Basis Set: AUG-CC-PVTZ
    Blend: AUG-CC-PVTZ
  Basis Set: (AUG-CC-PVTZ AUX)
    Blend: AUG-CC-PVTZ-JKFIT
	 Reference Energy          =    -247.0163924858770201 [Eh]
	 Singles Energy            =      -0.0000000000000000 [Eh]
	 Same-Spin Energy          =      -0.2452321825514279 [Eh]
	 Opposite-Spin Energy      =      -0.8172491460204938 [Eh]
	 Correlation Energy        =      -1.0624813285719217 [Eh]
	 Total Energy              =    -248.0788738144489400 [Eh]

	 ================> DF-SCS-MP2 Energies <==================
	-----------------------------------------------------------
	 SCS Same-Spin Scale       =       0.3333333333333333 [-]
	 SCS Opposite-Spin Scale   =       1.2000000000000000 [-]
	 SCS Same-Spin Energy      =      -0.0817440608504760 [Eh]
	 SCS Opposite-Spin Energy  =      -0.9806989752245925 [Eh]
	 SCS Correlation Energy    =      -1.0624430360750685 [Eh]
	 SCS Total Energy          =    -248.0788355219521009 [Eh]
	-----------------------------------------------------------

  Dipole Moment: [D]
     X:    -0.7692      Y:     0.0469      Z:     0.0966     Total:     0.7767

*** Psi4 exiting successfully. Buy a developer a beer!
