                               Psi4 1.4a3.dev225

  ==> Input File <==

--------------------------------------------------------------------------
#psi4
#
memory 32 gb

molecule  {
0 1
  O        2.3113080    -0.3373280     0.0560680
  N        1.1358640     0.3338760    -0.3647560
  C       -1.1988180     0.6025260     0.1336480
  C       -2.2227880    -0.4850450    -0.2036580
  C        0.1526150     0.0250550     0.4045550
  H       -1.5338160     1.1619340     1.0159040
  H       -1.1079660     1.3157390    -0.6910980
  H       -1.9258830    -1.0232670    -1.1075140
  H       -2.3098400    -1.2108550     0.6102710
  H       -3.2107560    -0.0481840    -0.3728900
  H        0.2982470    -0.6695660     1.2364510
  H        2.9758386    -0.0129949    -0.6069951
units angstrom
no_reorient  #important for SAPT in psi4, default
symmetry c1  #important for SAPT in psi4, default
}

set PROPERTIES_ORIGIN ["COM"]
properties('MP2/aug-cc-pvtz', properties = ['dipole'])
--------------------------------------------------------------------------

    Molecular point group: c1
  Charge       = 0
  Multiplicity = 1
  Basis Set: AUG-CC-PVTZ
    Blend: AUG-CC-PVTZ
  Basis Set: (AUG-CC-PVTZ AUX)
    Blend: AUG-CC-PVTZ-JKFIT

    Orbital Energies [Eh]
    ---------------------

    Doubly Occupied:

       1A    -20.594650     2A    -15.622558     3A    -11.276952
       4A    -11.239594     5A    -11.227295     6A     -1.406651
       7A     -1.158053     8A     -1.037428     9A     -0.880773
      10A     -0.773699    11A     -0.699311    12A     -0.653734
      13A     -0.614897    14A     -0.586410    15A     -0.580511
      16A     -0.532329    17A     -0.511649    18A     -0.500823
      19A     -0.442437    20A     -0.385402

  @DF-RHF Final Energy:  -247.01343912493223

   => Energetics <=

    Nuclear Repulsion Energy =            170.5356121716704081
    One-Electron Energy =                -673.6477892549992248
    Two-Electron Energy =                 256.0987379583965549
    Total Energy =                       -247.0134391249322334
  Basis Set: (AUG-CC-PVTZ AUX)
    Blend: AUG-CC-PVTZ-RI
    Molecular point group: c1

    Geometry (in Angstrom), charge = 0, multiplicity = 1:

       Center              X                  Y                   Z               Mass
    ------------   -----------------  -----------------  -----------------  -----------------
         O            2.218506949484    -0.344161192110     0.057595323149    15.994914619570
         N            1.043062949484     0.327042807890    -0.363228676851    14.003074004430
         C           -1.291619050516     0.595692807890     0.135175323149    12.000000000000
         C           -2.315589050516    -0.491878192110    -0.202130676851    12.000000000000
         C            0.059813949484     0.018221807890     0.406082323149    12.000000000000
         H           -1.626617050516     1.155100807890     1.017431323149     1.007825032230
         H           -1.200767050516     1.308905807890    -0.689570676851     1.007825032230
         H           -2.018684050516    -1.030100192110    -1.105986676851     1.007825032230
         H           -2.402641050516    -1.217688192110     0.611798323149     1.007825032230
         H           -3.303557050516    -0.055017192110    -0.371362676851     1.007825032230
         H            0.205445949484    -0.676399192110     1.237978323149     1.007825032230
         H            2.883037549484    -0.019828092110    -0.605467776851     1.007825032230

  Basis Set: AUG-CC-PVTZ
    Blend: AUG-CC-PVTZ
  Basis Set: (AUG-CC-PVTZ AUX)
    Blend: AUG-CC-PVTZ-JKFIT
	 Reference Energy          =    -247.0134391249322334 [Eh]
	 Singles Energy            =      -0.0000000000000000 [Eh]
	 Same-Spin Energy          =      -0.2457018500658341 [Eh]
	 Opposite-Spin Energy      =      -0.8195579474593166 [Eh]
	 Correlation Energy        =      -1.0652597975251508 [Eh]
	 Total Energy              =    -248.0786989224573915 [Eh]

	 ================> DF-SCS-MP2 Energies <==================
	-----------------------------------------------------------
	 SCS Same-Spin Scale       =       0.3333333333333333 [-]
	 SCS Opposite-Spin Scale   =       1.2000000000000000 [-]
	 SCS Same-Spin Energy      =      -0.0819006166886113 [Eh]
	 SCS Opposite-Spin Energy  =      -0.9834695369511799 [Eh]
	 SCS Correlation Energy    =      -1.0653701536397913 [Eh]
	 SCS Total Energy          =    -248.0788092785720380 [Eh]
	-----------------------------------------------------------

  Dipole Moment: [D]
     X:    -0.9152      Y:     0.0553      Z:     0.1367     Total:     0.9270

*** Psi4 exiting successfully. Buy a developer a beer!
