                               Psi4 1.3.2 release

  ==> Input File <==

--------------------------------------------------------------------------
#psi4
#
memory 32 gb

molecule  {
0 1
  O        2.3113770    -0.3374580     0.0558470
  N        1.1494935     0.3213478    -0.3520361
  C       -1.1987920     0.6023930     0.1340090
  C       -2.2229840    -0.4847570    -0.2038870
  C        0.1526050     0.0245260     0.4043250
  H       -1.5334920     1.1612300     1.0167400
  H       -1.1079080     1.3161780    -0.6902320
  H       -1.9266320    -1.0220700    -1.1084710
  H       -2.3096210    -1.2114710     0.6092880
  H       -3.2110640    -0.0477540    -0.3721170
  H        0.2980470    -0.6712980     1.2352290
  H        2.9626180    -0.0188780    -0.5933990
units angstrom
no_reorient  #important for SAPT in psi4, default
symmetry c1  #important for SAPT in psi4, default
}

set PROPERTIES_ORIGIN ["COM"]
properties('MP2/aug-cc-pvtz', properties = ['dipole'])
--------------------------------------------------------------------------

    Molecular point group: c1
  Charge       = 0
  Multiplicity = 1
  Basis Set: AUG-CC-PVTZ
    Blend: AUG-CC-PVTZ
  Basis Set: (AUG-CC-PVTZ AUX)
    Blend: AUG-CC-PVTZ-JKFIT

    Orbital Energies [Eh]
    ---------------------

    Doubly Occupied:

       1A    -20.595218     2A    -15.621363     3A    -11.275035
       4A    -11.239400     5A    -11.226896     6A     -1.419973
       7A     -1.157995     8A     -1.037698     9A     -0.881228
      10A     -0.773537    11A     -0.708091    12A     -0.657618
      13A     -0.616841    14A     -0.587147    15A     -0.585146
      16A     -0.533050    17A     -0.511964    18A     -0.500459
      19A     -0.439911    20A     -0.382993

  @DF-RHF Final Energy:  -247.01608254291338

   => Energetics <=

    Nuclear Repulsion Energy =            170.9004368413933719
    One-Electron Energy =                -674.3299088842815081
    Two-Electron Energy =                 256.4133894999748122
    Total Energy =                       -247.0160825429133524
  Basis Set: (AUG-CC-PVTZ AUX)
    Blend: AUG-CC-PVTZ-RI
    Molecular point group: c1

    Geometry (in Angstrom), charge = 0, multiplicity = 1:

       Center              X                  Y                   Z               Mass
    ------------   -----------------  -----------------  -----------------  -----------------
         O            2.216169286790    -0.341705068169     0.054822510881    15.994914619570
         N            1.054285786790     0.317100731831    -0.353060589119    14.003074004430
         C           -1.293999713210     0.598145931831     0.132984510881    12.000000000000
         C           -2.318191713210    -0.489004068169    -0.204911489119    12.000000000000
         C            0.057397286790     0.020278931831     0.403300510881    12.000000000000
         H           -1.628699713210     1.156982931831     1.015715510881     1.007825032230
         H           -1.203115713210     1.311930931831    -0.691256489119     1.007825032230
         H           -2.021839713210    -1.026317068169    -1.109495489119     1.007825032230
         H           -2.404828713210    -1.215718068169     0.608263510881     1.007825032230
         H           -3.306271713210    -0.052001068169    -0.373141489119     1.007825032230
         H            0.202839286790    -0.675545068169     1.234204510881     1.007825032230
         H            2.867410286790    -0.023125068169    -0.594423489119     1.007825032230

  Basis Set: AUG-CC-PVTZ
    Blend: AUG-CC-PVTZ
  Basis Set: (AUG-CC-PVTZ AUX)
    Blend: AUG-CC-PVTZ-JKFIT
	 Reference Energy          =    -247.0160825429133808 [Eh]
	 Singles Energy            =      -0.0000000000000000 [Eh]
	 Same-Spin Energy          =      -0.2453287360250264 [Eh]
	 Opposite-Spin Energy      =      -0.8180403942457695 [Eh]
	 Correlation Energy        =      -1.0633691302707959 [Eh]
	 Total Energy              =    -248.0794516731841668 [Eh]

	 ================> DF-SCS-MP2 Energies <==================
	-----------------------------------------------------------
	 SCS Same-Spin Scale       =       0.3333333333333333 [-]
	 SCS Opposite-Spin Scale   =       1.2000000000000000 [-]
	 SCS Same-Spin Energy      =      -0.0817762453416755 [Eh]
	 SCS Opposite-Spin Energy  =      -0.9816484730949233 [Eh]
	 SCS Correlation Energy    =      -1.0634247184365988 [Eh]
	 SCS Total Energy          =    -248.0795072613499883 [Eh]
	-----------------------------------------------------------

  Dipole Moment: [D]
     X:    -0.8562      Y:     0.0481      Z:     0.1248     Total:     0.8666

*** Psi4 exiting successfully. Buy a developer a beer!
