                               Psi4 1.3.2 release

  ==> Input File <==

--------------------------------------------------------------------------
#psi4
#
memory 32 gb

molecule  {
0 1
  O        2.3113770    -0.3374580     0.0558470
  N        1.1360090     0.3343940    -0.3643560
  C       -1.1987920     0.6023930     0.1340090
  C       -2.2229840    -0.4847570    -0.2038870
  C        0.1526050     0.0245260     0.4043250
  H       -1.5334920     1.1612300     1.0167400
  H       -1.1079080     1.3161780    -0.6902320
  H       -1.9266320    -1.0220700    -1.1084710
  H       -2.3096210    -1.2114710     0.6092880
  H       -3.2110640    -0.0477540    -0.3721170
  H        0.2980470    -0.6712980     1.2352290
  H        2.9626180    -0.0188780    -0.5933990
units angstrom
no_reorient  #important for SAPT in psi4, default
symmetry c1  #important for SAPT in psi4, default
}

set PROPERTIES_ORIGIN ["COM"]
properties('MP2/aug-cc-pvtz', properties = ['dipole'])
--------------------------------------------------------------------------

    Molecular point group: c1
  Charge       = 0
  Multiplicity = 1
  Basis Set: AUG-CC-PVTZ
    Blend: AUG-CC-PVTZ
  Basis Set: (AUG-CC-PVTZ AUX)
    Blend: AUG-CC-PVTZ-JKFIT

    Orbital Energies [Eh]
    ---------------------

    Doubly Occupied:

       1A    -20.592945     2A    -15.622865     3A    -11.277259
       4A    -11.239752     5A    -11.227432     6A     -1.409957
       7A     -1.159958     8A     -1.038032     9A     -0.881292
      10A     -0.773982    11A     -0.703018    12A     -0.654617
      13A     -0.615451    14A     -0.587003    15A     -0.581157
      16A     -0.532686    17A     -0.512092    18A     -0.500987
      19A     -0.443080    20A     -0.385856

  @DF-RHF Final Energy:  -247.01509735825789

   => Energetics <=

    Nuclear Repulsion Energy =            170.6476057190870677
    One-Electron Energy =                -673.8465595069404799
    Two-Electron Energy =                 256.1838564295954939
    Total Energy =                       -247.0150973582578899
  Basis Set: (AUG-CC-PVTZ AUX)
    Blend: AUG-CC-PVTZ-RI
    Molecular point group: c1

    Geometry (in Angstrom), charge = 0, multiplicity = 1:

       Center              X                  Y                   Z               Mass
    ------------   -----------------  -----------------  -----------------  -----------------
         O            2.218754054860    -0.344205820973     0.057184043317    15.994914619570
         N            1.043386054860     0.327646179027    -0.363018956683    14.003074004430
         C           -1.291414945140     0.595645179027     0.135346043317    12.000000000000
         C           -2.315606945140    -0.491504820973    -0.202549956683    12.000000000000
         C            0.059982054860     0.017778179027     0.405662043317    12.000000000000
         H           -1.626114945140     1.154482179027     1.018077043317     1.007825032230
         H           -1.200530945140     1.309430179027    -0.688894956683     1.007825032230
         H           -2.019254945140    -1.028817820973    -1.107133956683     1.007825032230
         H           -2.402243945140    -1.218218820973     0.610625043317     1.007825032230
         H           -3.303686945140    -0.054501820973    -0.370779956683     1.007825032230
         H            0.205424054860    -0.678045820973     1.236566043317     1.007825032230
         H            2.869995054860    -0.025625820973    -0.592061956683     1.007825032230

  Basis Set: AUG-CC-PVTZ
    Blend: AUG-CC-PVTZ
  Basis Set: (AUG-CC-PVTZ AUX)
    Blend: AUG-CC-PVTZ-JKFIT
	 Reference Energy          =    -247.0150973582578899 [Eh]
	 Singles Energy            =      -0.0000000000000000 [Eh]
	 Same-Spin Energy          =      -0.2454531504499748 [Eh]
	 Opposite-Spin Energy      =      -0.8188864966941218 [Eh]
	 Correlation Energy        =      -1.0643396471440967 [Eh]
	 Total Energy              =    -248.0794370054019851 [Eh]

	 ================> DF-SCS-MP2 Energies <==================
	-----------------------------------------------------------
	 SCS Same-Spin Scale       =       0.3333333333333333 [-]
	 SCS Opposite-Spin Scale   =       1.2000000000000000 [-]
	 SCS Same-Spin Energy      =      -0.0818177168166583 [Eh]
	 SCS Opposite-Spin Energy  =      -0.9826637960329462 [Eh]
	 SCS Correlation Energy    =      -1.0644815128496043 [Eh]
	 SCS Total Energy          =    -248.0795788711074863 [Eh]
	-----------------------------------------------------------

  Dipole Moment: [D]
     X:    -0.9395      Y:     0.0497      Z:     0.1512     Total:     0.9529

*** Psi4 exiting successfully. Buy a developer a beer!
