                               Psi4 1.4a3.dev225

  ==> Input File <==

--------------------------------------------------------------------------
#psi4
#
memory 32 gb

molecule  {
0 1
  O        2.3113080    -0.3373280     0.0560680
  N        1.1358640     0.3338760    -0.3647560
  C       -1.1988180     0.6025260     0.1336480
  C       -2.2227880    -0.4850450    -0.2036580
  C        0.1526150     0.0250550     0.4045550
  H       -1.5338160     1.1619340     1.0159040
  H       -1.1079660     1.3157390    -0.6910980
  H       -1.9258830    -1.0232670    -1.1075140
  H       -2.3098400    -1.2108550     0.6102710
  H       -3.2107560    -0.0481840    -0.3728900
  H        0.2982470    -0.6695660     1.2364510
  H        2.9290030    -0.0358537    -0.5602628
units angstrom
no_reorient  #important for SAPT in psi4, default
symmetry c1  #important for SAPT in psi4, default
}

set PROPERTIES_ORIGIN ["COM"]
properties('MP2/aug-cc-pvtz', properties = ['dipole'])
--------------------------------------------------------------------------

    Molecular point group: c1
  Charge       = 0
  Multiplicity = 1
  Basis Set: AUG-CC-PVTZ
    Blend: AUG-CC-PVTZ
  Basis Set: (AUG-CC-PVTZ AUX)
    Blend: AUG-CC-PVTZ-JKFIT

    Orbital Energies [Eh]
    ---------------------

    Doubly Occupied:

       1A    -20.588370     2A    -15.623673     3A    -11.278065
       4A    -11.240151     5A    -11.227768     6A     -1.419484
       7A     -1.165101     8A     -1.039587     9A     -0.882702
      10A     -0.774703    11A     -0.712900    12A     -0.656675
      13A     -0.616772    14A     -0.588441    15A     -0.582830
      16A     -0.533564    17A     -0.513146    18A     -0.501386
      19A     -0.444674    20A     -0.387034

  @DF-RHF Final Energy:  -247.01590312057840

   => Energetics <=

    Nuclear Repulsion Energy =            170.9530238804516671
    One-Electron Energy =                -674.3838016897894931
    Two-Electron Energy =                 256.4148746887594257
    Total Energy =                       -247.0159031205784004
  Basis Set: (AUG-CC-PVTZ AUX)
    Blend: AUG-CC-PVTZ-RI
    Molecular point group: c1

    Geometry (in Angstrom), charge = 0, multiplicity = 1:

       Center              X                  Y                   Z               Mass
    ------------   -----------------  -----------------  -----------------  -----------------
         O            2.219153086434    -0.343845835515     0.056950611309    15.994914619570
         N            1.043709086434     0.327358164485    -0.363873388691    14.003074004430
         C           -1.290972913566     0.596008164485     0.134530611309    12.000000000000
         C           -2.314942913566    -0.491562835515    -0.202775388691    12.000000000000
         C            0.060460086434     0.018537164485     0.405437611309    12.000000000000
         H           -1.625970913566     1.155416164485     1.016786611309     1.007825032230
         H           -1.200120913566     1.309221164485    -0.690215388691     1.007825032230
         H           -2.018037913566    -1.029784835515    -1.106631388691     1.007825032230
         H           -2.401994913566    -1.217372835515     0.611153611309     1.007825032230
         H           -3.302910913566    -0.054701835515    -0.372007388691     1.007825032230
         H            0.206092086434    -0.676083835515     1.237333611309     1.007825032230
         H            2.836848086434    -0.042371535515    -0.559380188691     1.007825032230

  Basis Set: AUG-CC-PVTZ
    Blend: AUG-CC-PVTZ
  Basis Set: (AUG-CC-PVTZ AUX)
    Blend: AUG-CC-PVTZ-JKFIT
	 Reference Energy          =    -247.0159031205784004 [Eh]
	 Singles Energy            =      -0.0000000000000000 [Eh]
	 Same-Spin Energy          =      -0.2448254381084176 [Eh]
	 Opposite-Spin Energy      =      -0.8172533665204924 [Eh]
	 Correlation Energy        =      -1.0620788046289100 [Eh]
	 Total Energy              =    -248.0779819252072969 [Eh]

	 ================> DF-SCS-MP2 Energies <==================
	-----------------------------------------------------------
	 SCS Same-Spin Scale       =       0.3333333333333333 [-]
	 SCS Opposite-Spin Scale   =       1.2000000000000000 [-]
	 SCS Same-Spin Energy      =      -0.0816084793694725 [Eh]
	 SCS Opposite-Spin Energy  =      -0.9807040398245909 [Eh]
	 SCS Correlation Energy    =      -1.0623125191940634 [Eh]
	 SCS Total Energy          =    -248.0782156397724521 [Eh]
	-----------------------------------------------------------

  Dipole Moment: [D]
     X:    -1.0013      Y:     0.0375      Z:     0.1883     Total:     1.0195

*** Psi4 exiting successfully. Buy a developer a beer!
