                               Psi4 1.3.2 release

  ==> Input File <==

--------------------------------------------------------------------------
#psi4
#
memory 32 gb

molecule  {
0 1
  O        2.3238527    -0.3267341     0.0373686
  N        1.1360090     0.3343940    -0.3643560
  C       -1.1987920     0.6023930     0.1340090
  C       -2.2229840    -0.4847570    -0.2038870
  C        0.1526050     0.0245260     0.4043250
  H       -1.5334920     1.1612300     1.0167400
  H       -1.1079080     1.3161780    -0.6902320
  H       -1.9266320    -1.0220700    -1.1084710
  H       -2.3096210    -1.2114710     0.6092880
  H       -3.2110640    -0.0477540    -0.3721170
  H        0.2980470    -0.6712980     1.2352290
  H        2.9626180    -0.0188780    -0.5933990
units angstrom
no_reorient  #important for SAPT in psi4, default
symmetry c1  #important for SAPT in psi4, default
}

set PROPERTIES_ORIGIN ["COM"]
properties('MP2/aug-cc-pvtz', properties = ['dipole'])
--------------------------------------------------------------------------

    Molecular point group: c1
  Charge       = 0
  Multiplicity = 1
  Basis Set: AUG-CC-PVTZ
    Blend: AUG-CC-PVTZ
  Basis Set: (AUG-CC-PVTZ AUX)
    Blend: AUG-CC-PVTZ-JKFIT

    Orbital Energies [Eh]
    ---------------------

    Doubly Occupied:

       1A    -20.591033     2A    -15.623308     3A    -11.277848
       4A    -11.240081     5A    -11.227576     6A     -1.413012
       7A     -1.162896     8A     -1.038892     9A     -0.882139
      10A     -0.774081    11A     -0.709166    12A     -0.654498
      13A     -0.616686    14A     -0.587754    15A     -0.581755
      16A     -0.533435    17A     -0.513030    18A     -0.501151
      19A     -0.441295    20A     -0.386628

  @DF-RHF Final Energy:  -247.01627627167051

   => Energetics <=

    Nuclear Repulsion Energy =            170.6301805462003074
    One-Electron Energy =                -673.7803885380282054
    Two-Electron Energy =                 256.1339317201573635
    Total Energy =                       -247.0162762716705060
  Basis Set: (AUG-CC-PVTZ AUX)
    Blend: AUG-CC-PVTZ-RI
    Molecular point group: c1

    Geometry (in Angstrom), charge = 0, multiplicity = 1:

       Center              X                  Y                   Z               Mass
    ------------   -----------------  -----------------  -----------------  -----------------
         O            2.228498198300    -0.335829920636     0.042751492026    15.994914619570
         N            1.040654498300     0.325298179364    -0.358973107974    14.003074004430
         C           -1.294146501700     0.593297179364     0.139391892026    12.000000000000
         C           -2.318338501700    -0.493852820636    -0.198504107974    12.000000000000
         C            0.057250498300     0.015430179364     0.409707892026    12.000000000000
         H           -1.628846501700     1.152134179364     1.022122892026     1.007825032230
         H           -1.203262501700     1.307082179364    -0.684849107974     1.007825032230
         H           -2.021986501700    -1.031165820636    -1.103088107974     1.007825032230
         H           -2.404975501700    -1.220566820636     0.614670892026     1.007825032230
         H           -3.306418501700    -0.056849820636    -0.366734107974     1.007825032230
         H            0.202692498300    -0.680393820636     1.240611892026     1.007825032230
         H            2.867263498300    -0.027973820636    -0.588016107974     1.007825032230

  Basis Set: AUG-CC-PVTZ
    Blend: AUG-CC-PVTZ
  Basis Set: (AUG-CC-PVTZ AUX)
    Blend: AUG-CC-PVTZ-JKFIT
	 Reference Energy          =    -247.0162762716705060 [Eh]
	 Singles Energy            =      -0.0000000000000000 [Eh]
	 Same-Spin Energy          =      -0.2450685567108002 [Eh]
	 Opposite-Spin Energy      =      -0.8179318614824593 [Eh]
	 Correlation Energy        =      -1.0630004181932595 [Eh]
	 Total Energy              =    -248.0792766898637751 [Eh]

	 ================> DF-SCS-MP2 Energies <==================
	-----------------------------------------------------------
	 SCS Same-Spin Scale       =       0.3333333333333333 [-]
	 SCS Opposite-Spin Scale   =       1.2000000000000000 [-]
	 SCS Same-Spin Energy      =      -0.0816895189036001 [Eh]
	 SCS Opposite-Spin Energy  =      -0.9815182337789512 [Eh]
	 SCS Correlation Energy    =      -1.0632077526825512 [Eh]
	 SCS Total Energy          =    -248.0794840243530643 [Eh]
	-----------------------------------------------------------

  Dipole Moment: [D]
     X:    -0.9598      Y:     0.0400      Z:     0.1693     Total:     0.9755

*** Psi4 exiting successfully. Buy a developer a beer!
