                               Psi4 1.3.2 release

  ==> Input File <==

--------------------------------------------------------------------------
#psi4
#
memory 32 gb

molecule  {
0 1
  O        2.3113770    -0.3374580     0.0558470
  N        1.1222249     0.3473458    -0.3764417
  C       -1.1987920     0.6023930     0.1340090
  C       -2.2229840    -0.4847570    -0.2038870
  C        0.1526050     0.0245260     0.4043250
  H       -1.5334920     1.1612300     1.0167400
  H       -1.1079080     1.3161780    -0.6902320
  H       -1.9266320    -1.0220700    -1.1084710
  H       -2.3096210    -1.2114710     0.6092880
  H       -3.2110640    -0.0477540    -0.3721170
  H        0.2980470    -0.6712980     1.2352290
  H        2.9626180    -0.0188780    -0.5933990
units angstrom
no_reorient  #important for SAPT in psi4, default
symmetry c1  #important for SAPT in psi4, default
}

set PROPERTIES_ORIGIN ["COM"]
properties('MP2/aug-cc-pvtz', properties = ['dipole'])
--------------------------------------------------------------------------

    Molecular point group: c1
  Charge       = 0
  Multiplicity = 1
  Basis Set: AUG-CC-PVTZ
    Blend: AUG-CC-PVTZ
  Basis Set: (AUG-CC-PVTZ AUX)
    Blend: AUG-CC-PVTZ-JKFIT

    Orbital Energies [Eh]
    ---------------------

    Doubly Occupied:

       1A    -20.590718     2A    -15.624448     3A    -11.279457
       4A    -11.240097     5A    -11.227945     6A     -1.400421
       7A     -1.161982     8A     -1.038354     9A     -0.881377
      10A     -0.774710    11A     -0.698207    12A     -0.651744
      13A     -0.614015    14A     -0.587454    15A     -0.576728
      16A     -0.532225    17A     -0.512194    18A     -0.501508
      19A     -0.445820    20A     -0.388660

  @DF-RHF Final Energy:  -247.01349083088945

   => Energetics <=

    Nuclear Repulsion Energy =            170.4035877673076413
    One-Electron Energy =                -673.3780279550766181
    Two-Electron Energy =                 255.9609493568795529
    Total Energy =                       -247.0134908308894524
  Basis Set: (AUG-CC-PVTZ AUX)
    Blend: AUG-CC-PVTZ-RI
    Molecular point group: c1

    Geometry (in Angstrom), charge = 0, multiplicity = 1:

       Center              X                  Y                   Z               Mass
    ------------   -----------------  -----------------  -----------------  -----------------
         O            2.221396251571    -0.346688478772     0.059500683272    15.994914619570
         N            1.032244151571     0.338115321228    -0.372788016728    14.003074004430
         C           -1.288772748429     0.593162521228     0.137662683272    12.000000000000
         C           -2.312964748429    -0.493987478772    -0.200233316728    12.000000000000
         C            0.062624251571     0.015295521228     0.407978683272    12.000000000000
         H           -1.623472748429     1.151999521228     1.020393683272     1.007825032230
         H           -1.197888748429     1.306947521228    -0.686578316728     1.007825032230
         H           -2.016612748429    -1.031300478772    -1.104817316728     1.007825032230
         H           -2.399601748429    -1.220701478772     0.612941683272     1.007825032230
         H           -3.301044748429    -0.056984478772    -0.368463316728     1.007825032230
         H            0.208066251571    -0.680528478772     1.238882683272     1.007825032230
         H            2.872637251571    -0.028108478772    -0.589745316728     1.007825032230

  Basis Set: AUG-CC-PVTZ
    Blend: AUG-CC-PVTZ
  Basis Set: (AUG-CC-PVTZ AUX)
    Blend: AUG-CC-PVTZ-JKFIT
	 Reference Energy          =    -247.0134908308894524 [Eh]
	 Singles Energy            =      -0.0000000000000000 [Eh]
	 Same-Spin Energy          =      -0.2456047255560761 [Eh]
	 Opposite-Spin Energy      =      -0.8197855821280614 [Eh]
	 Correlation Energy        =      -1.0653903076841376 [Eh]
	 Total Energy              =    -248.0788811385735926 [Eh]

	 ================> DF-SCS-MP2 Energies <==================
	-----------------------------------------------------------
	 SCS Same-Spin Scale       =       0.3333333333333333 [-]
	 SCS Opposite-Spin Scale   =       1.2000000000000000 [-]
	 SCS Same-Spin Energy      =      -0.0818682418520254 [Eh]
	 SCS Opposite-Spin Energy  =      -0.9837426985536737 [Eh]
	 SCS Correlation Energy    =      -1.0656109404056990 [Eh]
	 SCS Total Energy          =    -248.0791017712951430 [Eh]
	-----------------------------------------------------------

  Dipole Moment: [D]
     X:    -1.0188      Y:     0.0517      Z:     0.1759     Total:     1.0352

*** Psi4 exiting successfully. Buy a developer a beer!
