                               Psi4 1.3.2 release

  ==> Input File <==

--------------------------------------------------------------------------
#psi4
#
memory 32 gb

molecule  {
0 1
  O        2.3113770    -0.3374580     0.0558470
  N        1.0795617     0.3871407    -0.4100667
  C       -1.1987920     0.6023930     0.1340090
  C       -2.2229840    -0.4847570    -0.2038870
  C        0.1526050     0.0245260     0.4043250
  H       -1.5334920     1.1612300     1.0167400
  H       -1.1079080     1.3161780    -0.6902320
  H       -1.9266320    -1.0220700    -1.1084710
  H       -2.3096210    -1.2114710     0.6092880
  H       -3.2110640    -0.0477540    -0.3721170
  H        0.2980470    -0.6712980     1.2352290
  H        2.9626180    -0.0188780    -0.5933990
units angstrom
no_reorient  #important for SAPT in psi4, default
symmetry c1  #important for SAPT in psi4, default
}

set PROPERTIES_ORIGIN ["COM"]
properties('MP2/aug-cc-pvtz', properties = ['dipole'])
--------------------------------------------------------------------------

    Molecular point group: c1
  Charge       = 0
  Multiplicity = 1
  Basis Set: AUG-CC-PVTZ
    Blend: AUG-CC-PVTZ
  Basis Set: (AUG-CC-PVTZ AUX)
    Blend: AUG-CC-PVTZ-JKFIT

    Orbital Energies [Eh]
    ---------------------

    Doubly Occupied:

       1A    -20.584155     2A    -15.629683     3A    -11.285932
       4A    -11.241142     5A    -11.229391     6A     -1.374530
       7A     -1.168377     8A     -1.039260     9A     -0.881716
      10A     -0.778043    11A     -0.685690    12A     -0.644245
      13A     -0.609334    14A     -0.588655    15A     -0.564996
      16A     -0.530106    17A     -0.512479    18A     -0.503200
      19A     -0.451037    20A     -0.396678

  @DF-RHF Final Energy:  -247.00543701895742

   => Energetics <=

    Nuclear Repulsion Energy =            169.7230493885851388
    One-Electron Energy =                -672.0596747320436180
    Two-Electron Energy =                 255.3311883245010563
    Total Energy =                       -247.0054370189574229
  Basis Set: (AUG-CC-PVTZ AUX)
    Blend: AUG-CC-PVTZ-RI
    Molecular point group: c1

    Geometry (in Angstrom), charge = 0, multiplicity = 1:

       Center              X                  Y                   Z               Mass
    ------------   -----------------  -----------------  -----------------  -----------------
         O            2.229574120763    -0.354316539646     0.065946070668    15.994914619570
         N            0.997758820763     0.370282160354    -0.399967629332    14.003074004430
         C           -1.280594879237     0.585534460354     0.144108070668    12.000000000000
         C           -2.304786879237    -0.501615539646    -0.193787929332    12.000000000000
         C            0.070802120763     0.007667460354     0.414424070668    12.000000000000
         H           -1.615294879237     1.144371460354     1.026839070668     1.007825032230
         H           -1.189710879237     1.299319460354    -0.680132929332     1.007825032230
         H           -2.008434879237    -1.038928539646    -1.098371929332     1.007825032230
         H           -2.391423879237    -1.228329539646     0.619387070668     1.007825032230
         H           -3.292866879237    -0.064612539646    -0.362017929332     1.007825032230
         H            0.216244120763    -0.688156539646     1.245328070668     1.007825032230
         H            2.880815120763    -0.035736539646    -0.583299929332     1.007825032230

  Basis Set: AUG-CC-PVTZ
    Blend: AUG-CC-PVTZ
  Basis Set: (AUG-CC-PVTZ AUX)
    Blend: AUG-CC-PVTZ-JKFIT
	 Reference Energy          =    -247.0054370189574229 [Eh]
	 Singles Energy            =      -0.0000000000000000 [Eh]
	 Same-Spin Energy          =      -0.2462117006201714 [Eh]
	 Opposite-Spin Energy      =      -0.8227724688949152 [Eh]
	 Correlation Energy        =      -1.0689841695150866 [Eh]
	 Total Energy              =    -248.0744211884725132 [Eh]

	 ================> DF-SCS-MP2 Energies <==================
	-----------------------------------------------------------
	 SCS Same-Spin Scale       =       0.3333333333333333 [-]
	 SCS Opposite-Spin Scale   =       1.2000000000000000 [-]
	 SCS Same-Spin Energy      =      -0.0820705668733905 [Eh]
	 SCS Opposite-Spin Energy  =      -0.9873269626738982 [Eh]
	 SCS Correlation Energy    =      -1.0693975295472886 [Eh]
	 SCS Total Energy          =    -248.0748345485047253 [Eh]
	-----------------------------------------------------------

  Dipole Moment: [D]
     X:    -1.2324      Y:     0.0572      Z:     0.2398     Total:     1.2568

*** Psi4 exiting successfully. Buy a developer a beer!
