                               Psi4 1.3.2 release

  ==> Input File <==

--------------------------------------------------------------------------
#psi4
#
memory 32 gb

molecule  {
0 1
  O        2.3113770    -0.3374580     0.0558470
  N        1.1081455     0.3601993    -0.3882896
  C       -1.1987920     0.6023930     0.1340090
  C       -2.2229840    -0.4847570    -0.2038870
  C        0.1526050     0.0245260     0.4043250
  H       -1.5334920     1.1612300     1.0167400
  H       -1.1079080     1.3161780    -0.6902320
  H       -1.9266320    -1.0220700    -1.1084710
  H       -2.3096210    -1.2114710     0.6092880
  H       -3.2110640    -0.0477540    -0.3721170
  H        0.2980470    -0.6712980     1.2352290
  H        2.9626180    -0.0188780    -0.5933990
units angstrom
no_reorient  #important for SAPT in psi4, default
symmetry c1  #important for SAPT in psi4, default
}

set PROPERTIES_ORIGIN ["COM"]
properties('MP2/aug-cc-pvtz', properties = ['dipole'])
--------------------------------------------------------------------------

    Molecular point group: c1
  Charge       = 0
  Multiplicity = 1
  Basis Set: AUG-CC-PVTZ
    Blend: AUG-CC-PVTZ
  Basis Set: (AUG-CC-PVTZ AUX)
    Blend: AUG-CC-PVTZ-JKFIT

    Orbital Energies [Eh]
    ---------------------

    Doubly Occupied:

       1A    -20.588521     2A    -15.626113     3A    -11.281632
       4A    -11.240440     5A    -11.228438     6A     -1.391350
       7A     -1.164062     8A     -1.038663     9A     -0.881478
      10A     -0.775658    11A     -0.693703    12A     -0.649041
      13A     -0.612507    14A     -0.587900    15A     -0.572511
      16A     -0.531656    17A     -0.512282    18A     -0.502037
      19A     -0.448089    20A     -0.391400

  @DF-RHF Final Energy:  -247.01131386417993

   => Energetics <=

    Nuclear Repulsion Energy =            170.1684643123247724
    One-Electron Energy =                -672.9245917597689868
    Two-Electron Energy =                 255.7448135832642890
    Total Energy =                       -247.0113138641799253
  Basis Set: (AUG-CC-PVTZ AUX)
    Blend: AUG-CC-PVTZ-RI
    Molecular point group: c1

    Geometry (in Angstrom), charge = 0, multiplicity = 1:

       Center              X                  Y                   Z               Mass
    ------------   -----------------  -----------------  -----------------  -----------------
         O            2.224095052681    -0.349152293996     0.061771740679    15.994914619570
         N            1.020863552681     0.348505006004    -0.382364859321    14.003074004430
         C           -1.286073947319     0.590698706004     0.139933740679    12.000000000000
         C           -2.310265947319    -0.496451293996    -0.197962259321    12.000000000000
         C            0.065323052681     0.012831706004     0.410249740679    12.000000000000
         H           -1.620773947319     1.149535706004     1.022664740679     1.007825032230
         H           -1.195189947319     1.304483706004    -0.684307259321     1.007825032230
         H           -2.013913947319    -1.033764293996    -1.102546259321     1.007825032230
         H           -2.396902947319    -1.223165293996     0.615212740679     1.007825032230
         H           -3.298345947319    -0.059448293996    -0.366192259321     1.007825032230
         H            0.210765052681    -0.682992293996     1.241153740679     1.007825032230
         H            2.875336052681    -0.030572293996    -0.587474259321     1.007825032230

  Basis Set: AUG-CC-PVTZ
    Blend: AUG-CC-PVTZ
  Basis Set: (AUG-CC-PVTZ AUX)
    Blend: AUG-CC-PVTZ-JKFIT
	 Reference Energy          =    -247.0113138641799253 [Eh]
	 Singles Energy            =      -0.0000000000000000 [Eh]
	 Same-Spin Energy          =      -0.2457825406547581 [Eh]
	 Opposite-Spin Energy      =      -0.8207351538457810 [Eh]
	 Correlation Energy        =      -1.0665176945005390 [Eh]
	 Total Energy              =    -248.0778315586804581 [Eh]

	 ================> DF-SCS-MP2 Energies <==================
	-----------------------------------------------------------
	 SCS Same-Spin Scale       =       0.3333333333333333 [-]
	 SCS Opposite-Spin Scale   =       1.2000000000000000 [-]
	 SCS Same-Spin Energy      =      -0.0819275135515860 [Eh]
	 SCS Opposite-Spin Energy  =      -0.9848821846149372 [Eh]
	 SCS Correlation Energy    =      -1.0668096981665232 [Eh]
	 SCS Total Energy          =    -248.0781235623464624 [Eh]
	-----------------------------------------------------------

  Dipole Moment: [D]
     X:    -1.0941      Y:     0.0540      Z:     0.1990     Total:     1.1133

*** Psi4 exiting successfully. Buy a developer a beer!
