                               Psi4 1.4a3.dev225

  ==> Input File <==

--------------------------------------------------------------------------
#psi4
#
memory 32 gb

molecule  {
0 1
  O        2.3113080    -0.3373280     0.0560680
  N        1.1358640     0.3338760    -0.3647560
  C       -1.1988180     0.6025260     0.1336480
  C       -2.2227880    -0.4850450    -0.2036580
  C        0.1526150     0.0250550     0.4045550
  H       -1.5338160     1.1619340     1.0159040
  H       -1.1079660     1.3157390    -0.6910980
  H       -1.9258830    -1.0232670    -1.1075140
  H       -2.3098400    -1.2108550     0.6102710
  H       -3.2107560    -0.0481840    -0.3728900
  H        0.2982470    -0.6695660     1.2364510
  H        2.9490754    -0.0260571    -0.5802909
units angstrom
no_reorient  #important for SAPT in psi4, default
symmetry c1  #important for SAPT in psi4, default
}

set PROPERTIES_ORIGIN ["COM"]
properties('MP2/aug-cc-pvtz', properties = ['dipole'])
--------------------------------------------------------------------------

    Molecular point group: c1
  Charge       = 0
  Multiplicity = 1
  Basis Set: AUG-CC-PVTZ
    Blend: AUG-CC-PVTZ
  Basis Set: (AUG-CC-PVTZ AUX)
    Blend: AUG-CC-PVTZ-JKFIT

    Orbital Energies [Eh]
    ---------------------

    Doubly Occupied:

       1A    -20.591174     2A    -15.623178     3A    -11.277571
       4A    -11.239904     5A    -11.227559     6A     -1.413574
       7A     -1.161945     8A     -1.038636     9A     -0.881835
      10A     -0.774258    11A     -0.706903    12A     -0.655469
      13A     -0.615981    14A     -0.587598    15A     -0.581824
      16A     -0.533030    17A     -0.512522    18A     -0.501138
      19A     -0.443714    20A     -0.386307

  @DF-RHF Final Energy:  -247.01604840446734

   => Energetics <=

    Nuclear Repulsion Energy =            170.7680786199932754
    One-Electron Energy =                -674.0600118157632323
    Two-Electron Energy =                 256.2758847913026443
    Total Energy =                       -247.0160484044673126
  Basis Set: (AUG-CC-PVTZ AUX)
    Blend: AUG-CC-PVTZ-RI
    Molecular point group: c1

    Geometry (in Angstrom), charge = 0, multiplicity = 1:

       Center              X                  Y                   Z               Mass
    ------------   -----------------  -----------------  -----------------  -----------------
         O            2.218876170598    -0.343980987947     0.057226915989    15.994914619570
         N            1.043432170598     0.327223012053    -0.363597084011    14.003074004430
         C           -1.291249829402     0.595873012053     0.134806915989    12.000000000000
         C           -2.315219829402    -0.491697987947    -0.202499084011    12.000000000000
         C            0.060183170598     0.018402012053     0.405713915989    12.000000000000
         H           -1.626247829402     1.155281012053     1.017062915989     1.007825032230
         H           -1.200397829402     1.309086012053    -0.689939084011     1.007825032230
         H           -2.018314829402    -1.029919987947    -1.106355084011     1.007825032230
         H           -2.402271829402    -1.217507987947     0.611429915989     1.007825032230
         H           -3.303187829402    -0.054836987947    -0.371731084011     1.007825032230
         H            0.205815170598    -0.676218987947     1.237609915989     1.007825032230
         H            2.856643570598    -0.032710087947    -0.579131984011     1.007825032230

  Basis Set: AUG-CC-PVTZ
    Blend: AUG-CC-PVTZ
  Basis Set: (AUG-CC-PVTZ AUX)
    Blend: AUG-CC-PVTZ-JKFIT
	 Reference Energy          =    -247.0160484044673410 [Eh]
	 Singles Energy            =      -0.0000000000000000 [Eh]
	 Same-Spin Energy          =      -0.2452027808331174 [Eh]
	 Opposite-Spin Energy      =      -0.8182233205194596 [Eh]
	 Correlation Energy        =      -1.0634261013525770 [Eh]
	 Total Energy              =    -248.0794745058199169 [Eh]

	 ================> DF-SCS-MP2 Energies <==================
	-----------------------------------------------------------
	 SCS Same-Spin Scale       =       0.3333333333333333 [-]
	 SCS Opposite-Spin Scale   =       1.2000000000000000 [-]
	 SCS Same-Spin Energy      =      -0.0817342602777058 [Eh]
	 SCS Opposite-Spin Energy  =      -0.9818679846233515 [Eh]
	 SCS Correlation Energy    =      -1.0636022449010574 [Eh]
	 SCS Total Energy          =    -248.0796506493684035 [Eh]
	-----------------------------------------------------------

  Dipole Moment: [D]
     X:    -0.9635      Y:     0.0450      Z:     0.1661     Total:     0.9787

*** Psi4 exiting successfully. Buy a developer a beer!
