                               Psi4 1.4a3.dev225

  ==> Input File <==

--------------------------------------------------------------------------
#psi4
#
memory 32 gb

molecule  {
0 1
  O        2.3113080    -0.3373280     0.0560680
  N        1.1192791     0.3433463    -0.3706936
  C       -1.1988180     0.6025260     0.1336480
  C       -2.2227880    -0.4850450    -0.2036580
  C        0.1526150     0.0250550     0.4045550
  H       -1.5338160     1.1619340     1.0159040
  H       -1.1079660     1.3157390    -0.6910980
  H       -1.9258830    -1.0232670    -1.1075140
  H       -2.3098400    -1.2108550     0.6102710
  H       -3.2107560    -0.0481840    -0.3728900
  H        0.2982470    -0.6695660     1.2364510
  H        2.9624570    -0.0195260    -0.5936430
units angstrom
no_reorient  #important for SAPT in psi4, default
symmetry c1  #important for SAPT in psi4, default
}

set PROPERTIES_ORIGIN ["COM"]
properties('MP2/aug-cc-pvtz', properties = ['dipole'])
--------------------------------------------------------------------------

    Molecular point group: c1
  Charge       = 0
  Multiplicity = 1
  Basis Set: AUG-CC-PVTZ
    Blend: AUG-CC-PVTZ
  Basis Set: (AUG-CC-PVTZ AUX)
    Blend: AUG-CC-PVTZ-JKFIT

    Orbital Energies [Eh]
    ---------------------

    Doubly Occupied:

       1A    -20.590981     2A    -15.623345     3A    -11.278050
       4A    -11.239951     5A    -11.227825     6A     -1.401220
       7A     -1.164350     8A     -1.038614     9A     -0.881187
      10A     -0.774105    11A     -0.699577    12A     -0.651801
      13A     -0.614612    14A     -0.587327    15A     -0.577487
      16A     -0.532406    17A     -0.512527    18A     -0.501396
      19A     -0.444383    20A     -0.390076

  @DF-RHF Final Energy:  -247.01439002743251

   => Energetics <=

    Nuclear Repulsion Energy =            170.5430743494074761
    One-Electron Energy =                -673.6524928733233537
    Two-Electron Energy =                 256.0950284964833941
    Total Energy =                       -247.0143900274325119
  Basis Set: (AUG-CC-PVTZ AUX)
    Blend: AUG-CC-PVTZ-RI
    Molecular point group: c1

    Geometry (in Angstrom), charge = 0, multiplicity = 1:

       Center              X                  Y                   Z               Mass
    ------------   -----------------  -----------------  -----------------  -----------------
         O            2.221870626374    -0.345886398646     0.058549264765    15.994914619570
         N            1.029841726374     0.334787901354    -0.368212335235    14.003074004430
         C           -1.288255373626     0.593967601354     0.136129264765    12.000000000000
         C           -2.312225373626    -0.493603398646    -0.201176735235    12.000000000000
         C            0.063177626374     0.016496601354     0.407036264765    12.000000000000
         H           -1.623253373626     1.153375601354     1.018385264765     1.007825032230
         H           -1.197403373626     1.307180601354    -0.688616735235     1.007825032230
         H           -2.015320373626    -1.031825398646    -1.105032735235     1.007825032230
         H           -2.399277373626    -1.219413398646     0.612752264765     1.007825032230
         H           -3.300193373626    -0.056742398646    -0.370408735235     1.007825032230
         H            0.208809626374    -0.678124398646     1.238932264765     1.007825032230
         H            2.873019626374    -0.028084398646    -0.591161735235     1.007825032230

  Basis Set: AUG-CC-PVTZ
    Blend: AUG-CC-PVTZ
  Basis Set: (AUG-CC-PVTZ AUX)
    Blend: AUG-CC-PVTZ-JKFIT
	 Reference Energy          =    -247.0143900274325119 [Eh]
	 Singles Energy            =      -0.0000000000000000 [Eh]
	 Same-Spin Energy          =      -0.2454429855476062 [Eh]
	 Opposite-Spin Energy      =      -0.8192967786732956 [Eh]
	 Correlation Energy        =      -1.0647397642209018 [Eh]
	 Total Energy              =    -248.0791297916534006 [Eh]

	 ================> DF-SCS-MP2 Energies <==================
	-----------------------------------------------------------
	 SCS Same-Spin Scale       =       0.3333333333333333 [-]
	 SCS Opposite-Spin Scale   =       1.2000000000000000 [-]
	 SCS Same-Spin Energy      =      -0.0818143285158687 [Eh]
	 SCS Opposite-Spin Energy  =      -0.9831561344079547 [Eh]
	 SCS Correlation Energy    =      -1.0649704629238235 [Eh]
	 SCS Total Energy          =    -248.0793604903563221 [Eh]
	-----------------------------------------------------------

  Dipole Moment: [D]
     X:    -1.0165      Y:     0.0556      Z:     0.1703     Total:     1.0322

*** Psi4 exiting successfully. Buy a developer a beer!
