                               Psi4 1.4a3.dev225

  ==> Input File <==

--------------------------------------------------------------------------
#psi4
#
memory 32 gb

molecule  {
0 1
  O        2.3113080    -0.3373280     0.0560680
  N        1.1358640     0.3338760    -0.3647560
  C       -1.1988180     0.6025260     0.1336480
  C       -2.2227880    -0.4850450    -0.2036580
  C        0.1908417     0.0370613     0.3746457
  H       -1.5338160     1.1619340     1.0159040
  H       -1.1079660     1.3157390    -0.6910980
  H       -1.9258830    -1.0232670    -1.1075140
  H       -2.3098400    -1.2108550     0.6102710
  H       -3.2107560    -0.0481840    -0.3728900
  H        0.2982470    -0.6695660     1.2364510
  H        2.9624570    -0.0195260    -0.5936430
units angstrom
no_reorient  #important for SAPT in psi4, default
symmetry c1  #important for SAPT in psi4, default
}

set PROPERTIES_ORIGIN ["COM"]
properties('MP2/aug-cc-pvtz', properties = ['dipole'])
--------------------------------------------------------------------------

    Molecular point group: c1
  Charge       = 0
  Multiplicity = 1
  Basis Set: AUG-CC-PVTZ
    Blend: AUG-CC-PVTZ
  Basis Set: (AUG-CC-PVTZ AUX)
    Blend: AUG-CC-PVTZ-JKFIT

    Orbital Energies [Eh]
    ---------------------

    Doubly Occupied:

       1A    -20.594091     2A    -15.617208     3A    -11.272586
       4A    -11.240026     5A    -11.227011     6A     -1.415645
       7A     -1.175487     8A     -1.038326     9A     -0.877953
      10A     -0.766064    11A     -0.708132    12A     -0.655684
      13A     -0.617392    14A     -0.587630    15A     -0.580433
      16A     -0.532893    17A     -0.511742    18A     -0.498380
      19A     -0.438198    20A     -0.399191

  @DF-RHF Final Energy:  -247.01574728315046

   => Energetics <=

    Nuclear Repulsion Energy =            171.1455937234318867
    One-Electron Energy =                -674.8145372608933030
    Two-Electron Energy =                 256.6531962543109557
    Total Energy =                       -247.0157472831504606
  Basis Set: (AUG-CC-PVTZ AUX)
    Blend: AUG-CC-PVTZ-RI
    Molecular point group: c1

    Geometry (in Angstrom), charge = 0, multiplicity = 1:

       Center              X                  Y                   Z               Mass
    ------------   -----------------  -----------------  -----------------  -----------------
         O            2.212412257578    -0.346043302884     0.062324165717    15.994914619570
         N            1.036968257578     0.325160697116    -0.358499834283    14.003074004430
         C           -1.297713742422     0.593810697116     0.139904165717    12.000000000000
         C           -2.321683742422    -0.493760302884    -0.197401834283    12.000000000000
         C            0.091945957578     0.028345997116     0.380901865717    12.000000000000
         H           -1.632711742422     1.153218697116     1.022160165717     1.007825032230
         H           -1.206861742422     1.307023697116    -0.684841834283     1.007825032230
         H           -2.024778742422    -1.031982302884    -1.101257834283     1.007825032230
         H           -2.408735742422    -1.219570302884     0.616527165717     1.007825032230
         H           -3.309651742422    -0.056899302884    -0.366633834283     1.007825032230
         H            0.199351257578    -0.678281302884     1.242707165717     1.007825032230
         H            2.863561257578    -0.028241302884    -0.587386834283     1.007825032230

  Basis Set: AUG-CC-PVTZ
    Blend: AUG-CC-PVTZ
  Basis Set: (AUG-CC-PVTZ AUX)
    Blend: AUG-CC-PVTZ-JKFIT
	 Reference Energy          =    -247.0157472831504606 [Eh]
	 Singles Energy            =      -0.0000000000000000 [Eh]
	 Same-Spin Energy          =      -0.2443774393668474 [Eh]
	 Opposite-Spin Energy      =      -0.8162468674678447 [Eh]
	 Correlation Energy        =      -1.0606243068346921 [Eh]
	 Total Energy              =    -248.0763715899851434 [Eh]

	 ================> DF-SCS-MP2 Energies <==================
	-----------------------------------------------------------
	 SCS Same-Spin Scale       =       0.3333333333333333 [-]
	 SCS Opposite-Spin Scale   =       1.2000000000000000 [-]
	 SCS Same-Spin Energy      =      -0.0814591464556158 [Eh]
	 SCS Opposite-Spin Energy  =      -0.9794962409614136 [Eh]
	 SCS Correlation Energy    =      -1.0609553874170294 [Eh]
	 SCS Total Energy          =    -248.0767026705674994 [Eh]
	-----------------------------------------------------------

  Dipole Moment: [D]
     X:    -0.9389      Y:     0.0660      Z:     0.1258     Total:     0.9495

*** Psi4 exiting successfully. Buy a developer a beer!
