                               Psi4 1.3.2 release

  ==> Input File <==

--------------------------------------------------------------------------
#psi4
#
memory 32 gb

molecule  {
0 1
  O        2.3113770    -0.3374580     0.0558470
  N        1.1360090     0.3343940    -0.3643560
  C       -1.1987920     0.6023930     0.1340090
  C       -2.2229840    -0.4847570    -0.2038870
  C        0.1526050     0.0245260     0.4043250
  H       -1.5334920     1.1612300     1.0167400
  H       -1.1079080     1.3161780    -0.6902320
  H       -1.9266320    -1.0220700    -1.1084710
  H       -2.3096210    -1.2114710     0.6092880
  H       -3.2110640    -0.0477540    -0.3721170
  H        0.2980470    -0.6712980     1.2352290
  H        2.8957009    -0.0516131    -0.5266869
units angstrom
no_reorient  #important for SAPT in psi4, default
symmetry c1  #important for SAPT in psi4, default
}

set PROPERTIES_ORIGIN ["COM"]
properties('MP2/aug-cc-pvtz', properties = ['dipole'])
--------------------------------------------------------------------------

    Molecular point group: c1
  Charge       = 0
  Multiplicity = 1
  Basis Set: AUG-CC-PVTZ
    Blend: AUG-CC-PVTZ
  Basis Set: (AUG-CC-PVTZ AUX)
    Blend: AUG-CC-PVTZ-JKFIT

    Orbital Energies [Eh]
    ---------------------

    Doubly Occupied:

       1A    -20.583306     2A    -15.624555     3A    -11.278946
       4A    -11.240597     5A    -11.228142     6A     -1.430874
       7A     -1.170799     8A     -1.041252     9A     -0.884292
      10A     -0.775509    11A     -0.723229    12A     -0.658537
      13A     -0.618055    14A     -0.589752    15A     -0.584558
      16A     -0.534475    17A     -0.514139    18A     -0.501832
      19A     -0.446289    20A     -0.388342

  @DF-RHF Final Energy:  -247.01039470973041

   => Energetics <=

    Nuclear Repulsion Energy =            171.2817422924525204
    One-Electron Energy =                -674.9493156545893271
    Two-Electron Energy =                 256.6571786524064009
    Total Energy =                       -247.0103947097304058
  Basis Set: (AUG-CC-PVTZ AUX)
    Blend: AUG-CC-PVTZ-RI
    Molecular point group: c1

    Geometry (in Angstrom), charge = 0, multiplicity = 1:

       Center              X                  Y                   Z               Mass
    ------------   -----------------  -----------------  -----------------  -----------------
         O            2.219677233189    -0.343754212417     0.056263693138    15.994914619570
         N            1.044309233189     0.328097787583    -0.363939306862    14.003074004430
         C           -1.290491766811     0.596096787583     0.134425693138    12.000000000000
         C           -2.314683766811    -0.491053212417    -0.203470306862    12.000000000000
         C            0.060905233189     0.018229787583     0.404741693138    12.000000000000
         H           -1.625191766811     1.154933787583     1.017156693138     1.007825032230
         H           -1.199607766811     1.309881787583    -0.689815306862     1.007825032230
         H           -2.018331766811    -1.028366212417    -1.108054306862     1.007825032230
         H           -2.401320766811    -1.217767212417     0.609704693138     1.007825032230
         H           -3.302763766811    -0.054050212417    -0.371700306862     1.007825032230
         H            0.206347233189    -0.677594212417     1.235645693138     1.007825032230
         H            2.804001133189    -0.057909312417    -0.526270206862     1.007825032230

  Basis Set: AUG-CC-PVTZ
    Blend: AUG-CC-PVTZ
  Basis Set: (AUG-CC-PVTZ AUX)
    Blend: AUG-CC-PVTZ-JKFIT
	 Reference Energy          =    -247.0103947097304058 [Eh]
	 Singles Energy            =      -0.0000000000000000 [Eh]
	 Same-Spin Energy          =      -0.2441986541242258 [Eh]
	 Opposite-Spin Energy      =      -0.8157044805008951 [Eh]
	 Correlation Energy        =      -1.0599031346251209 [Eh]
	 Total Energy              =    -248.0702978443555367 [Eh]

	 ================> DF-SCS-MP2 Energies <==================
	-----------------------------------------------------------
	 SCS Same-Spin Scale       =       0.3333333333333333 [-]
	 SCS Opposite-Spin Scale   =       1.2000000000000000 [-]
	 SCS Same-Spin Energy      =      -0.0813995513747419 [Eh]
	 SCS Opposite-Spin Energy  =      -0.9788453766010741 [Eh]
	 SCS Correlation Energy    =      -1.0602449279758159 [Eh]
	 SCS Total Energy          =    -248.0706396377062219 [Eh]
	-----------------------------------------------------------

  Dipole Moment: [D]
     X:    -1.0677      Y:     0.0253      Z:     0.2253     Total:     1.0915

*** Psi4 exiting successfully. Buy a developer a beer!
