                               Psi4 1.3.2 release

  ==> Input File <==

--------------------------------------------------------------------------
#psi4
#
memory 32 gb

molecule  {
0 1
  O        2.3113770    -0.3374580     0.0558470
  N        1.1360090     0.3343940    -0.3643560
  C       -1.1987920     0.6023930     0.1340090
  C       -2.2229840    -0.4847570    -0.2038870
  C        0.0761391     0.0004318     0.4640948
  H       -1.5334920     1.1612300     1.0167400
  H       -1.1079080     1.3161780    -0.6902320
  H       -1.9266320    -1.0220700    -1.1084710
  H       -2.3096210    -1.2114710     0.6092880
  H       -3.2110640    -0.0477540    -0.3721170
  H        0.2980470    -0.6712980     1.2352290
  H        2.9626180    -0.0188780    -0.5933990
units angstrom
no_reorient  #important for SAPT in psi4, default
symmetry c1  #important for SAPT in psi4, default
}

set PROPERTIES_ORIGIN ["COM"]
properties('MP2/aug-cc-pvtz', properties = ['dipole'])
--------------------------------------------------------------------------

    Molecular point group: c1
  Charge       = 0
  Multiplicity = 1
  Basis Set: AUG-CC-PVTZ
    Blend: AUG-CC-PVTZ
  Basis Set: (AUG-CC-PVTZ AUX)
    Blend: AUG-CC-PVTZ-JKFIT

    Orbital Energies [Eh]
    ---------------------

    Doubly Occupied:

       1A    -20.591198     2A    -15.631729     3A    -11.286150
       4A    -11.239694     5A    -11.228497     6A     -1.401498
       7A     -1.138121     8A     -1.033146     9A     -0.887514
      10A     -0.789332    11A     -0.694610    12A     -0.652370
      13A     -0.613618    14A     -0.598825    15A     -0.572578
      16A     -0.533240    17A     -0.518867    18A     -0.500844
      19A     -0.444156    20A     -0.360762

  @DF-RHF Final Energy:  -246.99100226102021

   => Energetics <=

    Nuclear Repulsion Energy =            169.8069845972100893
    One-Electron Energy =                -672.1624759335301178
    Two-Electron Energy =                 255.3644890752998151
    Total Energy =                       -246.9910022610202134
  Basis Set: (AUG-CC-PVTZ AUX)
    Blend: AUG-CC-PVTZ-RI
    Molecular point group: c1

    Geometry (in Angstrom), charge = 0, multiplicity = 1:

       Center              X                  Y                   Z               Mass
    ------------   -----------------  -----------------  -----------------  -----------------
         O            2.231314713097    -0.340247991252     0.047365967146    15.994914619570
         N            1.055946713097     0.331604008748    -0.372837032854    14.003074004430
         C           -1.278854286903     0.599603008748     0.125527967146    12.000000000000
         C           -2.303046286903    -0.487546991252    -0.212368032854    12.000000000000
         C           -0.003923186903    -0.002358191252     0.455613767146    12.000000000000
         H           -1.613554286903     1.158440008748     1.008258967146     1.007825032230
         H           -1.187970286903     1.313388008748    -0.698713032854     1.007825032230
         H           -2.006694286903    -1.024859991252    -1.116952032854     1.007825032230
         H           -2.389683286903    -1.214260991252     0.600806967146     1.007825032230
         H           -3.291126286903    -0.050543991252    -0.380598032854     1.007825032230
         H            0.217984713097    -0.674087991252     1.226747967146     1.007825032230
         H            2.882555713097    -0.021667991252    -0.601880032854     1.007825032230

  Basis Set: AUG-CC-PVTZ
    Blend: AUG-CC-PVTZ
  Basis Set: (AUG-CC-PVTZ AUX)
    Blend: AUG-CC-PVTZ-JKFIT
	 Reference Energy          =    -246.9910022610202134 [Eh]
	 Singles Energy            =      -0.0000000000000000 [Eh]
	 Same-Spin Energy          =      -0.2485377929088337 [Eh]
	 Opposite-Spin Energy      =      -0.8257505345865124 [Eh]
	 Correlation Energy        =      -1.0742883274953461 [Eh]
	 Total Energy              =    -248.0652905885155519 [Eh]

	 ================> DF-SCS-MP2 Energies <==================
	-----------------------------------------------------------
	 SCS Same-Spin Scale       =       0.3333333333333333 [-]
	 SCS Opposite-Spin Scale   =       1.2000000000000000 [-]
	 SCS Same-Spin Energy      =      -0.0828459309696112 [Eh]
	 SCS Opposite-Spin Energy  =      -0.9909006415038148 [Eh]
	 SCS Correlation Energy    =      -1.0737465724734261 [Eh]
	 SCS Total Energy          =    -248.0647488334936384 [Eh]
	-----------------------------------------------------------

  Dipole Moment: [D]
     X:    -0.9154      Y:     0.0370      Z:     0.1686     Total:     0.9315

*** Psi4 exiting successfully. Buy a developer a beer!
