                               Psi4 1.3.2 release

  ==> Input File <==

--------------------------------------------------------------------------
#psi4
#
memory 32 gb

molecule  {
0 1
  O        2.3113770    -0.3374580     0.0558470
  N        1.0489612     0.4105521    -0.4332319
  C       -1.1987920     0.6023930     0.1340090
  C       -2.2229840    -0.4847570    -0.2038870
  C        0.1526050     0.0245260     0.4043250
  H       -1.5334920     1.1612300     1.0167400
  H       -1.1079080     1.3161780    -0.6902320
  H       -1.9266320    -1.0220700    -1.1084710
  H       -2.3096210    -1.2114710     0.6092880
  H       -3.2110640    -0.0477540    -0.3721170
  H        0.2980470    -0.6712980     1.2352290
  H        2.9626180    -0.0188780    -0.5933990
units angstrom
no_reorient  #important for SAPT in psi4, default
symmetry c1  #important for SAPT in psi4, default
}

set PROPERTIES_ORIGIN ["COM"]
properties('MP2/aug-cc-pvtz', properties = ['dipole'])
--------------------------------------------------------------------------

    Molecular point group: c1
  Charge       = 0
  Multiplicity = 1
  Basis Set: AUG-CC-PVTZ
    Blend: AUG-CC-PVTZ
  Basis Set: (AUG-CC-PVTZ AUX)
    Blend: AUG-CC-PVTZ-JKFIT

    Orbital Energies [Eh]
    ---------------------

    Doubly Occupied:

       1A    -20.579731     2A    -15.633572     3A    -11.290195
       4A    -11.241904     5A    -11.230297     6A     -1.359362
       7A     -1.172876     8A     -1.039812     9A     -0.882010
      10A     -0.780876    11A     -0.679042    12A     -0.640308
      13A     -0.606063    14A     -0.589193    15A     -0.558978
      16A     -0.527991    17A     -0.512742    18A     -0.504562
      19A     -0.451631    20A     -0.401661

  @DF-RHF Final Energy:  -246.99781639209084

   => Energetics <=

    Nuclear Repulsion Energy =            169.3178031940818755
    One-Electron Energy =                -671.2656249958434955
    Two-Electron Energy =                 254.9500054096707800
    Total Energy =                       -246.9978163920908401
  Basis Set: (AUG-CC-PVTZ AUX)
    Blend: AUG-CC-PVTZ-RI
    Molecular point group: c1

    Geometry (in Angstrom), charge = 0, multiplicity = 1:

       Center              X                  Y                   Z               Mass
    ------------   -----------------  -----------------  -----------------  -----------------
         O            2.235439758742    -0.358804139423     0.070386477750    15.994914619570
         N            0.973023958742     0.389205960577    -0.418692422250    14.003074004430
         C           -1.274729241258     0.581046860577     0.148548477750    12.000000000000
         C           -2.298921241258    -0.506103139423    -0.189347522250    12.000000000000
         C            0.076667758742     0.003179860577     0.418864477750    12.000000000000
         H           -1.609429241258     1.139883860577     1.031279477750     1.007825032230
         H           -1.183845241258     1.294831860577    -0.675692522250     1.007825032230
         H           -2.002569241258    -1.043416139423    -1.093931522250     1.007825032230
         H           -2.385558241258    -1.232817139423     0.623827477750     1.007825032230
         H           -3.287001241258    -0.069100139423    -0.357577522250     1.007825032230
         H            0.222109758742    -0.692644139423     1.249768477750     1.007825032230
         H            2.886680758742    -0.040224139423    -0.578859522250     1.007825032230

  Basis Set: AUG-CC-PVTZ
    Blend: AUG-CC-PVTZ
  Basis Set: (AUG-CC-PVTZ AUX)
    Blend: AUG-CC-PVTZ-JKFIT
	 Reference Energy          =    -246.9978163920908401 [Eh]
	 Singles Energy            =      -0.0000000000000000 [Eh]
	 Same-Spin Energy          =      -0.2467312394236806 [Eh]
	 Opposite-Spin Energy      =      -0.8249665892329443 [Eh]
	 Correlation Energy        =      -1.0716978286566250 [Eh]
	 Total Energy              =    -248.0695142207474646 [Eh]

	 ================> DF-SCS-MP2 Energies <==================
	-----------------------------------------------------------
	 SCS Same-Spin Scale       =       0.3333333333333333 [-]
	 SCS Opposite-Spin Scale   =       1.2000000000000000 [-]
	 SCS Same-Spin Energy      =      -0.0822437464745602 [Eh]
	 SCS Opposite-Spin Energy  =      -0.9899599070795331 [Eh]
	 SCS Correlation Energy    =      -1.0722036535540933 [Eh]
	 SCS Total Energy          =    -248.0700200456449238 [Eh]
	-----------------------------------------------------------

  Dipole Moment: [D]
     X:    -1.3524      Y:     0.0629      Z:     0.2777     Total:     1.3820

*** Psi4 exiting successfully. Buy a developer a beer!
