                               Psi4 1.3.2 release

  ==> Input File <==

--------------------------------------------------------------------------
#psi4
#
memory 32 gb

molecule  {
0 1
  O        2.3113770    -0.3374580     0.0558470
  N        1.2183550     0.3947193    -0.4720403
  C       -1.1987920     0.6023930     0.1340090
  C       -2.2229840    -0.4847570    -0.2038870
  C        0.1526050     0.0245260     0.4043250
  H       -1.5334920     1.1612300     1.0167400
  H       -1.1079080     1.3161780    -0.6902320
  H       -1.9266320    -1.0220700    -1.1084710
  H       -2.3096210    -1.2114710     0.6092880
  H       -3.2110640    -0.0477540    -0.3721170
  H        0.2980470    -0.6712980     1.2352290
  H        2.9626180    -0.0188780    -0.5933990
units angstrom
no_reorient  #important for SAPT in psi4, default
symmetry c1  #important for SAPT in psi4, default
}

set PROPERTIES_ORIGIN ["COM"]
properties('MP2/aug-cc-pvtz', properties = ['dipole'])
--------------------------------------------------------------------------

    Molecular point group: c1
  Charge       = 0
  Multiplicity = 1
  Basis Set: AUG-CC-PVTZ
    Blend: AUG-CC-PVTZ
  Basis Set: (AUG-CC-PVTZ AUX)
    Blend: AUG-CC-PVTZ-JKFIT

    Orbital Energies [Eh]
    ---------------------

    Doubly Occupied:

       1A    -20.590069     2A    -15.641009     3A    -11.302604
       4A    -11.242478     5A    -11.229482     6A     -1.406946
       7A     -1.116630     8A     -1.027794     9A     -0.885781
      10A     -0.784978    11A     -0.685839    12A     -0.653589
      13A     -0.604134    14A     -0.589883    15A     -0.573191
      16A     -0.530816    17A     -0.506961    18A     -0.502123
      19A     -0.461831    20A     -0.354579

  @DF-RHF Final Energy:  -246.97537990188499

   => Energetics <=

    Nuclear Repulsion Energy =            168.2129012646045680
    One-Electron Energy =                -668.9951254807467649
    Two-Electron Energy =                 253.8068443142572050
    Total Energy =                       -246.9753799018849918
  Basis Set: (AUG-CC-PVTZ AUX)
    Blend: AUG-CC-PVTZ-RI
    Molecular point group: c1

    Geometry (in Angstrom), charge = 0, multiplicity = 1:

       Center              X                  Y                   Z               Mass
    ------------   -----------------  -----------------  -----------------  -----------------
         O            2.202969612613    -0.355769238915     0.077825441980    15.994914619570
         N            1.109947612613     0.376408061085    -0.450061858020    14.003074004430
         C           -1.307199387387     0.584081761085     0.155987441980    12.000000000000
         C           -2.331391387387    -0.503068238915    -0.181908558020    12.000000000000
         C            0.044197612613     0.006214761085     0.426303441980    12.000000000000
         H           -1.641899387387     1.142918761085     1.038718441980     1.007825032230
         H           -1.216315387387     1.297866761085    -0.668253558020     1.007825032230
         H           -2.035039387387    -1.040381238915    -1.086492558020     1.007825032230
         H           -2.418028387387    -1.229782238915     0.631266441980     1.007825032230
         H           -3.319471387387    -0.066065238915    -0.350138558020     1.007825032230
         H            0.189639612613    -0.689609238915     1.257207441980     1.007825032230
         H            2.854210612613    -0.037189238915    -0.571420558020     1.007825032230

  Basis Set: AUG-CC-PVTZ
    Blend: AUG-CC-PVTZ
  Basis Set: (AUG-CC-PVTZ AUX)
    Blend: AUG-CC-PVTZ-JKFIT
	 Reference Energy          =    -246.9753799018849918 [Eh]
	 Singles Energy            =      -0.0000000000000000 [Eh]
	 Same-Spin Energy          =      -0.2497038294196327 [Eh]
	 Opposite-Spin Energy      =      -0.8299813242845754 [Eh]
	 Correlation Energy        =      -1.0796851537042080 [Eh]
	 Total Energy              =    -248.0550650555892105 [Eh]

	 ================> DF-SCS-MP2 Energies <==================
	-----------------------------------------------------------
	 SCS Same-Spin Scale       =       0.3333333333333333 [-]
	 SCS Opposite-Spin Scale   =       1.2000000000000000 [-]
	 SCS Same-Spin Energy      =      -0.0832346098065442 [Eh]
	 SCS Opposite-Spin Energy  =      -0.9959775891414904 [Eh]
	 SCS Correlation Energy    =      -1.0792121989480346 [Eh]
	 SCS Total Energy          =    -248.0545921008330197 [Eh]
	-----------------------------------------------------------

  Dipole Moment: [D]
     X:    -0.8204      Y:    -0.0104      Z:     0.1907     Total:     0.8423

*** Psi4 exiting successfully. Buy a developer a beer!
