                               Psi4 1.3.2 release

  ==> Input File <==

--------------------------------------------------------------------------
#psi4
#
memory 32 gb

molecule  {
0 1
  O        2.3113770    -0.3374580     0.0558470
  N        1.1223360     0.3477324    -0.3761438
  C       -1.1987920     0.6023930     0.1340090
  C       -2.2229840    -0.4847570    -0.2038870
  C        0.1526050     0.0245260     0.4043250
  H       -1.5334920     1.1612300     1.0167400
  H       -1.1079080     1.3161780    -0.6902320
  H       -1.9266320    -1.0220700    -1.1084710
  H       -2.3096210    -1.2114710     0.6092880
  H       -3.2110640    -0.0477540    -0.3721170
  H        0.2980470    -0.6712980     1.2352290
  H        2.9626180    -0.0188780    -0.5933990
units angstrom
no_reorient  #important for SAPT in psi4, default
symmetry c1  #important for SAPT in psi4, default
}

set PROPERTIES_ORIGIN ["COM"]
properties('MP2/aug-cc-pvtz', properties = ['dipole'])
--------------------------------------------------------------------------

    Molecular point group: c1
  Charge       = 0
  Multiplicity = 1
  Basis Set: AUG-CC-PVTZ
    Blend: AUG-CC-PVTZ
  Basis Set: (AUG-CC-PVTZ AUX)
    Blend: AUG-CC-PVTZ-JKFIT

    Orbital Energies [Eh]
    ---------------------

    Doubly Occupied:

       1A    -20.590718     2A    -15.624448     3A    -11.279458
       4A    -11.240097     5A    -11.227947     6A     -1.400420
       7A     -1.161981     8A     -1.038356     9A     -0.881376
      10A     -0.774711    11A     -0.698204    12A     -0.651744
      13A     -0.614022    14A     -0.587455    15A     -0.576728
      16A     -0.532217    17A     -0.512197    18A     -0.501510
      19A     -0.445820    20A     -0.388660

  @DF-RHF Final Energy:  -247.01349082700671

   => Energetics <=

    Nuclear Repulsion Energy =            170.4030751582710934
    One-Electron Energy =                -673.3769900078580122
    Two-Electron Energy =                 255.9604240225801846
    Total Energy =                       -247.0134908270067058
  Basis Set: (AUG-CC-PVTZ AUX)
    Blend: AUG-CC-PVTZ-RI
    Molecular point group: c1

    Geometry (in Angstrom), charge = 0, multiplicity = 1:

       Center              X                  Y                   Z               Mass
    ------------   -----------------  -----------------  -----------------  -----------------
         O            2.221374955436    -0.346762583955     0.059443580494    15.994914619570
         N            1.032333955436     0.338427816045    -0.372547219506    14.003074004430
         C           -1.288794044564     0.593088416045     0.137605580494    12.000000000000
         C           -2.312986044564    -0.494061583955    -0.200290419506    12.000000000000
         C            0.062602955436     0.015221416045     0.407921580494    12.000000000000
         H           -1.623494044564     1.151925416045     1.020336580494     1.007825032230
         H           -1.197910044564     1.306873416045    -0.686635419506     1.007825032230
         H           -2.016634044564    -1.031374583955    -1.104874419506     1.007825032230
         H           -2.399623044564    -1.220775583955     0.612884580494     1.007825032230
         H           -3.301066044564    -0.057058583955    -0.368520419506     1.007825032230
         H            0.208044955436    -0.680602583955     1.238825580494     1.007825032230
         H            2.872615955436    -0.028182583955    -0.589802419506     1.007825032230

  Basis Set: AUG-CC-PVTZ
    Blend: AUG-CC-PVTZ
  Basis Set: (AUG-CC-PVTZ AUX)
    Blend: AUG-CC-PVTZ-JKFIT
	 Reference Energy          =    -247.0134908270067058 [Eh]
	 Singles Energy            =      -0.0000000000000000 [Eh]
	 Same-Spin Energy          =      -0.2456046109770773 [Eh]
	 Opposite-Spin Energy      =      -0.8197855488472843 [Eh]
	 Correlation Energy        =      -1.0653901598243616 [Eh]
	 Total Energy              =    -248.0788809868310807 [Eh]

	 ================> DF-SCS-MP2 Energies <==================
	-----------------------------------------------------------
	 SCS Same-Spin Scale       =       0.3333333333333333 [-]
	 SCS Opposite-Spin Scale   =       1.2000000000000000 [-]
	 SCS Same-Spin Energy      =      -0.0818682036590258 [Eh]
	 SCS Opposite-Spin Energy  =      -0.9837426586167410 [Eh]
	 SCS Correlation Energy    =      -1.0656108622757667 [Eh]
	 SCS Total Energy          =    -248.0791016892824814 [Eh]
	-----------------------------------------------------------

  Dipole Moment: [D]
     X:    -1.0189      Y:     0.0514      Z:     0.1756     Total:     1.0352

*** Psi4 exiting successfully. Buy a developer a beer!
