                               Psi4 1.3.2 release

  ==> Input File <==

--------------------------------------------------------------------------
#psi4
#
memory 32 gb

molecule  {
0 1
  O        2.3113770    -0.3374580     0.0558470
  N        1.1083676     0.3609723    -0.3876938
  C       -1.1987920     0.6023930     0.1340090
  C       -2.2229840    -0.4847570    -0.2038870
  C        0.1526050     0.0245260     0.4043250
  H       -1.5334920     1.1612300     1.0167400
  H       -1.1079080     1.3161780    -0.6902320
  H       -1.9266320    -1.0220700    -1.1084710
  H       -2.3096210    -1.2114710     0.6092880
  H       -3.2110640    -0.0477540    -0.3721170
  H        0.2980470    -0.6712980     1.2352290
  H        2.9626180    -0.0188780    -0.5933990
units angstrom
no_reorient  #important for SAPT in psi4, default
symmetry c1  #important for SAPT in psi4, default
}

set PROPERTIES_ORIGIN ["COM"]
properties('MP2/aug-cc-pvtz', properties = ['dipole'])
--------------------------------------------------------------------------

    Molecular point group: c1
  Charge       = 0
  Multiplicity = 1
  Basis Set: AUG-CC-PVTZ
    Blend: AUG-CC-PVTZ
  Basis Set: (AUG-CC-PVTZ AUX)
    Blend: AUG-CC-PVTZ-JKFIT

    Orbital Energies [Eh]
    ---------------------

    Doubly Occupied:

       1A    -20.588520     2A    -15.626113     3A    -11.281633
       4A    -11.240440     5A    -11.228442     6A     -1.391348
       7A     -1.164061     8A     -1.038668     9A     -0.881477
      10A     -0.775660    11A     -0.693697    12A     -0.649041
      13A     -0.612523    14A     -0.587901    15A     -0.572512
      16A     -0.531640    17A     -0.512289    18A     -0.502042
      19A     -0.448089    20A     -0.391401

  @DF-RHF Final Energy:  -247.01131379643286

   => Energetics <=

    Nuclear Repulsion Energy =            170.1674378822261815
    One-Electron Energy =                -672.9225132550070612
    Two-Electron Energy =                 255.7437615763480210
    Total Energy =                       -247.0113137964328587
  Basis Set: (AUG-CC-PVTZ AUX)
    Blend: AUG-CC-PVTZ-RI
    Molecular point group: c1

    Geometry (in Angstrom), charge = 0, multiplicity = 1:

       Center              X                  Y                   Z               Mass
    ------------   -----------------  -----------------  -----------------  -----------------
         O            2.224052479579    -0.349300466024     0.061657535124    15.994914619570
         N            1.021043079579     0.349129833976    -0.381883264876    14.003074004430
         C           -1.286116520421     0.590550533976     0.139819535124    12.000000000000
         C           -2.310308520421    -0.496599466024    -0.198076464876    12.000000000000
         C            0.065280479579     0.012683533976     0.410135535124    12.000000000000
         H           -1.620816520421     1.149387533976     1.022550535124     1.007825032230
         H           -1.195232520421     1.304335533976    -0.684421464876     1.007825032230
         H           -2.013956520421    -1.033912466024    -1.102660464876     1.007825032230
         H           -2.396945520421    -1.223313466024     0.615098535124     1.007825032230
         H           -3.298388520421    -0.059596466024    -0.366306464876     1.007825032230
         H            0.210722479579    -0.683140466024     1.241039535124     1.007825032230
         H            2.875293479579    -0.030720466024    -0.587588464876     1.007825032230

  Basis Set: AUG-CC-PVTZ
    Blend: AUG-CC-PVTZ
  Basis Set: (AUG-CC-PVTZ AUX)
    Blend: AUG-CC-PVTZ-JKFIT
	 Reference Energy          =    -247.0113137964328587 [Eh]
	 Singles Energy            =      -0.0000000000000000 [Eh]
	 Same-Spin Energy          =      -0.2457823010849324 [Eh]
	 Opposite-Spin Energy      =      -0.8207350824350899 [Eh]
	 Correlation Energy        =      -1.0665173835200221 [Eh]
	 Total Energy              =    -248.0778311799528808 [Eh]

	 ================> DF-SCS-MP2 Energies <==================
	-----------------------------------------------------------
	 SCS Same-Spin Scale       =       0.3333333333333333 [-]
	 SCS Opposite-Spin Scale   =       1.2000000000000000 [-]
	 SCS Same-Spin Energy      =      -0.0819274336949775 [Eh]
	 SCS Opposite-Spin Energy  =      -0.9848820989221078 [Eh]
	 SCS Correlation Energy    =      -1.0668095326170852 [Eh]
	 SCS Total Energy          =    -248.0781233290499301 [Eh]
	-----------------------------------------------------------

  Dipole Moment: [D]
     X:    -1.0943      Y:     0.0532      Z:     0.1985     Total:     1.1134

*** Psi4 exiting successfully. Buy a developer a beer!
