                               Psi4 1.3.2 release

  ==> Input File <==

--------------------------------------------------------------------------
#psi4
#
memory 32 gb

molecule  {
0 1
  F        1.7125910     1.0842730     0.8512900
  F        3.0044440    -0.0000070    -0.5300430
  F        1.7125860    -1.0842610     0.8513060
  O        0.8785227     0.0826933    -0.9840836
  C       -0.4678230    -0.0000020    -0.4748910
  C       -1.1126100    -1.2194340    -0.2924640
  C       -1.1126050     1.2194310    -0.2924660
  C       -2.4550330    -1.2105000     0.0899020
  C       -2.4550290     1.2105020     0.0899000
  C       -3.1253970     0.0000030     0.2834000
  C        1.8036720     0.0000000     0.0528050
  H       -0.5694030    -2.1450100    -0.4559490
  H       -0.5693960     2.1450060    -0.4559500
  H       -2.9767160    -2.1526390     0.2364750
  H       -2.9767080     2.1526440     0.2364700
  H       -4.1710620     0.0000040     0.5794020
units angstrom
no_reorient  #important for SAPT in psi4, default
symmetry c1  #important for SAPT in psi4, default
}

set PROPERTIES_ORIGIN ["COM"]
properties('MP2/aug-cc-pvtz', properties = ['dipole'])
--------------------------------------------------------------------------

    Molecular point group: c1
  Charge       = 0
  Multiplicity = 1
  Basis Set: AUG-CC-PVTZ
    Blend: AUG-CC-PVTZ
  Basis Set: (AUG-CC-PVTZ AUX)
    Blend: AUG-CC-PVTZ-JKFIT

    Orbital Energies [Eh]
    ---------------------

    Doubly Occupied:

       1A    -26.355430     2A    -26.348328     3A    -26.346524
       4A    -20.635458     5A    -11.569338     6A    -11.320452
       7A    -11.259988     8A    -11.258030     9A    -11.257160
      10A    -11.255855    11A    -11.254052    12A     -1.743713
      13A     -1.647702    14A     -1.643028    15A     -1.441804
      16A     -1.170287    17A     -1.038983    18A     -1.038004
      19A     -0.963219    20A     -0.868040    21A     -0.859578
      22A     -0.837929    23A     -0.834616    24A     -0.801877
      25A     -0.733337    26A     -0.721690    27A     -0.711988
      28A     -0.677251    29A     -0.675467    30A     -0.665380
      31A     -0.660046    32A     -0.658301    33A     -0.639666
      34A     -0.610765    35A     -0.609266    36A     -0.556752
      37A     -0.533204    38A     -0.519468    39A     -0.507345
      40A     -0.357501    41A     -0.355687

  @DF-RHF Final Energy:  -641.41361098472817

   => Energetics <=

    Nuclear Repulsion Energy =            629.0341282221213532
    One-Electron Energy =               -2133.0104608113465474
    Two-Electron Energy =                 862.5627216044970282
    Total Energy =                       -641.4136109847281659
  Basis Set: (AUG-CC-PVTZ AUX)
    Blend: AUG-CC-PVTZ-RI
    Molecular point group: c1

    Geometry (in Angstrom), charge = 0, multiplicity = 1:

       Center              X                  Y                   Z               Mass
    ------------   -----------------  -----------------  -----------------  -----------------
         F            1.603011359093     1.076109212843     0.850351401111    18.998403162730
         F            2.894864359093    -0.008170787157    -0.530981598889    18.998403162730
         F            1.603006359093    -1.092424787157     0.850367401111    18.998403162730
         O            0.768943059093     0.074529512843    -0.985022198889    15.994914619570
         C           -0.577402640907    -0.008165787157    -0.475829598889    12.000000000000
         C           -1.222189640907    -1.227597787157    -0.293402598889    12.000000000000
         C           -1.222184640907     1.211267212843    -0.293404598889    12.000000000000
         C           -2.564612640907    -1.218663787157     0.088963401111    12.000000000000
         C           -2.564608640907     1.202338212843     0.088961401111    12.000000000000
         C           -3.234976640907    -0.008160787157     0.282461401111    12.000000000000
         C            1.694092359093    -0.008163787157     0.051866401111    12.000000000000
         H           -0.678982640907    -2.153173787157    -0.456887598889     1.007825032230
         H           -0.678975640907     2.136842212843    -0.456888598889     1.007825032230
         H           -3.086295640907    -2.160802787157     0.235536401111     1.007825032230
         H           -3.086287640907     2.144480212843     0.235531401111     1.007825032230
         H           -4.280641640907    -0.008159787157     0.578463401111     1.007825032230

  Basis Set: AUG-CC-PVTZ
    Blend: AUG-CC-PVTZ
  Basis Set: (AUG-CC-PVTZ AUX)
    Blend: AUG-CC-PVTZ-JKFIT
	 Reference Energy          =    -641.4136109847281659 [Eh]
	 Singles Energy            =      -0.0000000000000000 [Eh]
	 Same-Spin Energy          =      -0.5855953330243904 [Eh]
	 Opposite-Spin Energy      =      -1.7230532982365749 [Eh]
	 Correlation Energy        =      -2.3086486312609651 [Eh]
	 Total Energy              =    -643.7222596159891737 [Eh]

	 ================> DF-SCS-MP2 Energies <==================
	-----------------------------------------------------------
	 SCS Same-Spin Scale       =       0.3333333333333333 [-]
	 SCS Opposite-Spin Scale   =       1.2000000000000000 [-]
	 SCS Same-Spin Energy      =      -0.1951984443414634 [Eh]
	 SCS Opposite-Spin Energy  =      -2.0676639578838900 [Eh]
	 SCS Correlation Energy    =      -2.2628624022253536 [Eh]
	 SCS Total Energy          =    -643.6764733869534894 [Eh]
	-----------------------------------------------------------

  Dipole Moment: [D]
     X:    -2.5511      Y:    -0.1457      Z:     0.2569     Total:     2.5681

*** Psi4 exiting successfully. Buy a developer a beer!
