                               Psi4 1.3.2 release

  ==> Input File <==

--------------------------------------------------------------------------
#psi4
#
memory 32 gb

molecule  {
0 1
  F        1.7125910     1.0842730     0.8512900
  F        3.0044440    -0.0000070    -0.5300430
  F        1.7125860    -1.0842610     0.8513060
  O        0.8733644     0.0413436    -0.9564503
  C       -0.4678230    -0.0000020    -0.4748910
  C       -1.1126100    -1.2194340    -0.2924640
  C       -1.1126050     1.2194310    -0.2924660
  C       -2.4550330    -1.2105000     0.0899020
  C       -2.4550290     1.2105020     0.0899000
  C       -3.1253970     0.0000030     0.2834000
  C        1.8036720     0.0000000     0.0528050
  H       -0.5694030    -2.1450100    -0.4559490
  H       -0.5693960     2.1450060    -0.4559500
  H       -2.9767160    -2.1526390     0.2364750
  H       -2.9767080     2.1526440     0.2364700
  H       -4.1710620     0.0000040     0.5794020
units angstrom
no_reorient  #important for SAPT in psi4, default
symmetry c1  #important for SAPT in psi4, default
}

set PROPERTIES_ORIGIN ["COM"]
properties('MP2/aug-cc-pvtz', properties = ['dipole'])
--------------------------------------------------------------------------

    Molecular point group: c1
  Charge       = 0
  Multiplicity = 1
  Basis Set: AUG-CC-PVTZ
    Blend: AUG-CC-PVTZ
  Basis Set: (AUG-CC-PVTZ AUX)
    Blend: AUG-CC-PVTZ-JKFIT

    Orbital Energies [Eh]
    ---------------------

    Doubly Occupied:

       1A    -26.351523     2A    -26.349077     3A    -26.346917
       4A    -20.634702     5A    -11.568462     6A    -11.320419
       7A    -11.258777     8A    -11.257476     9A    -11.257324
      10A    -11.256189    11A    -11.253763    12A     -1.743862
      13A     -1.646999    14A     -1.642627    15A     -1.452152
      16A     -1.170524    17A     -1.040755    18A     -1.038633
      19A     -0.963115    20A     -0.871133    21A     -0.860618
      22A     -0.838070    23A     -0.836641    24A     -0.801251
      25A     -0.733059    26A     -0.721863    27A     -0.712073
      28A     -0.676809    29A     -0.675385    30A     -0.668282
      31A     -0.660165    32A     -0.658199    33A     -0.641764
      34A     -0.611973    35A     -0.609587    36A     -0.557852
      37A     -0.533964    38A     -0.518854    39A     -0.507081
      40A     -0.357265    41A     -0.355301

  @DF-RHF Final Energy:  -641.41840686968044

   => Energetics <=

    Nuclear Repulsion Energy =            629.9888067536578546
    One-Electron Energy =               -2134.8934579595147625
    Two-Electron Energy =                 863.4862443361764690
    Total Energy =                       -641.4184068696804388
  Basis Set: (AUG-CC-PVTZ AUX)
    Blend: AUG-CC-PVTZ-RI
    Molecular point group: c1

    Geometry (in Angstrom), charge = 0, multiplicity = 1:

       Center              X                  Y                   Z               Mass
    ------------   -----------------  -----------------  -----------------  -----------------
         F            1.603520566958     1.080191098824     0.847623546257    18.998403162730
         F            2.895373566958    -0.004088901176    -0.533709453743    18.998403162730
         F            1.603515566958    -1.088342901176     0.847639546257    18.998403162730
         O            0.764293966958     0.037261698824    -0.960116753743    15.994914619570
         C           -0.576893433042    -0.004083901176    -0.478557453743    12.000000000000
         C           -1.221680433042    -1.223515901176    -0.296130453743    12.000000000000
         C           -1.221675433042     1.215349098824    -0.296132453743    12.000000000000
         C           -2.564103433042    -1.214581901176     0.086235546257    12.000000000000
         C           -2.564099433042     1.206420098824     0.086233546257    12.000000000000
         C           -3.234467433042    -0.004078901176     0.279733546257    12.000000000000
         C            1.694601566958    -0.004081901176     0.049138546257    12.000000000000
         H           -0.678473433042    -2.149091901176    -0.459615453743     1.007825032230
         H           -0.678466433042     2.140924098824    -0.459616453743     1.007825032230
         H           -3.085786433042    -2.156720901176     0.232808546257     1.007825032230
         H           -3.085778433042     2.148562098824     0.232803546257     1.007825032230
         H           -4.280132433042    -0.004077901176     0.575735546257     1.007825032230

  Basis Set: AUG-CC-PVTZ
    Blend: AUG-CC-PVTZ
  Basis Set: (AUG-CC-PVTZ AUX)
    Blend: AUG-CC-PVTZ-JKFIT
	 Reference Energy          =    -641.4184068696804388 [Eh]
	 Singles Energy            =      -0.0000000000000000 [Eh]
	 Same-Spin Energy          =      -0.5852286619048719 [Eh]
	 Opposite-Spin Energy      =      -1.7216648575541198 [Eh]
	 Correlation Energy        =      -2.3068935194589919 [Eh]
	 Total Energy              =    -643.7253003891394201 [Eh]

	 ================> DF-SCS-MP2 Energies <==================
	-----------------------------------------------------------
	 SCS Same-Spin Scale       =       0.3333333333333333 [-]
	 SCS Opposite-Spin Scale   =       1.2000000000000000 [-]
	 SCS Same-Spin Energy      =      -0.1950762206349573 [Eh]
	 SCS Opposite-Spin Energy  =      -2.0659978290649437 [Eh]
	 SCS Correlation Energy    =      -2.2610740496999009 [Eh]
	 SCS Total Energy          =    -643.6794809193803530 [Eh]
	-----------------------------------------------------------

  Dipole Moment: [D]
     X:    -2.5474      Y:    -0.0738      Z:     0.1939     Total:     2.5558

*** Psi4 exiting successfully. Buy a developer a beer!
