                               Psi4 1.3.2 release

  ==> Input File <==

--------------------------------------------------------------------------
#psi4
#
memory 32 gb

molecule  {
0 1
  F        1.7125910     1.0842730     0.8512900
  F        3.0044440    -0.0000070    -0.5300430
  F        1.7125860    -1.0842610     0.8513060
  O        0.8888394     0.1653926    -1.0393501
  C       -0.4678230    -0.0000020    -0.4748910
  C       -1.1126100    -1.2194340    -0.2924640
  C       -1.1126050     1.2194310    -0.2924660
  C       -2.4550330    -1.2105000     0.0899020
  C       -2.4550290     1.2105020     0.0899000
  C       -3.1253970     0.0000030     0.2834000
  C        1.8036720     0.0000000     0.0528050
  H       -0.5694030    -2.1450100    -0.4559490
  H       -0.5693960     2.1450060    -0.4559500
  H       -2.9767160    -2.1526390     0.2364750
  H       -2.9767080     2.1526440     0.2364700
  H       -4.1710620     0.0000040     0.5794020
units angstrom
no_reorient  #important for SAPT in psi4, default
symmetry c1  #important for SAPT in psi4, default
}

set PROPERTIES_ORIGIN ["COM"]
properties('MP2/aug-cc-pvtz', properties = ['dipole'])
--------------------------------------------------------------------------

    Molecular point group: c1
  Charge       = 0
  Multiplicity = 1
  Basis Set: AUG-CC-PVTZ
    Blend: AUG-CC-PVTZ
  Basis Set: (AUG-CC-PVTZ AUX)
    Blend: AUG-CC-PVTZ-JKFIT

    Orbital Energies [Eh]
    ---------------------

    Doubly Occupied:

       1A    -26.362648     2A    -26.346932     3A    -26.346085
       4A    -20.636797     5A    -11.571289     6A    -11.321028
       7A    -11.262566     8A    -11.259175     9A    -11.256794
      10A    -11.255311    11A    -11.254562    12A     -1.743618
      13A     -1.649923    14A     -1.642912    15A     -1.419228
      16A     -1.169991    17A     -1.039095    18A     -1.033936
      19A     -0.963770    20A     -0.862603    21A     -0.857325
      22A     -0.837660    23A     -0.830350    24A     -0.803095
      25A     -0.733507    26A     -0.721639    27A     -0.712056
      28A     -0.678365    29A     -0.675715    30A     -0.661423
      31A     -0.659165    32A     -0.657216    33A     -0.631940
      34A     -0.610721    35A     -0.605663    36A     -0.554096
      37A     -0.531370    38A     -0.520221    39A     -0.507537
      40A     -0.358175    41A     -0.356133

  @DF-RHF Final Energy:  -641.39798070067127

   => Energetics <=

    Nuclear Repulsion Energy =            627.0049502383495792
    One-Electron Energy =               -2129.0025928556319741
    Two-Electron Energy =                 860.5996619166112396
    Total Energy =                       -641.3979807006712690
  Basis Set: (AUG-CC-PVTZ AUX)
    Blend: AUG-CC-PVTZ-RI
    Molecular point group: c1

    Geometry (in Angstrom), charge = 0, multiplicity = 1:

       Center              X                  Y                   Z               Mass
    ------------   -----------------  -----------------  -----------------  -----------------
         F            1.601992933492     1.067945450753     0.855807100948    18.998403162730
         F            2.893845933492    -0.016334549247    -0.525525899052    18.998403162730
         F            1.601987933492    -1.100588549247     0.855823100948    18.998403162730
         O            0.778241333492     0.149065050753    -1.034832999052    15.994914619570
         C           -0.578421066508    -0.016329549247    -0.470373899052    12.000000000000
         C           -1.223208066508    -1.235761549247    -0.287946899052    12.000000000000
         C           -1.223203066508     1.203103450753    -0.287948899052    12.000000000000
         C           -2.565631066508    -1.226827549247     0.094419100948    12.000000000000
         C           -2.565627066508     1.194174450753     0.094417100948    12.000000000000
         C           -3.235995066508    -0.016324549247     0.287917100948    12.000000000000
         C            1.693073933492    -0.016327549247     0.057322100948    12.000000000000
         H           -0.680001066508    -2.161337549247    -0.451431899052     1.007825032230
         H           -0.679994066508     2.128678450753    -0.451432899052     1.007825032230
         H           -3.087314066508    -2.168966549247     0.240992100948     1.007825032230
         H           -3.087306066508     2.136316450753     0.240987100948     1.007825032230
         H           -4.281660066508    -0.016323549247     0.583919100948     1.007825032230

  Basis Set: AUG-CC-PVTZ
    Blend: AUG-CC-PVTZ
  Basis Set: (AUG-CC-PVTZ AUX)
    Blend: AUG-CC-PVTZ-JKFIT
	 Reference Energy          =    -641.3979807006712690 [Eh]
	 Singles Energy            =      -0.0000000000000000 [Eh]
	 Same-Spin Energy          =      -0.5866242087381586 [Eh]
	 Opposite-Spin Energy      =      -1.7266044565780472 [Eh]
	 Correlation Energy        =      -2.3132286653162057 [Eh]
	 Total Energy              =    -643.7112093659874290 [Eh]

	 ================> DF-SCS-MP2 Energies <==================
	-----------------------------------------------------------
	 SCS Same-Spin Scale       =       0.3333333333333333 [-]
	 SCS Opposite-Spin Scale   =       1.2000000000000000 [-]
	 SCS Same-Spin Energy      =      -0.1955414029127195 [Eh]
	 SCS Opposite-Spin Energy  =      -2.0719253478936563 [Eh]
	 SCS Correlation Energy    =      -2.2674667508063759 [Eh]
	 SCS Total Energy          =    -643.6654474514776894 [Eh]
	-----------------------------------------------------------

  Dipole Moment: [D]
     X:    -2.5501      Y:    -0.2821      Z:     0.3804     Total:     2.5937

*** Psi4 exiting successfully. Buy a developer a beer!
