                               Psi4 1.3.2 release

  ==> Input File <==

--------------------------------------------------------------------------
#psi4
#
memory 32 gb

molecule  {
0 1
  F        1.7125910     1.0842730     0.8512900
  F        3.0044440    -0.0000070    -0.5300430
  F        1.7125860    -1.0842610     0.8513060
  O        0.8991561     0.2480919    -1.0946167
  C       -0.4678230    -0.0000020    -0.4748910
  C       -1.1126100    -1.2194340    -0.2924640
  C       -1.1126050     1.2194310    -0.2924660
  C       -2.4550330    -1.2105000     0.0899020
  C       -2.4550290     1.2105020     0.0899000
  C       -3.1253970     0.0000030     0.2834000
  C        1.8036720     0.0000000     0.0528050
  H       -0.5694030    -2.1450100    -0.4559490
  H       -0.5693960     2.1450060    -0.4559500
  H       -2.9767160    -2.1526390     0.2364750
  H       -2.9767080     2.1526440     0.2364700
  H       -4.1710620     0.0000040     0.5794020
units angstrom
no_reorient  #important for SAPT in psi4, default
symmetry c1  #important for SAPT in psi4, default
}

set PROPERTIES_ORIGIN ["COM"]
properties('MP2/aug-cc-pvtz', properties = ['dipole'])
--------------------------------------------------------------------------

    Molecular point group: c1
  Charge       = 0
  Multiplicity = 1
  Basis Set: AUG-CC-PVTZ
    Blend: AUG-CC-PVTZ
  Basis Set: (AUG-CC-PVTZ AUX)
    Blend: AUG-CC-PVTZ-JKFIT

    Orbital Energies [Eh]
    ---------------------

    Doubly Occupied:

       1A    -26.368959     2A    -26.346002     3A    -26.345736
       4A    -20.637689     5A    -11.573431     6A    -11.322298
       7A    -11.265207     8A    -11.260295     9A    -11.256666
      10A    -11.255353    11A    -11.254712    12A     -1.743738
      13A     -1.652182    14A     -1.642438    15A     -1.394938
      16A     -1.169964    17A     -1.039456    18A     -1.030876
      19A     -0.964735    20A     -0.859082    21A     -0.854420
      22A     -0.837229    23A     -0.826612    24A     -0.804169
      25A     -0.733206    26A     -0.721676    27A     -0.712471
      28A     -0.679393    29A     -0.676181    30A     -0.660984
      31A     -0.656998    32A     -0.655098    33A     -0.619296
      34A     -0.611124    35A     -0.600676    36A     -0.550842
      37A     -0.529435    38A     -0.519887    39A     -0.507178
      40A     -0.359030    41A     -0.356369

  @DF-RHF Final Energy:  -641.37478044121508

   => Energetics <=

    Nuclear Repulsion Energy =            624.8427603406372555
    One-Electron Energy =               -2124.7230167490815802
    Two-Electron Energy =                 858.5054759672293585
    Total Energy =                       -641.3747804412150799
  Basis Set: (AUG-CC-PVTZ AUX)
    Blend: AUG-CC-PVTZ-RI
    Molecular point group: c1

    Geometry (in Angstrom), charge = 0, multiplicity = 1:

       Center              X                  Y                   Z               Mass
    ------------   -----------------  -----------------  -----------------  -----------------
         F            1.600974507890     1.059781688664     0.861262810657    18.998403162730
         F            2.892827507890    -0.024498311336    -0.520070189343    18.998403162730
         F            1.600969507890    -1.108752311336     0.861278810657    18.998403162730
         O            0.787539607890     0.223600588664    -1.084643889343    15.994914619570
         C           -0.579439492110    -0.024493311336    -0.464918189343    12.000000000000
         C           -1.224226492110    -1.243925311336    -0.282491189343    12.000000000000
         C           -1.224221492110     1.194939688664    -0.282493189343    12.000000000000
         C           -2.566649492110    -1.234991311336     0.099874810657    12.000000000000
         C           -2.566645492110     1.186010688664     0.099872810657    12.000000000000
         C           -3.237013492110    -0.024488311336     0.293372810657    12.000000000000
         C            1.692055507890    -0.024491311336     0.062777810657    12.000000000000
         H           -0.681019492110    -2.169501311336    -0.445976189343     1.007825032230
         H           -0.681012492110     2.120514688664    -0.445977189343     1.007825032230
         H           -3.088332492110    -2.177130311336     0.246447810657     1.007825032230
         H           -3.088324492110     2.128152688664     0.246442810657     1.007825032230
         H           -4.282678492110    -0.024487311336     0.589374810657     1.007825032230

  Basis Set: AUG-CC-PVTZ
    Blend: AUG-CC-PVTZ
  Basis Set: (AUG-CC-PVTZ AUX)
    Blend: AUG-CC-PVTZ-JKFIT
	 Reference Energy          =    -641.3747804412150799 [Eh]
	 Singles Energy            =      -0.0000000000000000 [Eh]
	 Same-Spin Energy          =      -0.5880517066642194 [Eh]
	 Opposite-Spin Energy      =      -1.7311888647190083 [Eh]
	 Correlation Energy        =      -2.3192405713832276 [Eh]
	 Total Energy              =    -643.6940210125983413 [Eh]

	 ================> DF-SCS-MP2 Energies <==================
	-----------------------------------------------------------
	 SCS Same-Spin Scale       =       0.3333333333333333 [-]
	 SCS Opposite-Spin Scale   =       1.2000000000000000 [-]
	 SCS Same-Spin Energy      =      -0.1960172355547398 [Eh]
	 SCS Opposite-Spin Energy  =      -2.0774266376628101 [Eh]
	 SCS Correlation Energy    =      -2.2734438732175497 [Eh]
	 SCS Total Energy          =    -643.6482243144325821 [Eh]
	-----------------------------------------------------------

  Dipole Moment: [D]
     X:    -2.5417      Y:    -0.4076      Z:     0.5004     Total:     2.6223

*** Psi4 exiting successfully. Buy a developer a beer!
