                               Psi4 1.3.2 release

  ==> Input File <==

--------------------------------------------------------------------------
#psi4
#
memory 32 gb

molecule  {
0 1
  F        1.7125910     1.0842730     0.8512900
  F        3.0044440    -0.0000070    -0.5300430
  F        1.7125860    -1.0842610     0.8513060
  O        0.8836811     0.1240429    -1.0117168
  C       -0.4678230    -0.0000020    -0.4748910
  C       -1.1126100    -1.2194340    -0.2924640
  C       -1.1126050     1.2194310    -0.2924660
  C       -2.4550330    -1.2105000     0.0899020
  C       -2.4550290     1.2105020     0.0899000
  C       -3.1253970     0.0000030     0.2834000
  C        1.8036720     0.0000000     0.0528050
  H       -0.5694030    -2.1450100    -0.4559490
  H       -0.5693960     2.1450060    -0.4559500
  H       -2.9767160    -2.1526390     0.2364750
  H       -2.9767080     2.1526440     0.2364700
  H       -4.1710620     0.0000040     0.5794020
units angstrom
no_reorient  #important for SAPT in psi4, default
symmetry c1  #important for SAPT in psi4, default
}

set PROPERTIES_ORIGIN ["COM"]
properties('MP2/aug-cc-pvtz', properties = ['dipole'])
--------------------------------------------------------------------------

    Molecular point group: c1
  Charge       = 0
  Multiplicity = 1
  Basis Set: AUG-CC-PVTZ
    Blend: AUG-CC-PVTZ
  Basis Set: (AUG-CC-PVTZ AUX)
    Blend: AUG-CC-PVTZ-JKFIT

    Orbital Energies [Eh]
    ---------------------

    Doubly Occupied:

       1A    -26.359145     2A    -26.347610     3A    -26.346252
       4A    -20.636166     5A    -11.570284     6A    -11.320653
       7A    -11.261264     8A    -11.258613     9A    -11.256952
      10A    -11.255550    11A    -11.254321    12A     -1.743634
      13A     -1.648750    14A     -1.643061    15A     -1.430789
      16A     -1.170108    17A     -1.038974    18A     -1.035885
      19A     -0.963438    20A     -0.865148    21A     -0.858498
      22A     -0.837819    23A     -0.832463    24A     -0.802494
      25A     -0.733487    26A     -0.721634    27A     -0.711977
      28A     -0.677806    29A     -0.675559    30A     -0.662857
      31A     -0.659857    32A     -0.657963    33A     -0.636450
      34A     -0.610567    35A     -0.607743    36A     -0.555499
      37A     -0.532330    38A     -0.519946    39A     -0.507496
      40A     -0.357808    41A     -0.355953

  @DF-RHF Final Energy:  -641.40678731179105

   => Energetics <=

    Nuclear Repulsion Energy =            628.0381532243768561
    One-Electron Energy =               -2131.0442732598785369
    Two-Electron Energy =                 861.5993327237106314
    Total Energy =                       -641.4067873117910494
  Basis Set: (AUG-CC-PVTZ AUX)
    Blend: AUG-CC-PVTZ-RI
    Molecular point group: c1

    Geometry (in Angstrom), charge = 0, multiplicity = 1:

       Center              X                  Y                   Z               Mass
    ------------   -----------------  -----------------  -----------------  -----------------
         F            1.602502141357     1.072027336734     0.853079246094    18.998403162730
         F            2.894355141357    -0.012252663266    -0.528253753906    18.998403162730
         F            1.602497141357    -1.096506663266     0.853095246094    18.998403162730
         O            0.773592241357     0.111797236734    -1.009927553906    15.994914619570
         C           -0.577911858643    -0.012247663266    -0.473101753906    12.000000000000
         C           -1.222698858643    -1.231679663266    -0.290674753906    12.000000000000
         C           -1.222693858643     1.207185336734    -0.290676753906    12.000000000000
         C           -2.565121858643    -1.222745663266     0.091691246094    12.000000000000
         C           -2.565117858643     1.198256336734     0.091689246094    12.000000000000
         C           -3.235485858643    -0.012242663266     0.285189246094    12.000000000000
         C            1.693583141357    -0.012245663266     0.054594246094    12.000000000000
         H           -0.679491858643    -2.157255663266    -0.454159753906     1.007825032230
         H           -0.679484858643     2.132760336734    -0.454160753906     1.007825032230
         H           -3.086804858643    -2.164884663266     0.238264246094     1.007825032230
         H           -3.086796858643     2.140398336734     0.238259246094     1.007825032230
         H           -4.281150858643    -0.012241663266     0.581191246094     1.007825032230

  Basis Set: AUG-CC-PVTZ
    Blend: AUG-CC-PVTZ
  Basis Set: (AUG-CC-PVTZ AUX)
    Blend: AUG-CC-PVTZ-JKFIT
	 Reference Energy          =    -641.4067873117910494 [Eh]
	 Singles Energy            =      -0.0000000000000000 [Eh]
	 Same-Spin Energy          =      -0.5860600557316644 [Eh]
	 Opposite-Spin Energy      =      -1.7246992260571052 [Eh]
	 Correlation Energy        =      -2.3107592817887697 [Eh]
	 Total Energy              =    -643.7175465935798684 [Eh]

	 ================> DF-SCS-MP2 Energies <==================
	-----------------------------------------------------------
	 SCS Same-Spin Scale       =       0.3333333333333333 [-]
	 SCS Opposite-Spin Scale   =       1.2000000000000000 [-]
	 SCS Same-Spin Energy      =      -0.1953533519105548 [Eh]
	 SCS Opposite-Spin Energy  =      -2.0696390712685262 [Eh]
	 SCS Correlation Energy    =      -2.2649924231790810 [Eh]
	 SCS Total Energy          =    -643.6717797349701868 [Eh]
	-----------------------------------------------------------

  Dipole Moment: [D]
     X:    -2.5518      Y:    -0.2152      Z:     0.3191     Total:     2.5806

*** Psi4 exiting successfully. Buy a developer a beer!
