                               Psi4 1.3.2 release

  ==> Input File <==

--------------------------------------------------------------------------
#psi4
#
memory 32 gb

molecule  {
0 1
  F        1.7125910     1.0842730     0.8512900
  F        3.0044440    -0.0000070    -0.5300430
  F        1.7125860    -1.0842610     0.8513060
  O        0.8939978     0.2067422    -1.0669834
  C       -0.4678230    -0.0000020    -0.4748910
  C       -1.1126100    -1.2194340    -0.2924640
  C       -1.1126050     1.2194310    -0.2924660
  C       -2.4550330    -1.2105000     0.0899020
  C       -2.4550290     1.2105020     0.0899000
  C       -3.1253970     0.0000030     0.2834000
  C        1.8036720     0.0000000     0.0528050
  H       -0.5694030    -2.1450100    -0.4559490
  H       -0.5693960     2.1450060    -0.4559500
  H       -2.9767160    -2.1526390     0.2364750
  H       -2.9767080     2.1526440     0.2364700
  H       -4.1710620     0.0000040     0.5794020
units angstrom
no_reorient  #important for SAPT in psi4, default
symmetry c1  #important for SAPT in psi4, default
}

set PROPERTIES_ORIGIN ["COM"]
properties('MP2/aug-cc-pvtz', properties = ['dipole'])
--------------------------------------------------------------------------

    Molecular point group: c1
  Charge       = 0
  Multiplicity = 1
  Basis Set: AUG-CC-PVTZ
    Blend: AUG-CC-PVTZ
  Basis Set: (AUG-CC-PVTZ AUX)
    Blend: AUG-CC-PVTZ-JKFIT

    Orbital Energies [Eh]
    ---------------------

    Doubly Occupied:

       1A    -26.365923     2A    -26.346304     3A    -26.346006
       4A    -20.637316     5A    -11.572342     6A    -11.321577
       7A    -11.263882     8A    -11.259733     9A    -11.256694
      10A    -11.255219    11A    -11.254714    12A     -1.743655
      13A     -1.651088    14A     -1.642688    15A     -1.407239
      16A     -1.169942    17A     -1.039256    18A     -1.032265
      19A     -0.964208    20A     -0.860559    21A     -0.855975
      22A     -0.837458    23A     -0.828370    24A     -0.803662
      25A     -0.733408    26A     -0.721662    27A     -0.712223
      28A     -0.678898    29A     -0.675930    30A     -0.661059
      31A     -0.658028    32A     -0.656179    33A     -0.626148
      34A     -0.610932    35A     -0.603296    36A     -0.552544
      37A     -0.530380    38A     -0.520223    39A     -0.507448
      40A     -0.358585    41A     -0.356263

  @DF-RHF Final Energy:  -641.38727289835288

   => Energetics <=

    Nuclear Repulsion Energy =            625.9385257626292969
    One-Electron Energy =               -2126.8930371376022777
    Two-Electron Energy =                 859.5672384766201048
    Total Energy =                       -641.3872728983528759
  Basis Set: (AUG-CC-PVTZ AUX)
    Blend: AUG-CC-PVTZ-RI
    Molecular point group: c1

    Geometry (in Angstrom), charge = 0, multiplicity = 1:

       Center              X                  Y                   Z               Mass
    ------------   -----------------  -----------------  -----------------  -----------------
         F            1.601483715755     1.063863574644     0.858534955803    18.998403162730
         F            2.893336715755    -0.020416425356    -0.522798044197    18.998403162730
         F            1.601478715755    -1.104670425356     0.858550955803    18.998403162730
         O            0.782890515755     0.186332774644    -1.059738444197    15.994914619570
         C           -0.578930284245    -0.020411425356    -0.467646044197    12.000000000000
         C           -1.223717284245    -1.239843425356    -0.285219044197    12.000000000000
         C           -1.223712284245     1.199021574644    -0.285221044197    12.000000000000
         C           -2.566140284245    -1.230909425356     0.097146955803    12.000000000000
         C           -2.566136284245     1.190092574644     0.097144955803    12.000000000000
         C           -3.236504284245    -0.020406425356     0.290644955803    12.000000000000
         C            1.692564715755    -0.020409425356     0.060049955803    12.000000000000
         H           -0.680510284245    -2.165419425356    -0.448704044197     1.007825032230
         H           -0.680503284245     2.124596574644    -0.448705044197     1.007825032230
         H           -3.087823284245    -2.173048425356     0.243719955803     1.007825032230
         H           -3.087815284245     2.132234574644     0.243714955803     1.007825032230
         H           -4.282169284245    -0.020405425356     0.586646955803     1.007825032230

  Basis Set: AUG-CC-PVTZ
    Blend: AUG-CC-PVTZ
  Basis Set: (AUG-CC-PVTZ AUX)
    Blend: AUG-CC-PVTZ-JKFIT
	 Reference Energy          =    -641.3872728983528759 [Eh]
	 Singles Energy            =      -0.0000000000000000 [Eh]
	 Same-Spin Energy          =      -0.5872882887978921 [Eh]
	 Opposite-Spin Energy      =      -1.7287686664864186 [Eh]
	 Correlation Energy        =      -2.3160569552843109 [Eh]
	 Total Energy              =    -643.7033298536372286 [Eh]

	 ================> DF-SCS-MP2 Energies <==================
	-----------------------------------------------------------
	 SCS Same-Spin Scale       =       0.3333333333333333 [-]
	 SCS Opposite-Spin Scale   =       1.2000000000000000 [-]
	 SCS Same-Spin Energy      =      -0.1957627629326307 [Eh]
	 SCS Opposite-Spin Energy  =      -2.0745223997837021 [Eh]
	 SCS Correlation Energy    =      -2.2702851627163327 [Eh]
	 SCS Total Energy          =    -643.6575580610691532 [Eh]
	-----------------------------------------------------------

  Dipole Moment: [D]
     X:    -2.5466      Y:    -0.3463      Z:     0.4408     Total:     2.6076

*** Psi4 exiting successfully. Buy a developer a beer!
