                               Psi4 1.3.2 release

  ==> Input File <==

--------------------------------------------------------------------------
#psi4
#
memory 32 gb

molecule  {
0 1
 Cl        2.2526770     0.0000000    -0.0000490
  C        0.5109380    -0.0000600    -0.0000110
  C       -0.1739820    -1.2154480     0.0000200
  C       -0.1739300     1.2154130    -0.0000130
  C       -1.5696810    -1.2075560     0.0000510
  C       -1.5696010     1.2076130     0.0000180
  C       -2.2707960     0.0000350     0.0000490
  H        0.3801350    -2.1498460     0.0000230
  H        0.3803180     2.1497300    -0.0000380
  H       -2.1080660    -2.1520820     0.0000750
  H       -2.1079470     2.1521620     0.0000170
  H       -3.3576340     0.0000607     0.0500720
units angstrom
no_reorient  #important for SAPT in psi4, default
symmetry c1  #important for SAPT in psi4, default
}

set PROPERTIES_ORIGIN ["COM"]
properties('MP2/aug-cc-pvtz', properties = ['dipole'])
--------------------------------------------------------------------------

    Molecular point group: c1
  Charge       = 0
  Multiplicity = 1
  Basis Set: AUG-CC-PVTZ
    Blend: AUG-CC-PVTZ
  Basis Set: (AUG-CC-PVTZ AUX)
    Blend: AUG-CC-PVTZ-JKFIT

    Orbital Energies [Eh]
    ---------------------

    Doubly Occupied:

       1A   -104.842068     2A    -11.306942     3A    -11.253381
       4A    -11.253370     5A    -11.252178     6A    -11.252042
       7A    -11.248346     8A    -10.565900     9A     -8.032804
      10A     -8.030908    11A     -8.030902    12A     -1.189920
      13A     -1.119171    14A     -1.031710    15A     -0.996824
      16A     -0.845793    17A     -0.820021    18A     -0.710494
      19A     -0.648159    20A     -0.647418    21A     -0.603315
      22A     -0.589195    23A     -0.544773    24A     -0.517160
      25A     -0.511883    26A     -0.469981    27A     -0.455264
      28A     -0.352422    29A     -0.337096

  @DF-RHF Final Energy:  -689.71556426861537

   => Energetics <=

    Nuclear Repulsion Energy =            315.1908940877802934
    One-Electron Energy =               -1570.8940338948714270
    Two-Electron Energy =                 565.9875755384758804
    Total Energy =                       -689.7155642686153669
  Basis Set: (AUG-CC-PVTZ AUX)
    Blend: AUG-CC-PVTZ-RI
    Molecular point group: c1

    Geometry (in Angstrom), charge = 0, multiplicity = 1:

       Center              X                  Y                   Z               Mass
    ------------   -----------------  -----------------  -----------------  -----------------
         CL           2.172839841409     0.000000099160    -0.000497146148    34.968852682000
         C            0.431100841409    -0.000059900840    -0.000459146148    12.000000000000
         C           -0.253819158591    -1.215447900840    -0.000428146148    12.000000000000
         C           -0.253767158591     1.215413099160    -0.000461146148    12.000000000000
         C           -1.649518158591    -1.207555900840    -0.000397146148    12.000000000000
         C           -1.649438158591     1.207613099160    -0.000430146148    12.000000000000
         C           -2.350633158591     0.000035099160    -0.000399146148    12.000000000000
         H            0.300297841409    -2.149845900840    -0.000425146148     1.007825032230
         H            0.300480841409     2.149730099160    -0.000486146148     1.007825032230
         H           -2.187903158591    -2.152081900840    -0.000373146148     1.007825032230
         H           -2.187784158591     2.152162099160    -0.000431146148     1.007825032230
         H           -3.437471158591     0.000060799160     0.049623853852     1.007825032230

  Basis Set: AUG-CC-PVTZ
    Blend: AUG-CC-PVTZ
  Basis Set: (AUG-CC-PVTZ AUX)
    Blend: AUG-CC-PVTZ-JKFIT
	 Reference Energy          =    -689.7155642686153669 [Eh]
	 Singles Energy            =      -0.0000000000000000 [Eh]
	 Same-Spin Energy          =      -0.3205762159501216 [Eh]
	 Opposite-Spin Energy      =      -0.9810189933156972 [Eh]
	 Correlation Energy        =      -1.3015952092658187 [Eh]
	 Total Energy              =    -691.0171594778811368 [Eh]

	 ================> DF-SCS-MP2 Energies <==================
	-----------------------------------------------------------
	 SCS Same-Spin Scale       =       0.3333333333333333 [-]
	 SCS Opposite-Spin Scale   =       1.2000000000000000 [-]
	 SCS Same-Spin Energy      =      -0.1068587386500405 [Eh]
	 SCS Opposite-Spin Energy  =      -1.1772227919788365 [Eh]
	 SCS Correlation Energy    =      -1.2840815306288771 [Eh]
	 SCS Total Energy          =    -690.9996457992442629 [Eh]
	-----------------------------------------------------------

  Dipole Moment: [D]
     X:    -1.7044      Y:    -0.0000      Z:     0.0324     Total:     1.7047

*** Psi4 exiting successfully. Buy a developer a beer!
