                               Psi4 1.3.2 release

  ==> Input File <==

--------------------------------------------------------------------------
#psi4
#
memory 32 gb

molecule  {
0 1
 Cl        2.2526770     0.0000000    -0.0000490
  C        0.5109380    -0.0000600    -0.0000110
  C       -0.1739820    -1.2154480     0.0000200
  C       -0.1739300     1.2154130    -0.0000130
  C       -1.5696810    -1.2075560     0.0000510
  C       -1.5696010     1.2076130     0.0000180
  C       -2.2707960     0.0000350     0.0000490
  H        0.3801350    -2.1498460     0.0000230
  H        0.3803180     2.1497300    -0.0000380
  H       -2.1080660    -2.1520820     0.0000750
  H       -2.1079470     2.1521620     0.0000170
  H       -3.3576319     0.0000620     0.1500720
units angstrom
no_reorient  #important for SAPT in psi4, default
symmetry c1  #important for SAPT in psi4, default
}

set PROPERTIES_ORIGIN ["COM"]
properties('MP2/aug-cc-pvtz', properties = ['dipole'])
--------------------------------------------------------------------------

    Molecular point group: c1
  Charge       = 0
  Multiplicity = 1
  Basis Set: AUG-CC-PVTZ
    Blend: AUG-CC-PVTZ
  Basis Set: (AUG-CC-PVTZ AUX)
    Blend: AUG-CC-PVTZ-JKFIT

    Orbital Energies [Eh]
    ---------------------

    Doubly Occupied:

       1A   -104.842198     2A    -11.307139     3A    -11.253485
       4A    -11.253459     5A    -11.252316     6A    -11.252163
       7A    -11.249094     8A    -10.566029     9A     -8.032934
      10A     -8.031037    11A     -8.031031    12A     -1.190025
      13A     -1.119197    14A     -1.031804    15A     -0.996575
      16A     -0.845873    17A     -0.819590    18A     -0.709488
      19A     -0.648045    20A     -0.647496    21A     -0.603395
      22A     -0.588360    23A     -0.544895    24A     -0.517247
      25A     -0.511427    26A     -0.469588    27A     -0.455377
      28A     -0.352504    29A     -0.337016

  @DF-RHF Final Energy:  -689.71428205114353

   => Energetics <=

    Nuclear Repulsion Energy =            315.1567762251835916
    One-Electron Energy =               -1570.8245447671788497
    Two-Electron Energy =                 565.9534864908516738
    Total Energy =                       -689.7142820511435275
  Basis Set: (AUG-CC-PVTZ AUX)
    Blend: AUG-CC-PVTZ-RI
    Molecular point group: c1

    Geometry (in Angstrom), charge = 0, multiplicity = 1:

       Center              X                  Y                   Z               Mass
    ------------   -----------------  -----------------  -----------------  -----------------
         CL           2.172839822514     0.000000087463    -0.001396925834    34.968852682000
         C            0.431100822514    -0.000059912537    -0.001358925834    12.000000000000
         C           -0.253819177486    -1.215447912537    -0.001327925834    12.000000000000
         C           -0.253767177486     1.215413087463    -0.001360925834    12.000000000000
         C           -1.649518177486    -1.207555912537    -0.001296925834    12.000000000000
         C           -1.649438177486     1.207613087463    -0.001329925834    12.000000000000
         C           -2.350633177486     0.000035087463    -0.001298925834    12.000000000000
         H            0.300297822514    -2.149845912537    -0.001324925834     1.007825032230
         H            0.300480822514     2.149730087463    -0.001385925834     1.007825032230
         H           -2.187903177486    -2.152081912537    -0.001272925834     1.007825032230
         H           -2.187784177486     2.152162087463    -0.001330925834     1.007825032230
         H           -3.437469077486     0.000062087463     0.148724074166     1.007825032230

  Basis Set: AUG-CC-PVTZ
    Blend: AUG-CC-PVTZ
  Basis Set: (AUG-CC-PVTZ AUX)
    Blend: AUG-CC-PVTZ-JKFIT
	 Reference Energy          =    -689.7142820511435275 [Eh]
	 Singles Energy            =      -0.0000000000000000 [Eh]
	 Same-Spin Energy          =      -0.3206457277818946 [Eh]
	 Opposite-Spin Energy      =      -0.9812032632963478 [Eh]
	 Correlation Energy        =      -1.3018489910782423 [Eh]
	 Total Energy              =    -691.0161310422217866 [Eh]

	 ================> DF-SCS-MP2 Energies <==================
	-----------------------------------------------------------
	 SCS Same-Spin Scale       =       0.3333333333333333 [-]
	 SCS Opposite-Spin Scale   =       1.2000000000000000 [-]
	 SCS Same-Spin Energy      =      -0.1068819092606315 [Eh]
	 SCS Opposite-Spin Energy  =      -1.1774439159556174 [Eh]
	 SCS Correlation Energy    =      -1.2843258252162488 [Eh]
	 SCS Total Energy          =    -690.9986078763597561 [Eh]
	-----------------------------------------------------------

  Dipole Moment: [D]
     X:    -1.6859      Y:    -0.0000      Z:     0.0966     Total:     1.6887

*** Psi4 exiting successfully. Buy a developer a beer!
