                               Psi4 1.3.2 release

  ==> Input File <==

--------------------------------------------------------------------------
#psi4
#
memory 32 gb

molecule  {
0 1
 Cl        2.2526770     0.0000000    -0.0000490
  C        0.5109380    -0.0000600    -0.0000110
  C       -0.1739820    -1.2154480     0.0000200
  C       -0.1739300     1.2154130    -0.0000130
  C       -1.5696810    -1.2075560     0.0000510
  C       -1.5696010     1.2076130     0.0000180
  C       -2.2707960     0.0000350     0.0000490
  H        0.3801350    -2.1498460     0.0000230
  H        0.3803180     2.1497300    -0.0000380
  H       -2.1080660    -2.1520820     0.0000750
  H       -2.1079503     2.1521600    -0.1499830
  H       -3.3576350     0.0000600     0.0000720
units angstrom
no_reorient  #important for SAPT in psi4, default
symmetry c1  #important for SAPT in psi4, default
}

set PROPERTIES_ORIGIN ["COM"]
properties('MP2/aug-cc-pvtz', properties = ['dipole'])
--------------------------------------------------------------------------

    Molecular point group: c1
  Charge       = 0
  Multiplicity = 1
  Basis Set: AUG-CC-PVTZ
    Blend: AUG-CC-PVTZ
  Basis Set: (AUG-CC-PVTZ AUX)
    Blend: AUG-CC-PVTZ-JKFIT

    Orbital Energies [Eh]
    ---------------------

    Doubly Occupied:

       1A   -104.842102     2A    -11.306982     3A    -11.253881
       4A    -11.253534     5A    -11.252646     6A    -11.252206
       7A    -11.248444     8A    -10.565936     9A     -8.032841
      10A     -8.030945    11A     -8.030938    12A     -1.189991
      13A     -1.119189    14A     -1.031558    15A     -0.996900
      16A     -0.845347    17A     -0.819833    18A     -0.710332
      19A     -0.647516    20A     -0.647145    21A     -0.602689
      22A     -0.589316    23A     -0.544994    24A     -0.516636
      25A     -0.511843    26A     -0.469796    27A     -0.455205
      28A     -0.352308    29A     -0.337152

  @DF-RHF Final Energy:  -689.71426923641820

   => Energetics <=

    Nuclear Repulsion Energy =            315.1564704954635090
    One-Electron Energy =               -1570.8250704365850652
    Two-Electron Energy =                 565.9543307047033522
    Total Energy =                       -689.7142692364182039
  Basis Set: (AUG-CC-PVTZ AUX)
    Blend: AUG-CC-PVTZ-RI
    Molecular point group: c1

    Geometry (in Angstrom), charge = 0, multiplicity = 1:

       Center              X                  Y                   Z               Mass
    ------------   -----------------  -----------------  -----------------  -----------------
         CL           2.172839880100     0.000000123454     0.001302413226    34.968852682000
         C            0.431100880100    -0.000059876546     0.001340413226    12.000000000000
         C           -0.253819119900    -1.215447876546     0.001371413226    12.000000000000
         C           -0.253767119900     1.215413123454     0.001338413226    12.000000000000
         C           -1.649518119900    -1.207555876546     0.001402413226    12.000000000000
         C           -1.649438119900     1.207613123454     0.001369413226    12.000000000000
         C           -2.350633119900     0.000035123454     0.001400413226    12.000000000000
         H            0.300297880100    -2.149845876546     0.001374413226     1.007825032230
         H            0.300480880100     2.149730123454     0.001313413226     1.007825032230
         H           -2.187903119900    -2.152081876546     0.001426413226     1.007825032230
         H           -2.187787419900     2.152160123454    -0.148631586774     1.007825032230
         H           -3.437472119900     0.000060123454     0.001423413226     1.007825032230

  Basis Set: AUG-CC-PVTZ
    Blend: AUG-CC-PVTZ
  Basis Set: (AUG-CC-PVTZ AUX)
    Blend: AUG-CC-PVTZ-JKFIT
	 Reference Energy          =    -689.7142692364182039 [Eh]
	 Singles Energy            =      -0.0000000000000000 [Eh]
	 Same-Spin Energy          =      -0.3206487091989736 [Eh]
	 Opposite-Spin Energy      =      -0.9812049087512835 [Eh]
	 Correlation Energy        =      -1.3018536179502571 [Eh]
	 Total Energy              =    -691.0161228543684047 [Eh]

	 ================> DF-SCS-MP2 Energies <==================
	-----------------------------------------------------------
	 SCS Same-Spin Scale       =       0.3333333333333333 [-]
	 SCS Opposite-Spin Scale   =       1.2000000000000000 [-]
	 SCS Same-Spin Energy      =      -0.1068829030663245 [Eh]
	 SCS Opposite-Spin Energy  =      -1.1774458905015401 [Eh]
	 SCS Correlation Energy    =      -1.2843287935678647 [Eh]
	 SCS Total Energy          =    -690.9985980299860557 [Eh]
	-----------------------------------------------------------

  Dipole Moment: [D]
     X:    -1.6971      Y:    -0.0160      Z:    -0.0929     Total:     1.6998

*** Psi4 exiting successfully. Buy a developer a beer!
