                               Psi4 1.3.2 release

  ==> Input File <==

--------------------------------------------------------------------------
#psi4
#
memory 32 gb

molecule  {
0 1
 Cl        2.2526770     0.0000000    -0.0000490
  C        0.5109380    -0.0000600    -0.0000110
  C       -0.1739820    -1.2154480     0.0000200
  C       -0.1739365     1.2154089    -0.3000130
  C       -1.5696810    -1.2075560     0.0000510
  C       -1.5696010     1.2076130     0.0000180
  C       -2.2707960     0.0000350     0.0000490
  H        0.3801350    -2.1498460     0.0000230
  H        0.3803180     2.1497300    -0.0000380
  H       -2.1080660    -2.1520820     0.0000750
  H       -2.1079470     2.1521620     0.0000170
  H       -3.3576350     0.0000600     0.0000720
units angstrom
no_reorient  #important for SAPT in psi4, default
symmetry c1  #important for SAPT in psi4, default
}

set PROPERTIES_ORIGIN ["COM"]
properties('MP2/aug-cc-pvtz', properties = ['dipole'])
--------------------------------------------------------------------------

    Molecular point group: c1
  Charge       = 0
  Multiplicity = 1
  Basis Set: AUG-CC-PVTZ
    Blend: AUG-CC-PVTZ
  Basis Set: (AUG-CC-PVTZ AUX)
    Blend: AUG-CC-PVTZ-JKFIT

    Orbital Energies [Eh]
    ---------------------

    Doubly Occupied:

       1A   -104.842759     2A    -11.314162     3A    -11.260364
       4A    -11.259329     5A    -11.257218     6A    -11.252332
       7A    -11.247734     8A    -10.566668     9A     -8.033562
      10A     -8.031666    11A     -8.031652    12A     -1.187676
      13A     -1.119320    14A     -1.028267    15A     -0.995169
      16A     -0.843545    17A     -0.815513    18A     -0.706003
      19A     -0.647380    20A     -0.640806    21A     -0.598179
      22A     -0.587441    23A     -0.542363    24A     -0.511760
      25A     -0.508902    26A     -0.468097    27A     -0.454330
      28A     -0.352248    29A     -0.335770

  @DF-RHF Final Energy:  -689.68772050814573

   => Energetics <=

    Nuclear Repulsion Energy =            314.1782007119535365
    One-Electron Energy =               -1568.8514104382390997
    Two-Electron Energy =                 564.9854892181399464
    Total Energy =                       -689.6877205081457305
  Basis Set: (AUG-CC-PVTZ AUX)
    Blend: AUG-CC-PVTZ-RI
    Molecular point group: c1

    Geometry (in Angstrom), charge = 0, multiplicity = 1:

       Center              X                  Y                   Z               Mass
    ------------   -----------------  -----------------  -----------------  -----------------
         CL           2.172840546786     0.000000544713     0.032093311442    34.968852682000
         C            0.431101546786    -0.000059455287     0.032131311442    12.000000000000
         C           -0.253818453214    -1.215447455287     0.032162311442    12.000000000000
         C           -0.253772953214     1.215409444713    -0.267870688558    12.000000000000
         C           -1.649517453214    -1.207555455287     0.032193311442    12.000000000000
         C           -1.649437453214     1.207613544713     0.032160311442    12.000000000000
         C           -2.350632453214     0.000035544713     0.032191311442    12.000000000000
         H            0.300298546786    -2.149845455287     0.032165311442     1.007825032230
         H            0.300481546786     2.149730544713     0.032104311442     1.007825032230
         H           -2.187902453214    -2.152081455287     0.032217311442     1.007825032230
         H           -2.187783453214     2.152162544713     0.032159311442     1.007825032230
         H           -3.437471453214     0.000060544713     0.032214311442     1.007825032230

  Basis Set: AUG-CC-PVTZ
    Blend: AUG-CC-PVTZ
  Basis Set: (AUG-CC-PVTZ AUX)
    Blend: AUG-CC-PVTZ-JKFIT
	 Reference Energy          =    -689.6877205081457305 [Eh]
	 Singles Energy            =      -0.0000000000000000 [Eh]
	 Same-Spin Energy          =      -0.3219462942128253 [Eh]
	 Opposite-Spin Energy      =      -0.9853264063380798 [Eh]
	 Correlation Energy        =      -1.3072727005509051 [Eh]
	 Total Energy              =    -690.9949932086966555 [Eh]

	 ================> DF-SCS-MP2 Energies <==================
	-----------------------------------------------------------
	 SCS Same-Spin Scale       =       0.3333333333333333 [-]
	 SCS Opposite-Spin Scale   =       1.2000000000000000 [-]
	 SCS Same-Spin Energy      =      -0.1073154314042751 [Eh]
	 SCS Opposite-Spin Energy  =      -1.1823916876056957 [Eh]
	 SCS Correlation Energy    =      -1.2897071190099707 [Eh]
	 SCS Total Energy          =    -690.9774276271557483 [Eh]
	-----------------------------------------------------------

  Dipole Moment: [D]
     X:    -1.7867      Y:    -0.1641      Z:     0.1472     Total:     1.8003

*** Psi4 exiting successfully. Buy a developer a beer!
