                               Psi4 1.3.2 release

  ==> Input File <==

--------------------------------------------------------------------------
#psi4
#
memory 32 gb

molecule  {
0 1
 Cl        2.2526770     0.0000000    -0.0000490
  C        0.5109380    -0.0000600    -0.0000110
  C       -0.1739820    -1.2154480     0.0000200
  C       -0.1739300     1.2154130    -0.0000130
  C       -1.5696810    -1.2075560     0.0000510
  C       -1.5696010     1.2076130     0.0000180
  C       -2.2707960     0.0000350     0.0000490
  H        0.3801350    -2.1498460     0.0000230
  H        0.3803136     2.1497272    -0.2000380
  H       -2.1080660    -2.1520820     0.0000750
  H       -2.1079470     2.1521620     0.0000170
  H       -3.3576350     0.0000600     0.0000720
units angstrom
no_reorient  #important for SAPT in psi4, default
symmetry c1  #important for SAPT in psi4, default
}

set PROPERTIES_ORIGIN ["COM"]
properties('MP2/aug-cc-pvtz', properties = ['dipole'])
--------------------------------------------------------------------------

    Molecular point group: c1
  Charge       = 0
  Multiplicity = 1
  Basis Set: AUG-CC-PVTZ
    Blend: AUG-CC-PVTZ
  Basis Set: (AUG-CC-PVTZ AUX)
    Blend: AUG-CC-PVTZ-JKFIT

    Orbital Energies [Eh]
    ---------------------

    Doubly Occupied:

       1A   -104.842069     2A    -11.307217     3A    -11.254614
       4A    -11.253574     5A    -11.252635     6A    -11.252346
       7A    -11.248359     8A    -10.565905     9A     -8.032809
      10A     -8.030913    11A     -8.030904    12A     -1.189939
      13A     -1.119283    14A     -1.031392    15A     -0.996819
      16A     -0.845111    17A     -0.819845    18A     -0.709312
      19A     -0.647583    20A     -0.647097    21A     -0.602112
      22A     -0.589073    23A     -0.545187    24A     -0.515776
      25A     -0.511450    26A     -0.469971    27A     -0.455243
      28A     -0.352251    29A     -0.337157

  @DF-RHF Final Energy:  -689.71311395371788

   => Energetics <=

    Nuclear Repulsion Energy =            315.1213269390009373
    One-Electron Energy =               -1570.7569886591222712
    Two-Electron Energy =                 565.9225477664034543
    Total Energy =                       -689.7131139537178797
  Basis Set: (AUG-CC-PVTZ AUX)
    Blend: AUG-CC-PVTZ-RI
    Molecular point group: c1

    Geometry (in Angstrom), charge = 0, multiplicity = 1:

       Center              X                  Y                   Z               Mass
    ------------   -----------------  -----------------  -----------------  -----------------
         CL           2.172839889997     0.000000130652     0.001752303070    34.968852682000
         C            0.431100889997    -0.000059869348     0.001790303070    12.000000000000
         C           -0.253819110003    -1.215447869348     0.001821303070    12.000000000000
         C           -0.253767110003     1.215413130652     0.001788303070    12.000000000000
         C           -1.649518110003    -1.207555869348     0.001852303070    12.000000000000
         C           -1.649438110003     1.207613130652     0.001819303070    12.000000000000
         C           -2.350633110003     0.000035130652     0.001850303070    12.000000000000
         H            0.300297889997    -2.149845869348     0.001824303070     1.007825032230
         H            0.300476489997     2.149727330652    -0.198236696930     1.007825032230
         H           -2.187903110003    -2.152081869348     0.001876303070     1.007825032230
         H           -2.187784110003     2.152162130652     0.001818303070     1.007825032230
         H           -3.437472110003     0.000060130652     0.001873303070     1.007825032230

  Basis Set: AUG-CC-PVTZ
    Blend: AUG-CC-PVTZ
  Basis Set: (AUG-CC-PVTZ AUX)
    Blend: AUG-CC-PVTZ-JKFIT
	 Reference Energy          =    -689.7131139537178797 [Eh]
	 Singles Energy            =      -0.0000000000000000 [Eh]
	 Same-Spin Energy          =      -0.3207174018968154 [Eh]
	 Opposite-Spin Energy      =      -0.9813267280027475 [Eh]
	 Correlation Energy        =      -1.3020441298995629 [Eh]
	 Total Energy              =    -691.0151580836173935 [Eh]

	 ================> DF-SCS-MP2 Energies <==================
	-----------------------------------------------------------
	 SCS Same-Spin Scale       =       0.3333333333333333 [-]
	 SCS Opposite-Spin Scale   =       1.2000000000000000 [-]
	 SCS Same-Spin Energy      =      -0.1069058006322718 [Eh]
	 SCS Opposite-Spin Energy  =      -1.1775920736032970 [Eh]
	 SCS Correlation Energy    =      -1.2844978742355688 [Eh]
	 SCS Total Energy          =    -690.9976118279533921 [Eh]
	-----------------------------------------------------------

  Dipole Moment: [D]
     X:    -1.7208      Y:    -0.0253      Z:    -0.1260     Total:     1.7256

*** Psi4 exiting successfully. Buy a developer a beer!
