                               Psi4 1.3.2 release

  ==> Input File <==

--------------------------------------------------------------------------
#psi4
#
memory 32 gb

molecule  {
0 1
 Cl        2.2526770     0.0000000    -0.0000490
  C        0.5109380    -0.0000600    -0.0000110
  C       -0.1739820    -1.2154480     0.0000200
  C       -0.1739300     1.2154130    -0.0000130
  C       -1.5696810    -1.2075560     0.0000510
  C       -1.5696010     1.2076130     0.0000180
  C       -2.2707960     0.0000350     0.0000490
  H        0.3801350    -2.1498460     0.0000230
  H        0.3803180     2.1497300    -0.0000380
  H       -2.1080660    -2.1520820     0.0000750
  H       -2.1079470     2.1521620     0.0000170
  H       -3.3576308     0.0000627     0.2000720
units angstrom
no_reorient  #important for SAPT in psi4, default
symmetry c1  #important for SAPT in psi4, default
}

set PROPERTIES_ORIGIN ["COM"]
properties('MP2/aug-cc-pvtz', properties = ['dipole'])
--------------------------------------------------------------------------

    Molecular point group: c1
  Charge       = 0
  Multiplicity = 1
  Basis Set: AUG-CC-PVTZ
    Blend: AUG-CC-PVTZ
  Basis Set: (AUG-CC-PVTZ AUX)
    Blend: AUG-CC-PVTZ-JKFIT

    Orbital Energies [Eh]
    ---------------------

    Doubly Occupied:

       1A   -104.842311     2A    -11.307313     3A    -11.253587
       4A    -11.253543     5A    -11.252444     6A    -11.252270
       7A    -11.249733     8A    -10.566143     9A     -8.033047
      10A     -8.031150    11A     -8.031144    12A     -1.190118
      13A     -1.119224    14A     -1.031890    15A     -0.996369
      16A     -0.845945    17A     -0.819237    18A     -0.708648
      19A     -0.647949    20A     -0.647569    21A     -0.603467
      22A     -0.587636    23A     -0.545002    24A     -0.517326
      25A     -0.511024    26A     -0.469243    27A     -0.455477
      28A     -0.352578    29A     -0.336952

  @DF-RHF Final Energy:  -689.71310085720597

   => Energetics <=

    Nuclear Repulsion Energy =            315.1274564266311131
    One-Electron Energy =               -1570.7644390975847273
    Two-Electron Energy =                 565.9238818137475846
    Total Energy =                       -689.7131008572059727
  Basis Set: (AUG-CC-PVTZ AUX)
    Blend: AUG-CC-PVTZ-RI
    Molecular point group: c1

    Geometry (in Angstrom), charge = 0, multiplicity = 1:

       Center              X                  Y                   Z               Mass
    ------------   -----------------  -----------------  -----------------  -----------------
         CL           2.172839812616     0.000000081165    -0.001846815678    34.968852682000
         C            0.431100812616    -0.000059918835    -0.001808815678    12.000000000000
         C           -0.253819187384    -1.215447918835    -0.001777815678    12.000000000000
         C           -0.253767187384     1.215413081165    -0.001810815678    12.000000000000
         C           -1.649518187384    -1.207555918835    -0.001746815678    12.000000000000
         C           -1.649438187384     1.207613081165    -0.001779815678    12.000000000000
         C           -2.350633187384     0.000035081165    -0.001748815678    12.000000000000
         H            0.300297812616    -2.149845918835    -0.001774815678     1.007825032230
         H            0.300480812616     2.149730081165    -0.001835815678     1.007825032230
         H           -2.187903187384    -2.152081918835    -0.001722815678     1.007825032230
         H           -2.187784187384     2.152162081165    -0.001780815678     1.007825032230
         H           -3.437467987384     0.000062781165     0.198274184322     1.007825032230

  Basis Set: AUG-CC-PVTZ
    Blend: AUG-CC-PVTZ
  Basis Set: (AUG-CC-PVTZ AUX)
    Blend: AUG-CC-PVTZ-JKFIT
	 Reference Energy          =    -689.7131008572059727 [Eh]
	 Singles Energy            =      -0.0000000000000000 [Eh]
	 Same-Spin Energy          =      -0.3207053303435339 [Eh]
	 Opposite-Spin Energy      =      -0.9813652014768488 [Eh]
	 Correlation Energy        =      -1.3020705318203827 [Eh]
	 Total Energy              =    -691.0151713890263636 [Eh]

	 ================> DF-SCS-MP2 Energies <==================
	-----------------------------------------------------------
	 SCS Same-Spin Scale       =       0.3333333333333333 [-]
	 SCS Opposite-Spin Scale   =       1.2000000000000000 [-]
	 SCS Same-Spin Energy      =      -0.1069017767811780 [Eh]
	 SCS Opposite-Spin Energy  =      -1.1776382417722184 [Eh]
	 SCS Correlation Energy    =      -1.2845400185533964 [Eh]
	 SCS Total Energy          =    -690.9976408757593163 [Eh]
	-----------------------------------------------------------

  Dipole Moment: [D]
     X:    -1.6700      Y:    -0.0000      Z:     0.1281     Total:     1.6749

*** Psi4 exiting successfully. Buy a developer a beer!
