                               Psi4 1.3.2 release

  ==> Input File <==

--------------------------------------------------------------------------
#psi4
#
memory 32 gb

molecule  {
0 1
 Cl        2.2526770     0.0000000    -0.0000490
  C        0.5109380    -0.0000600    -0.0000110
  C       -0.1739820    -1.2154480     0.0000200
  C       -0.1739322     1.2154116    -0.1000130
  C       -1.5696810    -1.2075560     0.0000510
  C       -1.5696010     1.2076130     0.0000180
  C       -2.2707960     0.0000350     0.0000490
  H        0.3801350    -2.1498460     0.0000230
  H        0.3803180     2.1497300    -0.0000380
  H       -2.1080660    -2.1520820     0.0000750
  H       -2.1079470     2.1521620     0.0000170
  H       -3.3576350     0.0000600     0.0000720
units angstrom
no_reorient  #important for SAPT in psi4, default
symmetry c1  #important for SAPT in psi4, default
}

set PROPERTIES_ORIGIN ["COM"]
properties('MP2/aug-cc-pvtz', properties = ['dipole'])
--------------------------------------------------------------------------

    Molecular point group: c1
  Charge       = 0
  Multiplicity = 1
  Basis Set: AUG-CC-PVTZ
    Blend: AUG-CC-PVTZ
  Basis Set: (AUG-CC-PVTZ AUX)
    Blend: AUG-CC-PVTZ-JKFIT

    Orbital Energies [Eh]
    ---------------------

    Doubly Occupied:

       1A   -104.842106     2A    -11.307739     3A    -11.254161
       4A    -11.253530     5A    -11.252917     6A    -11.252311
       7A    -11.248175     8A    -10.565959     9A     -8.032863
      10A     -8.030965    11A     -8.030959    12A     -1.189626
      13A     -1.119160    14A     -1.031286    15A     -0.996670
      16A     -0.845483    17A     -0.819507    18A     -0.709954
      19A     -0.648006    20A     -0.646652    21A     -0.602604
      22A     -0.589186    23A     -0.544418    24A     -0.516506
      25A     -0.511733    26A     -0.469806    27A     -0.455152
      28A     -0.352343    29A     -0.336928

  @DF-RHF Final Energy:  -689.71267482247299

   => Energetics <=

    Nuclear Repulsion Energy =            315.0792449283139263
    One-Electron Energy =               -1570.6704284590173302
    Two-Electron Energy =                 565.8785087082303562
    Total Energy =                       -689.7126748224729909
  Basis Set: (AUG-CC-PVTZ AUX)
    Blend: AUG-CC-PVTZ-RI
    Molecular point group: c1

    Geometry (in Angstrom), charge = 0, multiplicity = 1:

       Center              X                  Y                   Z               Mass
    ------------   -----------------  -----------------  -----------------  -----------------
         CL           2.172840086105     0.000000255448     0.010666266278    34.968852682000
         C            0.431101086105    -0.000059744552     0.010704266278    12.000000000000
         C           -0.253818913895    -1.215447744552     0.010735266278    12.000000000000
         C           -0.253769113895     1.215411855448    -0.089297733722    12.000000000000
         C           -1.649517913895    -1.207555744552     0.010766266278    12.000000000000
         C           -1.649437913895     1.207613255448     0.010733266278    12.000000000000
         C           -2.350632913895     0.000035255448     0.010764266278    12.000000000000
         H            0.300298086105    -2.149845744552     0.010738266278     1.007825032230
         H            0.300481086105     2.149730255448     0.010677266278     1.007825032230
         H           -2.187902913895    -2.152081744552     0.010790266278     1.007825032230
         H           -2.187783913895     2.152162255448     0.010732266278     1.007825032230
         H           -3.437471913895     0.000060255448     0.010787266278     1.007825032230

  Basis Set: AUG-CC-PVTZ
    Blend: AUG-CC-PVTZ
  Basis Set: (AUG-CC-PVTZ AUX)
    Blend: AUG-CC-PVTZ-JKFIT
	 Reference Energy          =    -689.7126748224729909 [Eh]
	 Singles Energy            =      -0.0000000000000000 [Eh]
	 Same-Spin Energy          =      -0.3207340651679575 [Eh]
	 Opposite-Spin Energy      =      -0.9815246534907849 [Eh]
	 Correlation Energy        =      -1.3022587186587424 [Eh]
	 Total Energy              =    -691.0149335411317679 [Eh]

	 ================> DF-SCS-MP2 Energies <==================
	-----------------------------------------------------------
	 SCS Same-Spin Scale       =       0.3333333333333333 [-]
	 SCS Opposite-Spin Scale   =       1.2000000000000000 [-]
	 SCS Same-Spin Energy      =      -0.1069113550559858 [Eh]
	 SCS Opposite-Spin Energy  =      -1.1778295841889419 [Eh]
	 SCS Correlation Energy    =      -1.2847409392449278 [Eh]
	 SCS Total Energy          =    -690.9974157617178889 [Eh]
	-----------------------------------------------------------

  Dipole Moment: [D]
     X:    -1.7160      Y:    -0.0189      Z:     0.0456     Total:     1.7167

*** Psi4 exiting successfully. Buy a developer a beer!
