                               Psi4 1.3.2 release

  ==> Input File <==

--------------------------------------------------------------------------
#psi4
#
memory 32 gb

molecule  {
0 1
 Cl        2.2526770     0.0000000    -0.0000490
  C        0.5109380    -0.0000600    -0.0000110
  C       -0.1739820    -1.2154480     0.0000200
  C       -0.1739332     1.2154110    -0.1500130
  C       -1.5696810    -1.2075560     0.0000510
  C       -1.5696010     1.2076130     0.0000180
  C       -2.2707960     0.0000350     0.0000490
  H        0.3801350    -2.1498460     0.0000230
  H        0.3803180     2.1497300    -0.0000380
  H       -2.1080660    -2.1520820     0.0000750
  H       -2.1079470     2.1521620     0.0000170
  H       -3.3576350     0.0000600     0.0000720
units angstrom
no_reorient  #important for SAPT in psi4, default
symmetry c1  #important for SAPT in psi4, default
}

set PROPERTIES_ORIGIN ["COM"]
properties('MP2/aug-cc-pvtz', properties = ['dipole'])
--------------------------------------------------------------------------

    Molecular point group: c1
  Charge       = 0
  Multiplicity = 1
  Basis Set: AUG-CC-PVTZ
    Blend: AUG-CC-PVTZ
  Basis Set: (AUG-CC-PVTZ AUX)
    Blend: AUG-CC-PVTZ-JKFIT

    Orbital Energies [Eh]
    ---------------------

    Doubly Occupied:

       1A   -104.842196     2A    -11.308775     3A    -11.255165
       4A    -11.253993     5A    -11.253897     6A    -11.252443
       7A    -11.248095     8A    -10.566064     9A     -8.032967
      10A     -8.031067    11A     -8.031062    12A     -1.189297
      13A     -1.119170    14A     -1.030795    15A     -0.996449
      16A     -0.845140    17A     -0.818829    18A     -0.709192
      19A     -0.647852    20A     -0.645711    21A     -0.601775
      22A     -0.589029    23A     -0.544021    24A     -0.515700
      25A     -0.511467    26A     -0.469535    27A     -0.455038
      28A     -0.352287    29A     -0.336727

  @DF-RHF Final Energy:  -689.70883429379990

   => Energetics <=

    Nuclear Repulsion Energy =            314.9353639450000060
    One-Electron Energy =               -1570.3809234078355530
    Two-Electron Energy =                 565.7367251690355943
    Total Energy =                       -689.7088342937998959
  Basis Set: (AUG-CC-PVTZ AUX)
    Blend: AUG-CC-PVTZ-RI
    Molecular point group: c1

    Geometry (in Angstrom), charge = 0, multiplicity = 1:

       Center              X                  Y                   Z               Mass
    ------------   -----------------  -----------------  -----------------  -----------------
         CL           2.172840193240     0.000000319729     0.016023027569    34.968852682000
         C            0.431101193240    -0.000059680271     0.016061027569    12.000000000000
         C           -0.253818806760    -1.215447680271     0.016092027569    12.000000000000
         C           -0.253770006760     1.215411319729    -0.133940972431    12.000000000000
         C           -1.649517806760    -1.207555680271     0.016123027569    12.000000000000
         C           -1.649437806760     1.207613319729     0.016090027569    12.000000000000
         C           -2.350632806760     0.000035319729     0.016121027569    12.000000000000
         H            0.300298193240    -2.149845680271     0.016095027569     1.007825032230
         H            0.300481193240     2.149730319729     0.016034027569     1.007825032230
         H           -2.187902806760    -2.152081680271     0.016147027569     1.007825032230
         H           -2.187783806760     2.152162319729     0.016089027569     1.007825032230
         H           -3.437471806760     0.000060319729     0.016144027569     1.007825032230

  Basis Set: AUG-CC-PVTZ
    Blend: AUG-CC-PVTZ
  Basis Set: (AUG-CC-PVTZ AUX)
    Blend: AUG-CC-PVTZ-JKFIT
	 Reference Energy          =    -689.7088342937998959 [Eh]
	 Singles Energy            =      -0.0000000000000000 [Eh]
	 Same-Spin Energy          =      -0.3209314976433227 [Eh]
	 Opposite-Spin Energy      =      -0.9821424964137794 [Eh]
	 Correlation Energy        =      -1.3030739940571021 [Eh]
	 Total Energy              =    -691.0119082878569543 [Eh]

	 ================> DF-SCS-MP2 Energies <==================
	-----------------------------------------------------------
	 SCS Same-Spin Scale       =       0.3333333333333333 [-]
	 SCS Opposite-Spin Scale   =       1.2000000000000000 [-]
	 SCS Same-Spin Energy      =      -0.1069771658811076 [Eh]
	 SCS Opposite-Spin Energy  =      -1.1785709956965351 [Eh]
	 SCS Correlation Energy    =      -1.2855481615776427 [Eh]
	 SCS Total Energy          =    -690.9943824553774903 [Eh]
	-----------------------------------------------------------

  Dipole Moment: [D]
     X:    -1.7273      Y:    -0.0420      Z:     0.0693     Total:     1.7292

*** Psi4 exiting successfully. Buy a developer a beer!
