                               Psi4 1.3.2 release

  ==> Input File <==

--------------------------------------------------------------------------
#psi4
#
memory 32 gb

molecule  {
0 1
 Cl        2.2526770     0.0000000    -0.0000490
  C        0.5109380    -0.0000600    -0.0000110
  C       -0.1739820    -1.2154480     0.0000200
  C       -0.1739300     1.2154130    -0.0000130
  C       -1.5696810    -1.2075560     0.0000510
  C       -1.5696010     1.2076130     0.0000180
  C       -2.2707960     0.0000350     0.0000490
  H        0.3801350    -2.1498460     0.0000230
  H        0.3803180     2.1497300    -0.0000380
  H       -2.1080660    -2.1520820     0.0000750
  H       -2.1079470     2.1521620     0.0000170
  H       -3.3576329     0.0000614     0.1000720
units angstrom
no_reorient  #important for SAPT in psi4, default
symmetry c1  #important for SAPT in psi4, default
}

set PROPERTIES_ORIGIN ["COM"]
properties('MP2/aug-cc-pvtz', properties = ['dipole'])
--------------------------------------------------------------------------

    Molecular point group: c1
  Charge       = 0
  Multiplicity = 1
  Basis Set: AUG-CC-PVTZ
    Blend: AUG-CC-PVTZ
  Basis Set: (AUG-CC-PVTZ AUX)
    Blend: AUG-CC-PVTZ-JKFIT

    Orbital Energies [Eh]
    ---------------------

    Doubly Occupied:

       1A   -104.842117     2A    -11.307016     3A    -11.253418
       4A    -11.253403     5A    -11.252229     6A    -11.252087
       7A    -11.248628     8A    -10.565948     9A     -8.032853
      10A     -8.030957    11A     -8.030950    12A     -1.189959
      13A     -1.119180    14A     -1.031745    15A     -0.996728
      16A     -0.845822    17A     -0.819855    18A     -0.710110
      19A     -0.648116    20A     -0.647447    21A     -0.603344
      22A     -0.588881    23A     -0.544819    24A     -0.517192
      25A     -0.511712    26A     -0.469834    27A     -0.455306
      28A     -0.352452    29A     -0.337065

  @DF-RHF Final Energy:  -689.71509245135599

   => Energetics <=

    Nuclear Repulsion Energy =            315.1780224701627162
    One-Electron Energy =               -1570.8678846686723318
    Two-Electron Energy =                 565.9747697471536867
    Total Energy =                       -689.7150924513559858
  Basis Set: (AUG-CC-PVTZ AUX)
    Blend: AUG-CC-PVTZ-RI
    Molecular point group: c1

    Geometry (in Angstrom), charge = 0, multiplicity = 1:

       Center              X                  Y                   Z               Mass
    ------------   -----------------  -----------------  -----------------  -----------------
         CL           2.172839831512     0.000000092862    -0.000947035991    34.968852682000
         C            0.431100831512    -0.000059907138    -0.000909035991    12.000000000000
         C           -0.253819168488    -1.215447907138    -0.000878035991    12.000000000000
         C           -0.253767168488     1.215413092862    -0.000911035991    12.000000000000
         C           -1.649518168488    -1.207555907138    -0.000847035991    12.000000000000
         C           -1.649438168488     1.207613092862    -0.000880035991    12.000000000000
         C           -2.350633168488     0.000035092862    -0.000849035991    12.000000000000
         H            0.300297831512    -2.149845907138    -0.000875035991     1.007825032230
         H            0.300480831512     2.149730092862    -0.000936035991     1.007825032230
         H           -2.187903168488    -2.152081907138    -0.000823035991     1.007825032230
         H           -2.187784168488     2.152162092862    -0.000881035991     1.007825032230
         H           -3.437470068488     0.000061492862     0.099173964009     1.007825032230

  Basis Set: AUG-CC-PVTZ
    Blend: AUG-CC-PVTZ
  Basis Set: (AUG-CC-PVTZ AUX)
    Blend: AUG-CC-PVTZ-JKFIT
	 Reference Energy          =    -689.7150924513559858 [Eh]
	 Singles Energy            =      -0.0000000000000000 [Eh]
	 Same-Spin Energy          =      -0.3206024689784328 [Eh]
	 Opposite-Spin Energy      =      -0.9810879674242270 [Eh]
	 Correlation Energy        =      -1.3016904364026598 [Eh]
	 Total Energy              =    -691.0167828877586089 [Eh]

	 ================> DF-SCS-MP2 Energies <==================
	-----------------------------------------------------------
	 SCS Same-Spin Scale       =       0.3333333333333333 [-]
	 SCS Opposite-Spin Scale   =       1.2000000000000000 [-]
	 SCS Same-Spin Energy      =      -0.1068674896594776 [Eh]
	 SCS Opposite-Spin Energy  =      -1.1773055609090723 [Eh]
	 SCS Correlation Energy    =      -1.2841730505685500 [Eh]
	 SCS Total Energy          =    -690.9992655019245831 [Eh]
	-----------------------------------------------------------

  Dipole Moment: [D]
     X:    -1.6974      Y:    -0.0000      Z:     0.0647     Total:     1.6986

*** Psi4 exiting successfully. Buy a developer a beer!
