                               Psi4 1.3.2 release

  ==> Input File <==

--------------------------------------------------------------------------
#psi4
#
memory 32 gb

molecule  {
0 1
 Cl        2.2526770     0.0000000    -0.0000490
  C        0.5109380    -0.0000600    -0.0000110
  C       -0.1739820    -1.2154480     0.0000200
  C       -0.1739354     1.2154096    -0.2500130
  C       -1.5696810    -1.2075560     0.0000510
  C       -1.5696010     1.2076130     0.0000180
  C       -2.2707960     0.0000350     0.0000490
  H        0.3801350    -2.1498460     0.0000230
  H        0.3803180     2.1497300    -0.0000380
  H       -2.1080660    -2.1520820     0.0000750
  H       -2.1079470     2.1521620     0.0000170
  H       -3.3576350     0.0000600     0.0000720
units angstrom
no_reorient  #important for SAPT in psi4, default
symmetry c1  #important for SAPT in psi4, default
}

set PROPERTIES_ORIGIN ["COM"]
properties('MP2/aug-cc-pvtz', properties = ['dipole'])
--------------------------------------------------------------------------

    Molecular point group: c1
  Charge       = 0
  Multiplicity = 1
  Basis Set: AUG-CC-PVTZ
    Blend: AUG-CC-PVTZ
  Basis Set: (AUG-CC-PVTZ AUX)
    Blend: AUG-CC-PVTZ-JKFIT

    Orbital Energies [Eh]
    ---------------------

    Doubly Occupied:

       1A   -104.842521     2A    -11.312014     3A    -11.258294
       4A    -11.257201     5A    -11.255801     6A    -11.252413
       7A    -11.247865     8A    -10.566418     9A     -8.033315
      10A     -8.031416    11A     -8.031408    12A     -1.188309
      13A     -1.119243    14A     -1.029273    15A     -0.995715
      16A     -0.844154    17A     -0.816798    18A     -0.707131
      19A     -0.647514    20A     -0.642762    21A     -0.599435
      22A     -0.588260    23A     -0.542950    24A     -0.513152
      25A     -0.510303    26A     -0.468682    27A     -0.454642
      28A     -0.352214    29A     -0.336138

  @DF-RHF Final Energy:  -689.69638467668165

   => Energetics <=

    Nuclear Repulsion Energy =            314.4827369004640332
    One-Electron Energy =               -1569.4675538800102004
    Two-Electron Energy =                 565.2884323028645213
    Total Energy =                       -689.6963846766816459
  Basis Set: (AUG-CC-PVTZ AUX)
    Blend: AUG-CC-PVTZ-RI
    Molecular point group: c1

    Geometry (in Angstrom), charge = 0, multiplicity = 1:

       Center              X                  Y                   Z               Mass
    ------------   -----------------  -----------------  -----------------  -----------------
         CL           2.172840428937     0.000000469718     0.026736550151    34.968852682000
         C            0.431101428937    -0.000059530282     0.026774550151    12.000000000000
         C           -0.253818571063    -1.215447530282     0.026805550151    12.000000000000
         C           -0.253771971063     1.215410069718    -0.223227449849    12.000000000000
         C           -1.649517571063    -1.207555530282     0.026836550151    12.000000000000
         C           -1.649437571063     1.207613469718     0.026803550151    12.000000000000
         C           -2.350632571063     0.000035469718     0.026834550151    12.000000000000
         H            0.300298428937    -2.149845530282     0.026808550151     1.007825032230
         H            0.300481428937     2.149730469718     0.026747550151     1.007825032230
         H           -2.187902571063    -2.152081530282     0.026860550151     1.007825032230
         H           -2.187783571063     2.152162469718     0.026802550151     1.007825032230
         H           -3.437471571063     0.000060469718     0.026857550151     1.007825032230

  Basis Set: AUG-CC-PVTZ
    Blend: AUG-CC-PVTZ
  Basis Set: (AUG-CC-PVTZ AUX)
    Blend: AUG-CC-PVTZ-JKFIT
	 Reference Energy          =    -689.6963846766816459 [Eh]
	 Singles Energy            =      -0.0000000000000000 [Eh]
	 Same-Spin Energy          =      -0.3215425978368842 [Eh]
	 Opposite-Spin Energy      =      -0.9840515677569374 [Eh]
	 Correlation Energy        =      -1.3055941655938215 [Eh]
	 Total Energy              =    -691.0019788422754345 [Eh]

	 ================> DF-SCS-MP2 Energies <==================
	-----------------------------------------------------------
	 SCS Same-Spin Scale       =       0.3333333333333333 [-]
	 SCS Opposite-Spin Scale   =       1.2000000000000000 [-]
	 SCS Same-Spin Energy      =      -0.1071808659456280 [Eh]
	 SCS Opposite-Spin Energy  =      -1.1808618813083247 [Eh]
	 SCS Correlation Energy    =      -1.2880427472539528 [Eh]
	 SCS Total Energy          =    -690.9844274239355855 [Eh]
	-----------------------------------------------------------

  Dipole Moment: [D]
     X:    -1.7628      Y:    -0.1150      Z:     0.1202     Total:     1.7706

*** Psi4 exiting successfully. Buy a developer a beer!
