                               Psi4 1.3.2 release

  ==> Input File <==

--------------------------------------------------------------------------
#psi4
#
memory 32 gb

molecule  {
0 1
 Cl        2.2526770     0.0000000    -0.0000490
  C        0.5109380    -0.0000600    -0.0000110
  C       -0.1739820    -1.2154480     0.0000200
  C       -0.1739343     1.2154103    -0.2000130
  C       -1.5696810    -1.2075560     0.0000510
  C       -1.5696010     1.2076130     0.0000180
  C       -2.2707960     0.0000350     0.0000490
  H        0.3801350    -2.1498460     0.0000230
  H        0.3803180     2.1497300    -0.0000380
  H       -2.1080660    -2.1520820     0.0000750
  H       -2.1079470     2.1521620     0.0000170
  H       -3.3576350     0.0000600     0.0000720
units angstrom
no_reorient  #important for SAPT in psi4, default
symmetry c1  #important for SAPT in psi4, default
}

set PROPERTIES_ORIGIN ["COM"]
properties('MP2/aug-cc-pvtz', properties = ['dipole'])
--------------------------------------------------------------------------

    Molecular point group: c1
  Charge       = 0
  Multiplicity = 1
  Basis Set: AUG-CC-PVTZ
    Blend: AUG-CC-PVTZ
  Basis Set: (AUG-CC-PVTZ AUX)
    Blend: AUG-CC-PVTZ-JKFIT

    Orbital Energies [Eh]
    ---------------------

    Doubly Occupied:

       1A   -104.842334     2A    -11.310208     3A    -11.256552
       4A    -11.255397     5A    -11.254696     6A    -11.252465
       7A    -11.247989     8A    -10.566216     9A     -8.033117
      10A     -8.031217    11A     -8.031212    12A     -1.188854
      13A     -1.119195    14A     -1.030121    15A     -0.996136
      16A     -0.844691    17A     -0.817916    18A     -0.708224
      19A     -0.647681    20A     -0.644407    21A     -0.600686
      22A     -0.588749    23A     -0.543517    24A     -0.514560
      25A     -0.511037    26A     -0.469160    27A     -0.454872
      28A     -0.352237    29A     -0.336461

  @DF-RHF Final Energy:  -689.70341392784053

   => Energetics <=

    Nuclear Repulsion Energy =            314.7358990914140691
    One-Electron Energy =               -1569.9788093082220257
    Two-Electron Energy =                 565.5394962889674844
    Total Energy =                       -689.7034139278405291
  Basis Set: (AUG-CC-PVTZ AUX)
    Blend: AUG-CC-PVTZ-RI
    Molecular point group: c1

    Geometry (in Angstrom), charge = 0, multiplicity = 1:

       Center              X                  Y                   Z               Mass
    ------------   -----------------  -----------------  -----------------  -----------------
         CL           2.172840311089     0.000000394724     0.021379788860    34.968852682000
         C            0.431101311089    -0.000059605276     0.021417788860    12.000000000000
         C           -0.253818688911    -1.215447605276     0.021448788860    12.000000000000
         C           -0.253770988911     1.215410694724    -0.178584211140    12.000000000000
         C           -1.649517688911    -1.207555605276     0.021479788860    12.000000000000
         C           -1.649437688911     1.207613394724     0.021446788860    12.000000000000
         C           -2.350632688911     0.000035394724     0.021477788860    12.000000000000
         H            0.300298311089    -2.149845605276     0.021451788860     1.007825032230
         H            0.300481311089     2.149730394724     0.021390788860     1.007825032230
         H           -2.187902688911    -2.152081605276     0.021503788860     1.007825032230
         H           -2.187783688911     2.152162394724     0.021445788860     1.007825032230
         H           -3.437471688911     0.000060394724     0.021500788860     1.007825032230

  Basis Set: AUG-CC-PVTZ
    Blend: AUG-CC-PVTZ
  Basis Set: (AUG-CC-PVTZ AUX)
    Blend: AUG-CC-PVTZ-JKFIT
	 Reference Energy          =    -689.7034139278405291 [Eh]
	 Singles Energy            =      -0.0000000000000000 [Eh]
	 Same-Spin Energy          =      -0.3212023322100153 [Eh]
	 Opposite-Spin Energy      =      -0.9829872074337579 [Eh]
	 Correlation Energy        =      -1.3041895396437733 [Eh]
	 Total Energy              =    -691.0076034674842731 [Eh]

	 ================> DF-SCS-MP2 Energies <==================
	-----------------------------------------------------------
	 SCS Same-Spin Scale       =       0.3333333333333333 [-]
	 SCS Opposite-Spin Scale   =       1.2000000000000000 [-]
	 SCS Same-Spin Energy      =      -0.1070674440700051 [Eh]
	 SCS Opposite-Spin Energy  =      -1.1795846489205095 [Eh]
	 SCS Correlation Energy    =      -1.2866520929905145 [Eh]
	 SCS Total Energy          =    -690.9900660208310228 [Eh]
	-----------------------------------------------------------

  Dipole Moment: [D]
     X:    -1.7429      Y:    -0.0742      Z:     0.0941     Total:     1.7470

*** Psi4 exiting successfully. Buy a developer a beer!
