                               Psi4 1.3.2 release

  ==> Input File <==

--------------------------------------------------------------------------
#psi4
#
memory 32 gb

molecule  {
0 1
 Cl        2.2526770     0.0000000    -0.0000490
  C        0.5109380    -0.0000600    -0.0000110
  C       -0.1739820    -1.2154480     0.0000200
  C       -0.1739300     1.2154130    -0.0000130
  C       -1.5696810    -1.2075560     0.0000510
  C       -1.5696010     1.2076130     0.0000180
  C       -2.2707960     0.0000350     0.0000490
  H        0.3801350    -2.1498460     0.0000230
  H        0.3803180     2.1497300    -0.0000380
  H       -2.1080660    -2.1520820     0.0000750
  H       -2.1079481     2.1521613    -0.0499830
  H       -3.3576350     0.0000600     0.0000720
units angstrom
no_reorient  #important for SAPT in psi4, default
symmetry c1  #important for SAPT in psi4, default
}

set PROPERTIES_ORIGIN ["COM"]
properties('MP2/aug-cc-pvtz', properties = ['dipole'])
--------------------------------------------------------------------------

    Molecular point group: c1
  Charge       = 0
  Multiplicity = 1
  Basis Set: AUG-CC-PVTZ
    Blend: AUG-CC-PVTZ
  Basis Set: (AUG-CC-PVTZ AUX)
    Blend: AUG-CC-PVTZ-JKFIT

    Orbital Energies [Eh]
    ---------------------

    Doubly Occupied:

       1A   -104.842057     2A    -11.306924     3A    -11.253413
       4A    -11.253382     5A    -11.252208     6A    -11.252065
       7A    -11.248273     8A    -10.565889     9A     -8.032794
      10A     -8.030898    11A     -8.030891    12A     -1.189917
      13A     -1.119170    14A     -1.031682    15A     -0.996861
      16A     -0.845733    17A     -0.820049    18A     -0.710589
      19A     -0.648060    20A     -0.647417    21A     -0.603238
      22A     -0.589302    23A     -0.544784    24A     -0.517090
      25A     -0.511931    26A     -0.470004    27A     -0.455245
      28A     -0.352400    29A     -0.337111

  @DF-RHF Final Energy:  -689.71556284030169

   => Energetics <=

    Nuclear Repulsion Energy =            315.1908604902227466
    One-Electron Energy =               -1570.8940930824073803
    Two-Electron Energy =                 565.9876697518828905
    Total Energy =                       -689.7155628403016863
  Basis Set: (AUG-CC-PVTZ AUX)
    Blend: AUG-CC-PVTZ-RI
    Molecular point group: c1

    Geometry (in Angstrom), charge = 0, multiplicity = 1:

       Center              X                  Y                   Z               Mass
    ------------   -----------------  -----------------  -----------------  -----------------
         CL           2.172839860305     0.000000111757     0.000402633539    34.968852682000
         C            0.431100860305    -0.000059888243     0.000440633539    12.000000000000
         C           -0.253819139695    -1.215447888243     0.000471633539    12.000000000000
         C           -0.253767139695     1.215413111757     0.000438633539    12.000000000000
         C           -1.649518139695    -1.207555888243     0.000502633539    12.000000000000
         C           -1.649438139695     1.207613111757     0.000469633539    12.000000000000
         C           -2.350633139695     0.000035111757     0.000500633539    12.000000000000
         H            0.300297860305    -2.149845888243     0.000474633539     1.007825032230
         H            0.300480860305     2.149730111757     0.000413633539     1.007825032230
         H           -2.187903139695    -2.152081888243     0.000526633539     1.007825032230
         H           -2.187785239695     2.152161411757    -0.049531366461     1.007825032230
         H           -3.437472139695     0.000060111757     0.000523633539     1.007825032230

  Basis Set: AUG-CC-PVTZ
    Blend: AUG-CC-PVTZ
  Basis Set: (AUG-CC-PVTZ AUX)
    Blend: AUG-CC-PVTZ-JKFIT
	 Reference Energy          =    -689.7155628403016863 [Eh]
	 Singles Energy            =      -0.0000000000000000 [Eh]
	 Same-Spin Energy          =      -0.3205765528653300 [Eh]
	 Opposite-Spin Energy      =      -0.9810188567646352 [Eh]
	 Correlation Energy        =      -1.3015954096299653 [Eh]
	 Total Energy              =    -691.0171582499316401 [Eh]

	 ================> DF-SCS-MP2 Energies <==================
	-----------------------------------------------------------
	 SCS Same-Spin Scale       =       0.3333333333333333 [-]
	 SCS Opposite-Spin Scale   =       1.2000000000000000 [-]
	 SCS Same-Spin Energy      =      -0.1068588509551100 [Eh]
	 SCS Opposite-Spin Energy  =      -1.1772226281175622 [Eh]
	 SCS Correlation Energy    =      -1.2840814790726722 [Eh]
	 SCS Total Energy          =    -690.9996443193743971 [Eh]
	-----------------------------------------------------------

  Dipole Moment: [D]
     X:    -1.7056      Y:    -0.0018      Z:    -0.0311     Total:     1.7059

*** Psi4 exiting successfully. Buy a developer a beer!
