                               Psi4 1.3.2 release

  ==> Input File <==

--------------------------------------------------------------------------
#psi4
#
memory 32 gb

molecule  {
0 1
 Cl        2.2526770     0.0000000    -0.0000490
  C        0.5109380    -0.0000600    -0.0000110
  C       -0.1739820    -1.2154480     0.0000200
  C       -0.1739300     1.2154130    -0.0000130
  C       -1.5696810    -1.2075560     0.0000510
  C       -1.5696010     1.2076130     0.0000180
  C       -2.2707960     0.0000350     0.0000490
  H        0.3801350    -2.1498460     0.0000230
  H        0.3803169     2.1497293    -0.0500380
  H       -2.1080660    -2.1520820     0.0000750
  H       -2.1079470     2.1521620     0.0000170
  H       -3.3576350     0.0000600     0.0000720
units angstrom
no_reorient  #important for SAPT in psi4, default
symmetry c1  #important for SAPT in psi4, default
}

set PROPERTIES_ORIGIN ["COM"]
properties('MP2/aug-cc-pvtz', properties = ['dipole'])
--------------------------------------------------------------------------

    Molecular point group: c1
  Charge       = 0
  Multiplicity = 1
  Basis Set: AUG-CC-PVTZ
    Blend: AUG-CC-PVTZ
  Basis Set: (AUG-CC-PVTZ AUX)
    Blend: AUG-CC-PVTZ-JKFIT

    Orbital Energies [Eh]
    ---------------------

    Doubly Occupied:

       1A   -104.842053     2A    -11.306936     3A    -11.253434
       4A    -11.253376     5A    -11.252193     6A    -11.252056
       7A    -11.248259     8A    -10.565885     9A     -8.032789
      10A     -8.030894    11A     -8.030887    12A     -1.189909
      13A     -1.119175    14A     -1.031678    15A     -0.996854
      16A     -0.845739    17A     -0.820061    18A     -0.710536
      19A     -0.648109    20A     -0.647414    21A     -0.603230
      22A     -0.589288    23A     -0.544785    24A     -0.517053
      25A     -0.511920    26A     -0.470027    27A     -0.455249
      28A     -0.352401    29A     -0.337109

  @DF-RHF Final Energy:  -689.71556489195325

   => Energetics <=

    Nuclear Repulsion Energy =            315.1905097532757623
    One-Electron Energy =               -1570.8935489563073133
    Two-Electron Energy =                 565.9874743110782447
    Total Energy =                       -689.7155648919532496
  Basis Set: (AUG-CC-PVTZ AUX)
    Blend: AUG-CC-PVTZ-RI
    Molecular point group: c1

    Geometry (in Angstrom), charge = 0, multiplicity = 1:

       Center              X                  Y                   Z               Mass
    ------------   -----------------  -----------------  -----------------  -----------------
         CL           2.172839860305     0.000000111757     0.000402633539    34.968852682000
         C            0.431100860305    -0.000059888243     0.000440633539    12.000000000000
         C           -0.253819139695    -1.215447888243     0.000471633539    12.000000000000
         C           -0.253767139695     1.215413111757     0.000438633539    12.000000000000
         C           -1.649518139695    -1.207555888243     0.000502633539    12.000000000000
         C           -1.649438139695     1.207613111757     0.000469633539    12.000000000000
         C           -2.350633139695     0.000035111757     0.000500633539    12.000000000000
         H            0.300297860305    -2.149845888243     0.000474633539     1.007825032230
         H            0.300479760305     2.149729411757    -0.049586366461     1.007825032230
         H           -2.187903139695    -2.152081888243     0.000526633539     1.007825032230
         H           -2.187784139695     2.152162111757     0.000468633539     1.007825032230
         H           -3.437472139695     0.000060111757     0.000523633539     1.007825032230

  Basis Set: AUG-CC-PVTZ
    Blend: AUG-CC-PVTZ
  Basis Set: (AUG-CC-PVTZ AUX)
    Blend: AUG-CC-PVTZ-JKFIT
	 Reference Energy          =    -689.7155648919532496 [Eh]
	 Singles Energy            =      -0.0000000000000000 [Eh]
	 Same-Spin Energy          =      -0.3205767860812748 [Eh]
	 Opposite-Spin Energy      =      -0.9810152102882728 [Eh]
	 Correlation Energy        =      -1.3015919963695475 [Eh]
	 Total Energy              =    -691.0171568883228019 [Eh]

	 ================> DF-SCS-MP2 Energies <==================
	-----------------------------------------------------------
	 SCS Same-Spin Scale       =       0.3333333333333333 [-]
	 SCS Opposite-Spin Scale   =       1.2000000000000000 [-]
	 SCS Same-Spin Energy      =      -0.1068589286937583 [Eh]
	 SCS Opposite-Spin Energy  =      -1.1772182523459274 [Eh]
	 SCS Correlation Energy    =      -1.2840771810396856 [Eh]
	 SCS Total Energy          =    -690.9996420729929696 [Eh]
	-----------------------------------------------------------

  Dipole Moment: [D]
     X:    -1.7076      Y:    -0.0016      Z:    -0.0318     Total:     1.7079

*** Psi4 exiting successfully. Buy a developer a beer!
