                               Psi4 1.3.2 release

  ==> Input File <==

--------------------------------------------------------------------------
#psi4
#
memory 32 gb

molecule  {
0 1
 Cl        2.2526770     0.0000000    -0.0000490
  C        0.5109380    -0.0000600    -0.0000110
  C       -0.1739820    -1.2154480     0.0000200
  C       -0.1739300     1.2154130    -0.0000130
  C       -1.5696810    -1.2075560     0.0000510
  C       -1.5696010     1.2076130     0.0000180
  C       -2.2707960     0.0000350     0.0000490
  H        0.3801350    -2.1498460     0.0000230
  H        0.3803180     2.1497300    -0.0000380
  H       -2.1080660    -2.1520820     0.0000750
  H       -2.1079514     2.1521594    -0.1999830
  H       -3.3576350     0.0000600     0.0000720
units angstrom
no_reorient  #important for SAPT in psi4, default
symmetry c1  #important for SAPT in psi4, default
}

set PROPERTIES_ORIGIN ["COM"]
properties('MP2/aug-cc-pvtz', properties = ['dipole'])
--------------------------------------------------------------------------

    Molecular point group: c1
  Charge       = 0
  Multiplicity = 1
  Basis Set: AUG-CC-PVTZ
    Blend: AUG-CC-PVTZ
  Basis Set: (AUG-CC-PVTZ AUX)
    Blend: AUG-CC-PVTZ-JKFIT

    Orbital Energies [Eh]
    ---------------------

    Doubly Occupied:

       1A   -104.842143     2A    -11.307035     3A    -11.254410
       4A    -11.253672     5A    -11.252940     6A    -11.252300
       7A    -11.248595     8A    -10.565979     9A     -8.032884
      10A     -8.030988    11A     -8.030980    12A     -1.190058
      13A     -1.119209    14A     -1.031458    15A     -0.996938
      16A     -0.845037    17A     -0.819650    18A     -0.710129
      19A     -0.647582    20A     -0.646401    21A     -0.602205
      22A     -0.589325    23A     -0.545172    24A     -0.516275
      25A     -0.511733    26A     -0.469618    27A     -0.455169
      28A     -0.352234    29A     -0.337190

  @DF-RHF Final Energy:  -689.71307821660309

   => Energetics <=

    Nuclear Repulsion Energy =            315.1269121196679635
    One-Electron Energy =               -1570.7653608051446099
    Two-Electron Energy =                 565.9253704688736661
    Total Energy =                       -689.7130782166030940
  Basis Set: (AUG-CC-PVTZ AUX)
    Blend: AUG-CC-PVTZ-RI
    Molecular point group: c1

    Geometry (in Angstrom), charge = 0, multiplicity = 1:

       Center              X                  Y                   Z               Mass
    ------------   -----------------  -----------------  -----------------  -----------------
         CL           2.172839889997     0.000000128853     0.001752303070    34.968852682000
         C            0.431100889997    -0.000059871147     0.001790303070    12.000000000000
         C           -0.253819110003    -1.215447871147     0.001821303070    12.000000000000
         C           -0.253767110003     1.215413128853     0.001788303070    12.000000000000
         C           -1.649518110003    -1.207555871147     0.001852303070    12.000000000000
         C           -1.649438110003     1.207613128853     0.001819303070    12.000000000000
         C           -2.350633110003     0.000035128853     0.001850303070    12.000000000000
         H            0.300297889997    -2.149845871147     0.001824303070     1.007825032230
         H            0.300480889997     2.149730128853     0.001763303070     1.007825032230
         H           -2.187903110003    -2.152081871147     0.001876303070     1.007825032230
         H           -2.187788510003     2.152159528853    -0.198181696930     1.007825032230
         H           -3.437472110003     0.000060128853     0.001873303070     1.007825032230

  Basis Set: AUG-CC-PVTZ
    Blend: AUG-CC-PVTZ
  Basis Set: (AUG-CC-PVTZ AUX)
    Blend: AUG-CC-PVTZ-JKFIT
	 Reference Energy          =    -689.7130782166030940 [Eh]
	 Singles Energy            =      -0.0000000000000000 [Eh]
	 Same-Spin Energy          =      -0.3207105945298891 [Eh]
	 Opposite-Spin Energy      =      -0.9813703176411133 [Eh]
	 Correlation Energy        =      -1.3020809121710024 [Eh]
	 Total Energy              =    -691.0151591287741439 [Eh]

	 ================> DF-SCS-MP2 Energies <==================
	-----------------------------------------------------------
	 SCS Same-Spin Scale       =       0.3333333333333333 [-]
	 SCS Opposite-Spin Scale   =       1.2000000000000000 [-]
	 SCS Same-Spin Energy      =      -0.1069035315099630 [Eh]
	 SCS Opposite-Spin Energy  =      -1.1776443811693358 [Eh]
	 SCS Correlation Energy    =      -1.2845479126792989 [Eh]
	 SCS Total Energy          =    -690.9976261292823665 [Eh]
	-----------------------------------------------------------

  Dipole Moment: [D]
     X:    -1.6898      Y:    -0.0282      Z:    -0.1233     Total:     1.6945

*** Psi4 exiting successfully. Buy a developer a beer!
