                               Psi4 1.3.2 release

  ==> Input File <==

--------------------------------------------------------------------------
#psi4
#
memory 32 gb

molecule  {
0 1
 Cl        2.2526770     0.0000000    -0.0000490
  C        0.5109380    -0.0000600    -0.0000110
  C       -0.1739820    -1.2154480     0.0000200
  C       -0.1739311     1.2154123    -0.0500130
  C       -1.5696810    -1.2075560     0.0000510
  C       -1.5696010     1.2076130     0.0000180
  C       -2.2707960     0.0000350     0.0000490
  H        0.3801350    -2.1498460     0.0000230
  H        0.3803180     2.1497300    -0.0000380
  H       -2.1080660    -2.1520820     0.0000750
  H       -2.1079470     2.1521620     0.0000170
  H       -3.3576350     0.0000600     0.0000720
units angstrom
no_reorient  #important for SAPT in psi4, default
symmetry c1  #important for SAPT in psi4, default
}

set PROPERTIES_ORIGIN ["COM"]
properties('MP2/aug-cc-pvtz', properties = ['dipole'])
--------------------------------------------------------------------------

    Molecular point group: c1
  Charge       = 0
  Multiplicity = 1
  Basis Set: AUG-CC-PVTZ
    Blend: AUG-CC-PVTZ
  Basis Set: (AUG-CC-PVTZ AUX)
    Blend: AUG-CC-PVTZ-JKFIT

    Orbital Energies [Eh]
    ---------------------

    Doubly Occupied:

       1A   -104.842062     2A    -11.307120     3A    -11.253560
       4A    -11.253388     5A    -11.252319     6A    -11.252133
       7A    -11.248230     8A    -10.565901     9A     -8.032806
      10A     -8.030909    11A     -8.030902    12A     -1.189833
      13A     -1.119163    14A     -1.031591    15A     -0.996807
      16A     -0.845704    17A     -0.819929    18A     -0.710448
      19A     -0.648124    20A     -0.647219    21A     -0.603125
      22A     -0.589270    23A     -0.544671    24A     -0.516987
      25A     -0.511886    26A     -0.469973    27A     -0.455223
      28A     -0.352391    29A     -0.337058

  @DF-RHF Final Energy:  -689.71496177591985

   => Energetics <=

    Nuclear Repulsion Energy =            315.1661436084289107
    One-Electron Energy =               -1570.8447496521239373
    Two-Electron Energy =                 565.9636442677751802
    Total Energy =                       -689.7149617759198463
  Basis Set: (AUG-CC-PVTZ AUX)
    Blend: AUG-CC-PVTZ-RI
    Molecular point group: c1

    Geometry (in Angstrom), charge = 0, multiplicity = 1:

       Center              X                  Y                   Z               Mass
    ------------   -----------------  -----------------  -----------------  -----------------
         CL           2.172839968256     0.000000180453     0.005309504987    34.968852682000
         C            0.431100968256    -0.000059819547     0.005347504987    12.000000000000
         C           -0.253819031744    -1.215447819547     0.005378504987    12.000000000000
         C           -0.253768131744     1.215412480453    -0.044654495013    12.000000000000
         C           -1.649518031744    -1.207555819547     0.005409504987    12.000000000000
         C           -1.649438031744     1.207613180453     0.005376504987    12.000000000000
         C           -2.350633031744     0.000035180453     0.005407504987    12.000000000000
         H            0.300297968256    -2.149845819547     0.005381504987     1.007825032230
         H            0.300480968256     2.149730180453     0.005320504987     1.007825032230
         H           -2.187903031744    -2.152081819547     0.005433504987     1.007825032230
         H           -2.187784031744     2.152162180453     0.005375504987     1.007825032230
         H           -3.437472031744     0.000060180453     0.005430504987     1.007825032230

  Basis Set: AUG-CC-PVTZ
    Blend: AUG-CC-PVTZ
  Basis Set: (AUG-CC-PVTZ AUX)
    Blend: AUG-CC-PVTZ-JKFIT
	 Reference Energy          =    -689.7149617759198463 [Eh]
	 Singles Energy            =      -0.0000000000000000 [Eh]
	 Same-Spin Energy          =      -0.3206115290217740 [Eh]
	 Opposite-Spin Energy      =      -0.9811377874833971 [Eh]
	 Correlation Energy        =      -1.3017493165051710 [Eh]
	 Total Energy              =    -691.0167110924249982 [Eh]

	 ================> DF-SCS-MP2 Energies <==================
	-----------------------------------------------------------
	 SCS Same-Spin Scale       =       0.3333333333333333 [-]
	 SCS Opposite-Spin Scale   =       1.2000000000000000 [-]
	 SCS Same-Spin Energy      =      -0.1068705096739247 [Eh]
	 SCS Opposite-Spin Energy  =      -1.1773653449800765 [Eh]
	 SCS Correlation Energy    =      -1.2842358546540011 [Eh]
	 SCS Total Energy          =    -690.9991976305738035 [Eh]
	-----------------------------------------------------------

  Dipole Moment: [D]
     X:    -1.7091      Y:    -0.0048      Z:     0.0228     Total:     1.7093

*** Psi4 exiting successfully. Buy a developer a beer!
