                               Psi4 1.3.2 release

  ==> Input File <==

--------------------------------------------------------------------------
#psi4
#
memory 32 gb

molecule  {
0 1
 Cl        2.2526770     0.0000000    -0.0000490
  C        0.5109380    -0.0000600    -0.0000110
  C       -0.1739820    -1.2154480     0.0000200
  C       -0.1739300     1.2154130    -0.0000130
  C       -1.5696810    -1.2075560     0.0000510
  C       -1.5696010     1.2076130     0.0000180
  C       -2.2707960     0.0000350     0.0000490
  H        0.3801350    -2.1498460     0.0000230
  H        0.3803180     2.1497300    -0.0000380
  H       -2.1080660    -2.1520820     0.0000750
  H       -2.1079470     2.1521620     0.0000170
  H       -3.3576298     0.0000634     0.2500720
units angstrom
no_reorient  #important for SAPT in psi4, default
symmetry c1  #important for SAPT in psi4, default
}

set PROPERTIES_ORIGIN ["COM"]
properties('MP2/aug-cc-pvtz', properties = ['dipole'])
--------------------------------------------------------------------------

    Molecular point group: c1
  Charge       = 0
  Multiplicity = 1
  Basis Set: AUG-CC-PVTZ
    Blend: AUG-CC-PVTZ
  Basis Set: (AUG-CC-PVTZ AUX)
    Blend: AUG-CC-PVTZ-JKFIT

    Orbital Energies [Eh]
    ---------------------

    Doubly Occupied:

       1A   -104.842457     2A    -11.307536     3A    -11.253736
       4A    -11.253657     5A    -11.252618     6A    -11.252407
       7A    -11.250523     8A    -10.566288     9A     -8.033191
      10A     -8.031294    11A     -8.031288    12A     -1.190240
      13A     -1.119263    14A     -1.032002    15A     -0.996121
      16A     -0.846040    17A     -0.818812    18A     -0.707619
      19A     -0.647828    20A     -0.647664    21A     -0.603563
      22A     -0.586713    23A     -0.545138    24A     -0.517430
      25A     -0.510500    26A     -0.468797    27A     -0.455606
      28A     -0.352675    29A     -0.336875

  @DF-RHF Final Energy:  -689.71150968568736

   => Energetics <=

    Nuclear Repulsion Energy =            315.0904622535951489
    One-Electron Energy =               -1570.6881825704494986
    Two-Electron Energy =                 565.8862106311669322
    Total Energy =                       -689.7115096856873606
  Basis Set: (AUG-CC-PVTZ AUX)
    Blend: AUG-CC-PVTZ-RI
    Molecular point group: c1

    Geometry (in Angstrom), charge = 0, multiplicity = 1:

       Center              X                  Y                   Z               Mass
    ------------   -----------------  -----------------  -----------------  -----------------
         CL           2.172839803619     0.000000074866    -0.002296705521    34.968852682000
         C            0.431100803619    -0.000059925134    -0.002258705521    12.000000000000
         C           -0.253819196381    -1.215447925134    -0.002227705521    12.000000000000
         C           -0.253767196381     1.215413074866    -0.002260705521    12.000000000000
         C           -1.649518196381    -1.207555925134    -0.002196705521    12.000000000000
         C           -1.649438196381     1.207613074866    -0.002229705521    12.000000000000
         C           -2.350633196381     0.000035074866    -0.002198705521    12.000000000000
         H            0.300297803619    -2.149845925134    -0.002224705521     1.007825032230
         H            0.300480803619     2.149730074866    -0.002285705521     1.007825032230
         H           -2.187903196381    -2.152081925134    -0.002172705521     1.007825032230
         H           -2.187784196381     2.152162074866    -0.002230705521     1.007825032230
         H           -3.437466996381     0.000063474866     0.247824294479     1.007825032230

  Basis Set: AUG-CC-PVTZ
    Blend: AUG-CC-PVTZ
  Basis Set: (AUG-CC-PVTZ AUX)
    Blend: AUG-CC-PVTZ-JKFIT
	 Reference Energy          =    -689.7115096856873606 [Eh]
	 Singles Energy            =      -0.0000000000000000 [Eh]
	 Same-Spin Energy          =      -0.3207804696222450 [Eh]
	 Opposite-Spin Energy      =      -0.9815740109003892 [Eh]
	 Correlation Energy        =      -1.3023544805226344 [Eh]
	 Total Energy              =    -691.0138641662099417 [Eh]

	 ================> DF-SCS-MP2 Energies <==================
	-----------------------------------------------------------
	 SCS Same-Spin Scale       =       0.3333333333333333 [-]
	 SCS Opposite-Spin Scale   =       1.2000000000000000 [-]
	 SCS Same-Spin Energy      =      -0.1069268232074150 [Eh]
	 SCS Opposite-Spin Energy  =      -1.1778888130804670 [Eh]
	 SCS Correlation Energy    =      -1.2848156362878820 [Eh]
	 SCS Total Energy          =    -690.9963253219752914 [Eh]
	-----------------------------------------------------------

  Dipole Moment: [D]
     X:    -1.6497      Y:    -0.0000      Z:     0.1591     Total:     1.6574

*** Psi4 exiting successfully. Buy a developer a beer!
