                               Psi4 1.3.2 release

  ==> Input File <==

--------------------------------------------------------------------------
#psi4
#
memory 32 gb

molecule  {
0 1
 Cl        2.2526770     0.0000000    -0.0000490
  C        0.5109380    -0.0000600    -0.0000110
  C       -0.1739820    -1.2154480     0.0000200
  C       -0.1739300     1.2154130    -0.0000130
  C       -1.5696810    -1.2075560     0.0000510
  C       -1.5696010     1.2076130     0.0000180
  C       -2.2707960     0.0000350     0.0000490
  H        0.3801350    -2.1498460     0.0000230
  H        0.3803147     2.1497279    -0.1500380
  H       -2.1080660    -2.1520820     0.0000750
  H       -2.1079470     2.1521620     0.0000170
  H       -3.3576350     0.0000600     0.0000720
units angstrom
no_reorient  #important for SAPT in psi4, default
symmetry c1  #important for SAPT in psi4, default
}

set PROPERTIES_ORIGIN ["COM"]
properties('MP2/aug-cc-pvtz', properties = ['dipole'])
--------------------------------------------------------------------------

    Molecular point group: c1
  Charge       = 0
  Multiplicity = 1
  Basis Set: AUG-CC-PVTZ
    Blend: AUG-CC-PVTZ
  Basis Set: (AUG-CC-PVTZ AUX)
    Blend: AUG-CC-PVTZ-JKFIT

    Orbital Energies [Eh]
    ---------------------

    Doubly Occupied:

       1A   -104.842062     2A    -11.307085     3A    -11.254038
       4A    -11.253479     5A    -11.252446     6A    -11.252224
       7A    -11.248312     8A    -10.565896     9A     -8.032800
      10A     -8.030904    11A     -8.030896    12A     -1.189924
      13A     -1.119232    14A     -1.031520    15A     -0.996833
      16A     -0.845393    17A     -0.819944    18A     -0.709864
      19A     -0.647651    20A     -0.647414    21A     -0.602629
      22A     -0.589180    23A     -0.545004    24A     -0.516326
      25A     -0.511714    26A     -0.469997    27A     -0.455245
      28A     -0.352319    29A     -0.337134

  @DF-RHF Final Energy:  -689.71428903523099

   => Energetics <=

    Nuclear Repulsion Energy =            315.1533221687858486
    One-Electron Energy =               -1570.8202967201921183
    Two-Electron Energy =                 565.9526855161753929
    Total Energy =                       -689.7142890352309905
  Basis Set: (AUG-CC-PVTZ AUX)
    Blend: AUG-CC-PVTZ-RI
    Molecular point group: c1

    Geometry (in Angstrom), charge = 0, multiplicity = 1:

       Center              X                  Y                   Z               Mass
    ------------   -----------------  -----------------  -----------------  -----------------
         CL           2.172839880100     0.000000124354     0.001302413226    34.968852682000
         C            0.431100880100    -0.000059875646     0.001340413226    12.000000000000
         C           -0.253819119900    -1.215447875646     0.001371413226    12.000000000000
         C           -0.253767119900     1.215413124354     0.001338413226    12.000000000000
         C           -1.649518119900    -1.207555875646     0.001402413226    12.000000000000
         C           -1.649438119900     1.207613124354     0.001369413226    12.000000000000
         C           -2.350633119900     0.000035124354     0.001400413226    12.000000000000
         H            0.300297880100    -2.149845875646     0.001374413226     1.007825032230
         H            0.300477580100     2.149728024354    -0.148686586774     1.007825032230
         H           -2.187903119900    -2.152081875646     0.001426413226     1.007825032230
         H           -2.187784119900     2.152162124354     0.001368413226     1.007825032230
         H           -3.437472119900     0.000060124354     0.001423413226     1.007825032230

  Basis Set: AUG-CC-PVTZ
    Blend: AUG-CC-PVTZ
  Basis Set: (AUG-CC-PVTZ AUX)
    Blend: AUG-CC-PVTZ-JKFIT
	 Reference Energy          =    -689.7142890352309905 [Eh]
	 Singles Energy            =      -0.0000000000000000 [Eh]
	 Same-Spin Energy          =      -0.3206519927724646 [Eh]
	 Opposite-Spin Energy      =      -0.9811773513453261 [Eh]
	 Correlation Energy        =      -1.3018293441177908 [Eh]
	 Total Energy              =    -691.0161183793487680 [Eh]

	 ================> DF-SCS-MP2 Energies <==================
	-----------------------------------------------------------
	 SCS Same-Spin Scale       =       0.3333333333333333 [-]
	 SCS Opposite-Spin Scale   =       1.2000000000000000 [-]
	 SCS Same-Spin Energy      =      -0.1068839975908215 [Eh]
	 SCS Opposite-Spin Energy  =      -1.1774128216143913 [Eh]
	 SCS Correlation Energy    =      -1.2842968192052129 [Eh]
	 SCS Total Energy          =    -690.9985858544362145 [Eh]
	-----------------------------------------------------------

  Dipole Moment: [D]
     X:    -1.7147      Y:    -0.0143      Z:    -0.0949     Total:     1.7174

*** Psi4 exiting successfully. Buy a developer a beer!
