                               Psi4 1.3.2 release

  ==> Input File <==

--------------------------------------------------------------------------
#psi4
#
memory 32 gb

molecule  {
0 1
 Cl        2.2526770     0.0000000    -0.0000490
  C        0.5109380    -0.0000600    -0.0000110
  C       -0.1739820    -1.2154480     0.0000200
  C       -0.1739300     1.2154130    -0.0000130
  C       -1.5696810    -1.2075560     0.0000510
  C       -1.5696010     1.2076130     0.0000180
  C       -2.2707960     0.0000350     0.0000490
  H        0.3801350    -2.1498460     0.0000230
  H        0.3803180     2.1497300    -0.0000380
  H       -2.1080660    -2.1520820     0.0000750
  H       -2.1079525     2.1521587    -0.2499830
  H       -3.3576350     0.0000600     0.0000720
units angstrom
no_reorient  #important for SAPT in psi4, default
symmetry c1  #important for SAPT in psi4, default
}

set PROPERTIES_ORIGIN ["COM"]
properties('MP2/aug-cc-pvtz', properties = ['dipole'])
--------------------------------------------------------------------------

    Molecular point group: c1
  Charge       = 0
  Multiplicity = 1
  Basis Set: AUG-CC-PVTZ
    Blend: AUG-CC-PVTZ
  Basis Set: (AUG-CC-PVTZ AUX)
    Blend: AUG-CC-PVTZ-JKFIT

    Orbital Energies [Eh]
    ---------------------

    Doubly Occupied:

       1A   -104.842198     2A    -11.307106     3A    -11.255177
       4A    -11.253854     5A    -11.253226     6A    -11.252416
       7A    -11.248788     8A    -10.566036     9A     -8.032941
      10A     -8.031044    11A     -8.031036    12A     -1.190147
      13A     -1.119239    14A     -1.031342    15A     -0.996990
      16A     -0.844671    17A     -0.819420    18A     -0.709894
      19A     -0.647678    20A     -0.645480    21A     -0.601581
      22A     -0.589330    23A     -0.545394    24A     -0.515869
      25A     -0.511535    26A     -0.469392    27A     -0.455119
      28A     -0.352144    29A     -0.337241

  @DF-RHF Final Energy:  -689.71147464532794

   => Energetics <=

    Nuclear Repulsion Energy =            315.0896122046754613
    One-Electron Energy =               -1570.6895953451801233
    Two-Electron Energy =                 565.8885084951767794
    Total Energy =                       -689.7114746453279395
  Basis Set: (AUG-CC-PVTZ AUX)
    Blend: AUG-CC-PVTZ-RI
    Molecular point group: c1

    Geometry (in Angstrom), charge = 0, multiplicity = 1:

       Center              X                  Y                   Z               Mass
    ------------   -----------------  -----------------  -----------------  -----------------
         CL           2.172839899895     0.000000135151     0.002202192913    34.968852682000
         C            0.431100899895    -0.000059864849     0.002240192913    12.000000000000
         C           -0.253819100105    -1.215447864849     0.002271192913    12.000000000000
         C           -0.253767100105     1.215413135151     0.002238192913    12.000000000000
         C           -1.649518100105    -1.207555864849     0.002302192913    12.000000000000
         C           -1.649438100105     1.207613135151     0.002269192913    12.000000000000
         C           -2.350633100105     0.000035135151     0.002300192913    12.000000000000
         H            0.300297899895    -2.149845864849     0.002274192913     1.007825032230
         H            0.300480899895     2.149730135151     0.002213192913     1.007825032230
         H           -2.187903100105    -2.152081864849     0.002326192913     1.007825032230
         H           -2.187789600105     2.152158835151    -0.247731807087     1.007825032230
         H           -3.437472100105     0.000060135151     0.002323192913     1.007825032230

  Basis Set: AUG-CC-PVTZ
    Blend: AUG-CC-PVTZ
  Basis Set: (AUG-CC-PVTZ AUX)
    Blend: AUG-CC-PVTZ-JKFIT
	 Reference Energy          =    -689.7114746453279395 [Eh]
	 Singles Energy            =      -0.0000000000000000 [Eh]
	 Same-Spin Energy          =      -0.3207886541807237 [Eh]
	 Opposite-Spin Energy      =      -0.9815843625990839 [Eh]
	 Correlation Energy        =      -1.3023730167798075 [Eh]
	 Total Energy              =    -691.0138476621077643 [Eh]

	 ================> DF-SCS-MP2 Energies <==================
	-----------------------------------------------------------
	 SCS Same-Spin Scale       =       0.3333333333333333 [-]
	 SCS Opposite-Spin Scale   =       1.2000000000000000 [-]
	 SCS Same-Spin Energy      =      -0.1069295513935745 [Eh]
	 SCS Opposite-Spin Energy  =      -1.1779012351189007 [Eh]
	 SCS Correlation Energy    =      -1.2848307865124753 [Eh]
	 SCS Total Energy          =    -690.9963054318403692 [Eh]
	-----------------------------------------------------------

  Dipole Moment: [D]
     X:    -1.6805      Y:    -0.0437      Z:    -0.1533     Total:     1.6880

*** Psi4 exiting successfully. Buy a developer a beer!
