                               Psi4 1.3.2 release

  ==> Input File <==

--------------------------------------------------------------------------
#psi4
#
memory 32 gb

molecule  {
0 1
 Cl        2.2526770     0.0000000    -0.0000490
  C        0.5109380    -0.0000600    -0.0000110
  C       -0.1739820    -1.2154480     0.0000200
  C       -0.1739300     1.2154130    -0.0000130
  C       -1.5696810    -1.2075560     0.0000510
  C       -1.5696010     1.2076130     0.0000180
  C       -2.2707960     0.0000350     0.0000490
  H        0.3801350    -2.1498460     0.0000230
  H        0.3803158     2.1497286    -0.1000380
  H       -2.1080660    -2.1520820     0.0000750
  H       -2.1079470     2.1521620     0.0000170
  H       -3.3576350     0.0000600     0.0000720
units angstrom
no_reorient  #important for SAPT in psi4, default
symmetry c1  #important for SAPT in psi4, default
}

set PROPERTIES_ORIGIN ["COM"]
properties('MP2/aug-cc-pvtz', properties = ['dipole'])
--------------------------------------------------------------------------

    Molecular point group: c1
  Charge       = 0
  Multiplicity = 1
  Basis Set: AUG-CC-PVTZ
    Blend: AUG-CC-PVTZ
  Basis Set: (AUG-CC-PVTZ AUX)
    Blend: AUG-CC-PVTZ-JKFIT

    Orbital Energies [Eh]
    ---------------------

    Doubly Occupied:

       1A   -104.842056     2A    -11.306992     3A    -11.253650
       4A    -11.253414     5A    -11.252291     6A    -11.252127
       7A    -11.248278     8A    -10.565889     9A     -8.032793
      10A     -8.030898    11A     -8.030890    12A     -1.189914
      13A     -1.119196    14A     -1.031618    15A     -0.996846
      16A     -0.845606    17A     -0.820017    18A     -0.710279
      19A     -0.647920    20A     -0.647429    21A     -0.603003
      22A     -0.589249    23A     -0.544868    24A     -0.516770
      25A     -0.511853    26A     -0.470016    27A     -0.455247
      28A     -0.352370    29A     -0.337118

  @DF-RHF Final Energy:  -689.71509525937529

   => Energetics <=

    Nuclear Repulsion Energy =            315.1764852038504046
    One-Electron Energy =               -1570.8659676485315231
    Two-Electron Energy =                 565.9743871853057726
    Total Energy =                       -689.7150952593752891
  Basis Set: (AUG-CC-PVTZ AUX)
    Blend: AUG-CC-PVTZ-RI
    Molecular point group: c1

    Geometry (in Angstrom), charge = 0, multiplicity = 1:

       Center              X                  Y                   Z               Mass
    ------------   -----------------  -----------------  -----------------  -----------------
         CL           2.172839870202     0.000000118055     0.000852523383    34.968852682000
         C            0.431100870202    -0.000059881945     0.000890523383    12.000000000000
         C           -0.253819129798    -1.215447881945     0.000921523383    12.000000000000
         C           -0.253767129798     1.215413118055     0.000888523383    12.000000000000
         C           -1.649518129798    -1.207555881945     0.000952523383    12.000000000000
         C           -1.649438129798     1.207613118055     0.000919523383    12.000000000000
         C           -2.350633129798     0.000035118055     0.000950523383    12.000000000000
         H            0.300297870202    -2.149845881945     0.000924523383     1.007825032230
         H            0.300478670202     2.149728718055    -0.099136476617     1.007825032230
         H           -2.187903129798    -2.152081881945     0.000976523383     1.007825032230
         H           -2.187784129798     2.152162118055     0.000918523383     1.007825032230
         H           -3.437472129798     0.000060118055     0.000973523383     1.007825032230

  Basis Set: AUG-CC-PVTZ
    Blend: AUG-CC-PVTZ
  Basis Set: (AUG-CC-PVTZ AUX)
    Blend: AUG-CC-PVTZ-JKFIT
	 Reference Energy          =    -689.7150952593752891 [Eh]
	 Singles Energy            =      -0.0000000000000000 [Eh]
	 Same-Spin Energy          =      -0.3206049861340542 [Eh]
	 Opposite-Spin Energy      =      -0.9810744734302997 [Eh]
	 Correlation Energy        =      -1.3016794595643539 [Eh]
	 Total Energy              =    -691.0167747189395868 [Eh]

	 ================> DF-SCS-MP2 Energies <==================
	-----------------------------------------------------------
	 SCS Same-Spin Scale       =       0.3333333333333333 [-]
	 SCS Opposite-Spin Scale   =       1.2000000000000000 [-]
	 SCS Same-Spin Energy      =      -0.1068683287113514 [Eh]
	 SCS Opposite-Spin Energy  =      -1.1772893681163596 [Eh]
	 SCS Correlation Energy    =      -1.2841576968277111 [Eh]
	 SCS Total Energy          =    -690.9992529562030086 [Eh]
	-----------------------------------------------------------

  Dipole Moment: [D]
     X:    -1.7103      Y:    -0.0064      Z:    -0.0635     Total:     1.7115

*** Psi4 exiting successfully. Buy a developer a beer!
