                               Psi4 1.3.2 release

  ==> Input File <==

--------------------------------------------------------------------------
#psi4
#
memory 32 gb

molecule  {
0 1
 Cl        2.2526770     0.0000000    -0.0000490
  C        0.5109380    -0.0000600    -0.0000110
  C       -0.1739820    -1.2154480     0.0000200
  C       -0.1739300     1.2154130    -0.0000130
  C       -1.5696810    -1.2075560     0.0000510
  C       -1.5696010     1.2076130     0.0000180
  C       -2.2707960     0.0000350     0.0000490
  H        0.3801350    -2.1498460     0.0000230
  H        0.3803114     2.1497258    -0.3000380
  H       -2.1080660    -2.1520820     0.0000750
  H       -2.1079470     2.1521620     0.0000170
  H       -3.3576350     0.0000600     0.0000720
units angstrom
no_reorient  #important for SAPT in psi4, default
symmetry c1  #important for SAPT in psi4, default
}

set PROPERTIES_ORIGIN ["COM"]
properties('MP2/aug-cc-pvtz', properties = ['dipole'])
--------------------------------------------------------------------------

    Molecular point group: c1
  Charge       = 0
  Multiplicity = 1
  Basis Set: AUG-CC-PVTZ
    Blend: AUG-CC-PVTZ
  Basis Set: (AUG-CC-PVTZ AUX)
    Blend: AUG-CC-PVTZ-JKFIT

    Orbital Energies [Eh]
    ---------------------

    Doubly Occupied:

       1A   -104.842091     2A    -11.307596     3A    -11.256323
       4A    -11.253877     5A    -11.253092     6A    -11.252653
       7A    -11.248501     8A    -10.565932     9A     -8.032834
      10A     -8.030938    11A     -8.030927    12A     -1.189990
      13A     -1.119429    14A     -1.031066    15A     -0.996788
      16A     -0.844400    17A     -0.819584    18A     -0.707898
      19A     -0.647733    20A     -0.645935    21A     -0.600701
      22A     -0.588688    23A     -0.545679    24A     -0.514746
      25A     -0.510155    26A     -0.469896    27A     -0.455239
      28A     -0.352074    29A     -0.337228

  @DF-RHF Final Energy:  -689.70949497868457

   => Energetics <=

    Nuclear Repulsion Energy =            315.0325593199017931
    One-Electron Energy =               -1570.5801193078418692
    Two-Electron Energy =                 565.8380650092555015
    Total Energy =                       -689.7094949786845746
  Basis Set: (AUG-CC-PVTZ AUX)
    Blend: AUG-CC-PVTZ-RI
    Molecular point group: c1

    Geometry (in Angstrom), charge = 0, multiplicity = 1:

       Center              X                  Y                   Z               Mass
    ------------   -----------------  -----------------  -----------------  -----------------
         CL           2.172839909793     0.000000143249     0.002652082756    34.968852682000
         C            0.431100909793    -0.000059856751     0.002690082756    12.000000000000
         C           -0.253819090207    -1.215447856751     0.002721082756    12.000000000000
         C           -0.253767090207     1.215413143249     0.002688082756    12.000000000000
         C           -1.649518090207    -1.207555856751     0.002752082756    12.000000000000
         C           -1.649438090207     1.207613143249     0.002719082756    12.000000000000
         C           -2.350633090207     0.000035143249     0.002750082756    12.000000000000
         H            0.300297909793    -2.149845856751     0.002724082756     1.007825032230
         H            0.300474309793     2.149725943249    -0.297336917244     1.007825032230
         H           -2.187903090207    -2.152081856751     0.002776082756     1.007825032230
         H           -2.187784090207     2.152162143249     0.002718082756     1.007825032230
         H           -3.437472090207     0.000060143249     0.002773082756     1.007825032230

  Basis Set: AUG-CC-PVTZ
    Blend: AUG-CC-PVTZ
  Basis Set: (AUG-CC-PVTZ AUX)
    Blend: AUG-CC-PVTZ-JKFIT
	 Reference Energy          =    -689.7094949786845746 [Eh]
	 Singles Energy            =      -0.0000000000000000 [Eh]
	 Same-Spin Energy          =      -0.3209002733671164 [Eh]
	 Opposite-Spin Energy      =      -0.9817708963372046 [Eh]
	 Correlation Energy        =      -1.3026711697043210 [Eh]
	 Total Energy              =    -691.0121661483889284 [Eh]

	 ================> DF-SCS-MP2 Energies <==================
	-----------------------------------------------------------
	 SCS Same-Spin Scale       =       0.3333333333333333 [-]
	 SCS Opposite-Spin Scale   =       1.2000000000000000 [-]
	 SCS Same-Spin Energy      =      -0.1069667577890388 [Eh]
	 SCS Opposite-Spin Energy  =      -1.1781250756046455 [Eh]
	 SCS Correlation Energy    =      -1.2850918333936843 [Eh]
	 SCS Total Energy          =    -690.9945868120782961 [Eh]
	-----------------------------------------------------------

  Dipole Moment: [D]
     X:    -1.7381      Y:    -0.0559      Z:    -0.1868     Total:     1.7490

*** Psi4 exiting successfully. Buy a developer a beer!
