                               Psi4 1.3.2 release

  ==> Input File <==

--------------------------------------------------------------------------
#psi4
#
memory 32 gb

molecule  {
0 1
 Cl        2.2526770     0.0000000    -0.0000490
  C        0.5109380    -0.0000600    -0.0000110
  C       -0.1739820    -1.2154480     0.0000200
  C       -0.1739300     1.2154130    -0.0000130
  C       -1.5696810    -1.2075560     0.0000510
  C       -1.5696010     1.2076130     0.0000180
  C       -2.2707960     0.0000350     0.0000490
  H        0.3801350    -2.1498460     0.0000230
  H        0.3803180     2.1497300    -0.0000380
  H       -2.1080660    -2.1520820     0.0000750
  H       -2.1079470     2.1521620     0.0000170
  H       -3.3576287     0.0000641     0.3000720
units angstrom
no_reorient  #important for SAPT in psi4, default
symmetry c1  #important for SAPT in psi4, default
}

set PROPERTIES_ORIGIN ["COM"]
properties('MP2/aug-cc-pvtz', properties = ['dipole'])
--------------------------------------------------------------------------

    Molecular point group: c1
  Charge       = 0
  Multiplicity = 1
  Basis Set: AUG-CC-PVTZ
    Blend: AUG-CC-PVTZ
  Basis Set: (AUG-CC-PVTZ AUX)
    Blend: AUG-CC-PVTZ-JKFIT

    Orbital Energies [Eh]
    ---------------------

    Doubly Occupied:

       1A   -104.842633     2A    -11.307806     3A    -11.253957
       4A    -11.253805     5A    -11.252862     6A    -11.252570
       7A    -11.251406     8A    -10.566464     9A     -8.033367
      10A     -8.031469    11A     -8.031464    12A     -1.190390
      13A     -1.119314    14A     -1.032142    15A     -0.995838
      16A     -0.846158    17A     -0.818331    18A     -0.706435
      19A     -0.647783    20A     -0.647684    21A     -0.603682
      22A     -0.585598    23A     -0.545304    24A     -0.517560
      25A     -0.509850    26A     -0.468248    27A     -0.455763
      28A     -0.352795    29A     -0.336787

  @DF-RHF Final Energy:  -689.70946645143920

   => Energetics <=

    Nuclear Repulsion Energy =            315.0462771633763168
    One-Electron Energy =               -1570.5965523202821714
    Two-Electron Energy =                 565.8408087054666566
    Total Energy =                       -689.7094664514391980
  Basis Set: (AUG-CC-PVTZ AUX)
    Blend: AUG-CC-PVTZ-RI
    Molecular point group: c1

    Geometry (in Angstrom), charge = 0, multiplicity = 1:

       Center              X                  Y                   Z               Mass
    ------------   -----------------  -----------------  -----------------  -----------------
         CL           2.172839793721     0.000000068568    -0.002746595365    34.968852682000
         C            0.431100793721    -0.000059931432    -0.002708595365    12.000000000000
         C           -0.253819206279    -1.215447931432    -0.002677595365    12.000000000000
         C           -0.253767206279     1.215413068568    -0.002710595365    12.000000000000
         C           -1.649518206279    -1.207555931432    -0.002646595365    12.000000000000
         C           -1.649438206279     1.207613068568    -0.002679595365    12.000000000000
         C           -2.350633206279     0.000035068568    -0.002648595365    12.000000000000
         H            0.300297793721    -2.149845931432    -0.002674595365     1.007825032230
         H            0.300480793721     2.149730068568    -0.002735595365     1.007825032230
         H           -2.187903206279    -2.152081931432    -0.002622595365     1.007825032230
         H           -2.187784206279     2.152162068568    -0.002680595365     1.007825032230
         H           -3.437465906279     0.000064168568     0.297374404635     1.007825032230

  Basis Set: AUG-CC-PVTZ
    Blend: AUG-CC-PVTZ
  Basis Set: (AUG-CC-PVTZ AUX)
    Blend: AUG-CC-PVTZ-JKFIT
	 Reference Energy          =    -689.7094664514391980 [Eh]
	 Singles Energy            =      -0.0000000000000000 [Eh]
	 Same-Spin Energy          =      -0.3208702122419613 [Eh]
	 Opposite-Spin Energy      =      -0.9818296463656927 [Eh]
	 Correlation Energy        =      -1.3026998586076539 [Eh]
	 Total Energy              =    -691.0121663100468368 [Eh]

	 ================> DF-SCS-MP2 Energies <==================
	-----------------------------------------------------------
	 SCS Same-Spin Scale       =       0.3333333333333333 [-]
	 SCS Opposite-Spin Scale   =       1.2000000000000000 [-]
	 SCS Same-Spin Energy      =      -0.1069567374139871 [Eh]
	 SCS Opposite-Spin Energy  =      -1.1781955756388311 [Eh]
	 SCS Correlation Energy    =      -1.2851523130528182 [Eh]
	 SCS Total Energy          =    -690.9946187644919746 [Eh]
	-----------------------------------------------------------

  Dipole Moment: [D]
     X:    -1.6253      Y:    -0.0000      Z:     0.1894     Total:     1.6363

*** Psi4 exiting successfully. Buy a developer a beer!
