                               Psi4 1.3.2 release

  ==> Input File <==

--------------------------------------------------------------------------
#psi4
#
memory 32 gb

molecule  {
0 1
 Cl        2.2526770     0.0000000    -0.0000490
  C        0.5109380    -0.0000600    -0.0000110
  C       -0.1739820    -1.2154480     0.0000200
  C       -0.1739300     1.2154130    -0.0000130
  C       -1.5696810    -1.2075560     0.0000510
  C       -1.5696010     1.2076130     0.0000180
  C       -2.2707960     0.0000350     0.0000490
  H        0.3801350    -2.1498460     0.0000230
  H        0.3803180     2.1497300    -0.0000380
  H       -2.1080660    -2.1520820     0.0000750
  H       -2.1079492     2.1521607    -0.0999830
  H       -3.3576350     0.0000600     0.0000720
units angstrom
no_reorient  #important for SAPT in psi4, default
symmetry c1  #important for SAPT in psi4, default
}

set PROPERTIES_ORIGIN ["COM"]
properties('MP2/aug-cc-pvtz', properties = ['dipole'])
--------------------------------------------------------------------------

    Molecular point group: c1
  Charge       = 0
  Multiplicity = 1
  Basis Set: AUG-CC-PVTZ
    Blend: AUG-CC-PVTZ
  Basis Set: (AUG-CC-PVTZ AUX)
    Blend: AUG-CC-PVTZ-JKFIT

    Orbital Energies [Eh]
    ---------------------

    Doubly Occupied:

       1A   -104.842074     2A    -11.306945     3A    -11.253569
       4A    -11.253438     5A    -11.252377     6A    -11.252131
       7A    -11.248337     8A    -10.565907     9A     -8.032811
      10A     -8.030915    11A     -8.030908    12A     -1.189944
      13A     -1.119176    14A     -1.031634    15A     -0.996875
      16A     -0.845584    17A     -0.819967    18A     -0.710489
      19A     -0.647728    20A     -0.647438    21A     -0.603032
      22A     -0.589308    23A     -0.544863    24A     -0.516915
      25A     -0.511902    26A     -0.469925    27A     -0.455230
      28A     -0.352365    29A     -0.337126

  @DF-RHF Final Energy:  -689.71508673162464

   => Energetics <=

    Nuclear Repulsion Energy =            315.1778863627981764
    One-Electron Energy =               -1570.8681186753724432
    Two-Electron Energy =                 565.9751455809495155
    Total Energy =                       -689.7150867316246377
  Basis Set: (AUG-CC-PVTZ AUX)
    Blend: AUG-CC-PVTZ-RI
    Molecular point group: c1

    Geometry (in Angstrom), charge = 0, multiplicity = 1:

       Center              X                  Y                   Z               Mass
    ------------   -----------------  -----------------  -----------------  -----------------
         CL           2.172839870202     0.000000117156     0.000852523383    34.968852682000
         C            0.431100870202    -0.000059882844     0.000890523383    12.000000000000
         C           -0.253819129798    -1.215447882844     0.000921523383    12.000000000000
         C           -0.253767129798     1.215413117156     0.000888523383    12.000000000000
         C           -1.649518129798    -1.207555882844     0.000952523383    12.000000000000
         C           -1.649438129798     1.207613117156     0.000919523383    12.000000000000
         C           -2.350633129798     0.000035117156     0.000950523383    12.000000000000
         H            0.300297870202    -2.149845882844     0.000924523383     1.007825032230
         H            0.300480870202     2.149730117156     0.000863523383     1.007825032230
         H           -2.187903129798    -2.152081882844     0.000976523383     1.007825032230
         H           -2.187786329798     2.152160817156    -0.099081476617     1.007825032230
         H           -3.437472129798     0.000060117156     0.000973523383     1.007825032230

  Basis Set: AUG-CC-PVTZ
    Blend: AUG-CC-PVTZ
  Basis Set: (AUG-CC-PVTZ AUX)
    Blend: AUG-CC-PVTZ-JKFIT
	 Reference Energy          =    -689.7150867316246377 [Eh]
	 Singles Energy            =      -0.0000000000000000 [Eh]
	 Same-Spin Energy          =      -0.3206038056409978 [Eh]
	 Opposite-Spin Energy      =      -0.9810880305883433 [Eh]
	 Correlation Energy        =      -1.3016918362293410 [Eh]
	 Total Energy              =    -691.0167785678539758 [Eh]

	 ================> DF-SCS-MP2 Energies <==================
	-----------------------------------------------------------
	 SCS Same-Spin Scale       =       0.3333333333333333 [-]
	 SCS Opposite-Spin Scale   =       1.2000000000000000 [-]
	 SCS Same-Spin Energy      =      -0.1068679352136659 [Eh]
	 SCS Opposite-Spin Energy  =      -1.1773056367060120 [Eh]
	 SCS Correlation Energy    =      -1.2841735719196778 [Eh]
	 SCS Total Energy          =    -690.9992603035443608 [Eh]
	-----------------------------------------------------------

  Dipole Moment: [D]
     X:    -1.7024      Y:    -0.0072      Z:    -0.0621     Total:     1.7036

*** Psi4 exiting successfully. Buy a developer a beer!
