                               Psi4 1.3.2 release

  ==> Input File <==

--------------------------------------------------------------------------
#psi4
#
memory 32 gb

molecule  {
0 1
 Cl        2.2526770     0.0000000    -0.0000490
  C        0.5109380    -0.0000600    -0.0000110
  C       -0.1739820    -1.2154480     0.0000200
  C       -0.1739300     1.2154130    -0.0000130
  C       -1.5696810    -1.2075560     0.0000510
  C       -1.5696010     1.2076130     0.0000180
  C       -2.2707960     0.0000350     0.0000490
  H        0.3801350    -2.1498460     0.0000230
  H        0.3803125     2.1497265    -0.2500380
  H       -2.1080660    -2.1520820     0.0000750
  H       -2.1079470     2.1521620     0.0000170
  H       -3.3576350     0.0000600     0.0000720
units angstrom
no_reorient  #important for SAPT in psi4, default
symmetry c1  #important for SAPT in psi4, default
}

set PROPERTIES_ORIGIN ["COM"]
properties('MP2/aug-cc-pvtz', properties = ['dipole'])
--------------------------------------------------------------------------

    Molecular point group: c1
  Charge       = 0
  Multiplicity = 1
  Basis Set: AUG-CC-PVTZ
    Blend: AUG-CC-PVTZ
  Basis Set: (AUG-CC-PVTZ AUX)
    Blend: AUG-CC-PVTZ-JKFIT

    Orbital Energies [Eh]
    ---------------------

    Doubly Occupied:

       1A   -104.842079     2A    -11.307387     3A    -11.255379
       4A    -11.253705     5A    -11.252851     6A    -11.252490
       7A    -11.248422     8A    -10.565917     9A     -8.032820
      10A     -8.030925    11A     -8.030914    12A     -1.189961
      13A     -1.119348    14A     -1.031238    15A     -0.996803
      16A     -0.844775    17A     -0.819724    18A     -0.708647
      19A     -0.647643    20A     -0.646566    21A     -0.601464
      22A     -0.588916    23A     -0.545414    24A     -0.515211
      25A     -0.510969    26A     -0.469938    27A     -0.455240
      28A     -0.352168    29A     -0.337188

  @DF-RHF Final Energy:  -689.71153025548290

   => Energetics <=

    Nuclear Repulsion Energy =            315.0809082184560452
    One-Electron Energy =               -1570.6766700387756828
    Two-Electron Energy =                 565.8842315648367958
    Total Energy =                       -689.7115302554828986
  Basis Set: (AUG-CC-PVTZ AUX)
    Blend: AUG-CC-PVTZ-RI
    Molecular point group: c1

    Geometry (in Angstrom), charge = 0, multiplicity = 1:

       Center              X                  Y                   Z               Mass
    ------------   -----------------  -----------------  -----------------  -----------------
         CL           2.172839899895     0.000000136951     0.002202192913    34.968852682000
         C            0.431100899895    -0.000059863049     0.002240192913    12.000000000000
         C           -0.253819100105    -1.215447863049     0.002271192913    12.000000000000
         C           -0.253767100105     1.215413136951     0.002238192913    12.000000000000
         C           -1.649518100105    -1.207555863049     0.002302192913    12.000000000000
         C           -1.649438100105     1.207613136951     0.002269192913    12.000000000000
         C           -2.350633100105     0.000035136951     0.002300192913    12.000000000000
         H            0.300297899895    -2.149845863049     0.002274192913     1.007825032230
         H            0.300475399895     2.149726636951    -0.247786807087     1.007825032230
         H           -2.187903100105    -2.152081863049     0.002326192913     1.007825032230
         H           -2.187784100105     2.152162136951     0.002268192913     1.007825032230
         H           -3.437472100105     0.000060136951     0.002323192913     1.007825032230

  Basis Set: AUG-CC-PVTZ
    Blend: AUG-CC-PVTZ
  Basis Set: (AUG-CC-PVTZ AUX)
    Blend: AUG-CC-PVTZ-JKFIT
	 Reference Energy          =    -689.7115302554828986 [Eh]
	 Singles Energy            =      -0.0000000000000000 [Eh]
	 Same-Spin Energy          =      -0.3208004769746878 [Eh]
	 Opposite-Spin Energy      =      -0.9815243141941361 [Eh]
	 Correlation Energy        =      -1.3023247911688238 [Eh]
	 Total Energy              =    -691.0138550466517700 [Eh]

	 ================> DF-SCS-MP2 Energies <==================
	-----------------------------------------------------------
	 SCS Same-Spin Scale       =       0.3333333333333333 [-]
	 SCS Opposite-Spin Scale   =       1.2000000000000000 [-]
	 SCS Same-Spin Energy      =      -0.1069334923248959 [Eh]
	 SCS Opposite-Spin Energy  =      -1.1778291770329632 [Eh]
	 SCS Correlation Energy    =      -1.2847626693578591 [Eh]
	 SCS Total Energy          =    -690.9962929248407590 [Eh]
	-----------------------------------------------------------

  Dipole Moment: [D]
     X:    -1.7287      Y:    -0.0392      Z:    -0.1567     Total:     1.7362

*** Psi4 exiting successfully. Buy a developer a beer!
