                               Psi4 1.3.2 release

  ==> Input File <==

--------------------------------------------------------------------------
#psi4
#
memory 32 gb

molecule  {
0 1
 Cl        2.2526770     0.0000000    -0.0000490
  C        0.5109380    -0.0000600    -0.0000110
  C       -0.1739820    -1.2154480     0.0000200
  C       -0.1739300     1.2154130    -0.0000130
  C       -1.5696810    -1.2075560     0.0000510
  C       -1.5696010     1.2076130     0.0000180
  C       -2.2707960     0.0000350     0.0000490
  H        0.3801350    -2.1498460     0.0000230
  H        0.3803180     2.1497300    -0.0000380
  H       -2.1080660    -2.1520820     0.0000750
  H       -2.1079536     2.1521580    -0.2999830
  H       -3.3576350     0.0000600     0.0000720
units angstrom
no_reorient  #important for SAPT in psi4, default
symmetry c1  #important for SAPT in psi4, default
}

set PROPERTIES_ORIGIN ["COM"]
properties('MP2/aug-cc-pvtz', properties = ['dipole'])
--------------------------------------------------------------------------

    Molecular point group: c1
  Charge       = 0
  Multiplicity = 1
  Basis Set: AUG-CC-PVTZ
    Blend: AUG-CC-PVTZ
  Basis Set: (AUG-CC-PVTZ AUX)
    Blend: AUG-CC-PVTZ-JKFIT

    Orbital Energies [Eh]
    ---------------------

    Doubly Occupied:

       1A   -104.842267     2A    -11.307195     3A    -11.256165
       4A    -11.254082     5A    -11.253514     6A    -11.252553
       7A    -11.249023     8A    -10.566107     9A     -8.033012
      10A     -8.031115    11A     -8.031107    12A     -1.190258
      13A     -1.119280    14A     -1.031213    15A     -0.997058
      16A     -0.844269    17A     -0.819148    18A     -0.709641
      19A     -0.647799    20A     -0.644418    21A     -0.600815
      22A     -0.589320    23A     -0.545657    24A     -0.515474
      25A     -0.511192    26A     -0.469123    27A     -0.455052
      28A     -0.352043    29A     -0.337304

  @DF-RHF Final Energy:  -689.70941667281761

   => Energetics <=

    Nuclear Repulsion Energy =            315.0450528905905117
    One-Electron Energy =               -1570.5985349709442289
    Two-Electron Energy =                 565.8440654075360499
    Total Energy =                       -689.7094166728176106
  Basis Set: (AUG-CC-PVTZ AUX)
    Blend: AUG-CC-PVTZ-RI
    Molecular point group: c1

    Geometry (in Angstrom), charge = 0, multiplicity = 1:

       Center              X                  Y                   Z               Mass
    ------------   -----------------  -----------------  -----------------  -----------------
         CL           2.172839909793     0.000000141450     0.002652082756    34.968852682000
         C            0.431100909793    -0.000059858550     0.002690082756    12.000000000000
         C           -0.253819090207    -1.215447858550     0.002721082756    12.000000000000
         C           -0.253767090207     1.215413141450     0.002688082756    12.000000000000
         C           -1.649518090207    -1.207555858550     0.002752082756    12.000000000000
         C           -1.649438090207     1.207613141450     0.002719082756    12.000000000000
         C           -2.350633090207     0.000035141450     0.002750082756    12.000000000000
         H            0.300297909793    -2.149845858550     0.002724082756     1.007825032230
         H            0.300480909793     2.149730141450     0.002663082756     1.007825032230
         H           -2.187903090207    -2.152081858550     0.002776082756     1.007825032230
         H           -2.187790690207     2.152158141450    -0.297281917244     1.007825032230
         H           -3.437472090207     0.000060141450     0.002773082756     1.007825032230

  Basis Set: AUG-CC-PVTZ
    Blend: AUG-CC-PVTZ
  Basis Set: (AUG-CC-PVTZ AUX)
    Blend: AUG-CC-PVTZ-JKFIT
	 Reference Energy          =    -689.7094166728176106 [Eh]
	 Singles Energy            =      -0.0000000000000000 [Eh]
	 Same-Spin Energy          =      -0.3208819601110157 [Eh]
	 Opposite-Spin Energy      =      -0.9818465901922789 [Eh]
	 Correlation Energy        =      -1.3027285503032946 [Eh]
	 Total Energy              =    -691.0121452231209105 [Eh]

	 ================> DF-SCS-MP2 Energies <==================
	-----------------------------------------------------------
	 SCS Same-Spin Scale       =       0.3333333333333333 [-]
	 SCS Opposite-Spin Scale   =       1.2000000000000000 [-]
	 SCS Same-Spin Energy      =      -0.1069606533703386 [Eh]
	 SCS Opposite-Spin Energy  =      -1.1782159082307346 [Eh]
	 SCS Correlation Energy    =      -1.2851765616010731 [Eh]
	 SCS Total Energy          =    -690.9945932344186303 [Eh]
	-----------------------------------------------------------

  Dipole Moment: [D]
     X:    -1.6692      Y:    -0.0625      Z:    -0.1827     Total:     1.6803

*** Psi4 exiting successfully. Buy a developer a beer!
