                               Psi4 1.3.2 release

  ==> Input File <==

--------------------------------------------------------------------------
#psi4
#
memory 32 gb

molecule  {
0 1
  O       -2.0737200     1.2628680    -0.4915300
  O        2.0737210    -1.2628680    -0.4915300
  N       -2.9762380    -0.6534170     0.3462040
  N        2.9762380     0.6534180     0.3462030
  C       -0.5497156    -0.4798989     0.2305891
  C        0.5555480     0.5175670     0.1381410
  C       -1.9182850     0.1263550    -0.0446340
  C        1.9182850    -0.1263550    -0.0446340
  H       -0.3806750    -1.2252780    -0.6804370
  H       -0.5383610    -1.1077740     1.0609210
  H        0.3806750     1.2252800    -0.6804340
  H        0.5383600     1.1077700     1.0609240
  H       -2.8543230    -1.6451260     0.4957240
  H       -3.8970040    -0.3356840     0.0715640
  H        2.8543220     1.6451260     0.4957230
  H        3.8970030     0.3356850     0.0715640
units angstrom
no_reorient  #important for SAPT in psi4, default
symmetry c1  #important for SAPT in psi4, default
}

set PROPERTIES_ORIGIN ["COM"]
properties('MP2/aug-cc-pvtz', properties = ['dipole'])
--------------------------------------------------------------------------

    Molecular point group: c1
  Charge       = 0
  Multiplicity = 1
  Basis Set: AUG-CC-PVTZ
    Blend: AUG-CC-PVTZ
  Basis Set: (AUG-CC-PVTZ AUX)
    Blend: AUG-CC-PVTZ-JKFIT

    Orbital Energies [Eh]
    ---------------------

    Doubly Occupied:

       1A    -20.527441     2A    -20.526248     3A    -15.590930
       4A    -15.590094     5A    -11.360698     6A    -11.360670
       7A    -11.249380     8A    -11.246711     9A     -1.381228
      10A     -1.378956    11A     -1.214554    12A     -1.213818
      13A     -1.080173    14A     -0.936950    15A     -0.807849
      16A     -0.776097    17A     -0.725328    18A     -0.724036
      19A     -0.681671    20A     -0.674289    21A     -0.633088
      22A     -0.609082    23A     -0.584695    24A     -0.566792
      25A     -0.555176    26A     -0.523779    27A     -0.482949
      28A     -0.433883    29A     -0.431726    30A     -0.422879
      31A     -0.420205

  @DF-RHF Final Energy:  -414.94958860717225

   => Energetics <=

    Nuclear Repulsion Energy =            365.9100223548603594
    One-Electron Energy =               -1292.2964748251588389
    Two-Electron Energy =                 511.4368638631262911
    Total Energy =                       -414.9495886071722452
  Basis Set: (AUG-CC-PVTZ AUX)
    Blend: AUG-CC-PVTZ-RI
    Molecular point group: c1

    Geometry (in Angstrom), charge = 0, multiplicity = 1:

       Center              X                  Y                   Z               Mass
    ------------   -----------------  -----------------  -----------------  -----------------
         O           -2.074323158965     1.258973154785    -0.484945330533    15.994914619570
         O            2.073117841035    -1.266762845215    -0.484945330533    15.994914619570
         N           -2.976841158965    -0.657311845215     0.352788669467    14.003074004430
         N            2.975634841035     0.649523154785     0.352787669467    14.003074004430
         C           -0.550318758965    -0.483793745215     0.237173769467    12.000000000000
         C            0.554944841035     0.513672154785     0.144725669467    12.000000000000
         C           -1.918888158965     0.122460154785    -0.038049330533    12.000000000000
         C            1.917681841035    -0.130249845215    -0.038049330533    12.000000000000
         H           -0.381278158965    -1.229172845215    -0.673852330533     1.007825032230
         H           -0.538964158965    -1.111668845215     1.067505669467     1.007825032230
         H            0.380071841035     1.221385154785    -0.673849330533     1.007825032230
         H            0.537756841035     1.103875154785     1.067508669467     1.007825032230
         H           -2.854926158965    -1.649020845215     0.502308669467     1.007825032230
         H           -3.897607158965    -0.339578845215     0.078148669467     1.007825032230
         H            2.853718841035     1.641231154785     0.502307669467     1.007825032230
         H            3.896399841035     0.331790154785     0.078148669467     1.007825032230

  Basis Set: AUG-CC-PVTZ
    Blend: AUG-CC-PVTZ
  Basis Set: (AUG-CC-PVTZ AUX)
    Blend: AUG-CC-PVTZ-JKFIT
	 Reference Energy          =    -414.9495886071722452 [Eh]
	 Singles Energy            =      -0.0000000000000000 [Eh]
	 Same-Spin Energy          =      -0.4151223077225989 [Eh]
	 Opposite-Spin Energy      =      -1.2911837660380172 [Eh]
	 Correlation Energy        =      -1.7063060737606162 [Eh]
	 Total Energy              =    -416.6558946809328745 [Eh]

	 ================> DF-SCS-MP2 Energies <==================
	-----------------------------------------------------------
	 SCS Same-Spin Scale       =       0.3333333333333333 [-]
	 SCS Opposite-Spin Scale   =       1.2000000000000000 [-]
	 SCS Same-Spin Energy      =      -0.1383741025741996 [Eh]
	 SCS Opposite-Spin Energy  =      -1.5494205192456205 [Eh]
	 SCS Correlation Energy    =      -1.6877946218198201 [Eh]
	 SCS Total Energy          =    -416.6373832289920642 [Eh]
	-----------------------------------------------------------

  Dipole Moment: [D]
     X:     0.0584      Y:    -0.0032      Z:     1.6163     Total:     1.6174

*** Psi4 exiting successfully. Buy a developer a beer!
