                               Psi4 1.3.2 release

  ==> Input File <==

--------------------------------------------------------------------------
#psi4
#
memory 32 gb

molecule  {
0 1
  O       -2.0737200     1.2628680    -0.4915300
  O        2.0737210    -1.2628680    -0.4915300
  N       -2.9762380    -0.6534170     0.3462040
  N        2.9762380     0.6534180     0.3462030
  C       -0.5409671    -0.4233952     0.3692642
  C        0.5555480     0.5175670     0.1381410
  C       -1.9182850     0.1263550    -0.0446340
  C        1.9182850    -0.1263550    -0.0446340
  H       -0.3806750    -1.2252780    -0.6804370
  H       -0.5383610    -1.1077740     1.0609210
  H        0.3806750     1.2252800    -0.6804340
  H        0.5383600     1.1077700     1.0609240
  H       -2.8543230    -1.6451260     0.4957240
  H       -3.8970040    -0.3356840     0.0715640
  H        2.8543220     1.6451260     0.4957230
  H        3.8970030     0.3356850     0.0715640
units angstrom
no_reorient  #important for SAPT in psi4, default
symmetry c1  #important for SAPT in psi4, default
}

set PROPERTIES_ORIGIN ["COM"]
properties('MP2/aug-cc-pvtz', properties = ['dipole'])
--------------------------------------------------------------------------

    Molecular point group: c1
  Charge       = 0
  Multiplicity = 1
  Basis Set: AUG-CC-PVTZ
    Blend: AUG-CC-PVTZ
  Basis Set: (AUG-CC-PVTZ AUX)
    Blend: AUG-CC-PVTZ-JKFIT

    Orbital Energies [Eh]
    ---------------------

    Doubly Occupied:

       1A    -20.528634     2A    -20.525927     3A    -15.592079
       4A    -15.589603     5A    -11.364289     6A    -11.362149
       7A    -11.256843     8A    -11.248512     9A     -1.381859
      10A     -1.378996    11A     -1.215574    12A     -1.213386
      13A     -1.087057    14A     -0.936819    15A     -0.809705
      16A     -0.780783    17A     -0.731184    18A     -0.726126
      19A     -0.682547    20A     -0.675144    21A     -0.630160
      22A     -0.608998    23A     -0.596185    24A     -0.572133
      25A     -0.556664    26A     -0.528551    27A     -0.451217
      28A     -0.434414    29A     -0.423859    30A     -0.423105
      31A     -0.420812

  @DF-RHF Final Energy:  -414.90561843025591

   => Energetics <=

    Nuclear Repulsion Energy =            365.8061823514635762
    One-Electron Energy =               -1291.9569697182221262
    Two-Electron Energy =                 511.2451689365026368
    Total Energy =                       -414.9056184302559132
  Basis Set: (AUG-CC-PVTZ AUX)
    Blend: AUG-CC-PVTZ-RI
    Molecular point group: c1

    Geometry (in Angstrom), charge = 0, multiplicity = 1:

       Center              X                  Y                   Z               Mass
    ------------   -----------------  -----------------  -----------------  -----------------
         O           -2.075227719422     1.253130894656    -0.499283789919    15.994914619570
         O            2.072213280578    -1.272605105344    -0.499283789919    15.994914619570
         N           -2.977745719422    -0.663154105344     0.338450210081    14.003074004430
         N            2.974730280578     0.643680894656     0.338449210081    14.003074004430
         C           -0.542474819422    -0.433132305344     0.361510410081    12.000000000000
         C            0.554040280578     0.507829894656     0.130387210081    12.000000000000
         C           -1.919792719422     0.116617894656    -0.052387789919    12.000000000000
         C            1.916777280578    -0.136092105344    -0.052387789919    12.000000000000
         H           -0.382182719422    -1.235015105344    -0.688190789919     1.007825032230
         H           -0.539868719422    -1.117511105344     1.053167210081     1.007825032230
         H            0.379167280578     1.215542894656    -0.688187789919     1.007825032230
         H            0.536852280578     1.098032894656     1.053170210081     1.007825032230
         H           -2.855830719422    -1.654863105344     0.487970210081     1.007825032230
         H           -3.898511719422    -0.345421105344     0.063810210081     1.007825032230
         H            2.852814280578     1.635388894656     0.487969210081     1.007825032230
         H            3.895495280578     0.325947894656     0.063810210081     1.007825032230

  Basis Set: AUG-CC-PVTZ
    Blend: AUG-CC-PVTZ
  Basis Set: (AUG-CC-PVTZ AUX)
    Blend: AUG-CC-PVTZ-JKFIT
	 Reference Energy          =    -414.9056184302559132 [Eh]
	 Singles Energy            =      -0.0000000000000000 [Eh]
	 Same-Spin Energy          =      -0.4165636391318034 [Eh]
	 Opposite-Spin Energy      =      -1.2942499081169689 [Eh]
	 Correlation Energy        =      -1.7108135472487724 [Eh]
	 Total Energy              =    -416.6164319775047034 [Eh]

	 ================> DF-SCS-MP2 Energies <==================
	-----------------------------------------------------------
	 SCS Same-Spin Scale       =       0.3333333333333333 [-]
	 SCS Opposite-Spin Scale   =       1.2000000000000000 [-]
	 SCS Same-Spin Energy      =      -0.1388545463772678 [Eh]
	 SCS Opposite-Spin Energy  =      -1.5530998897403627 [Eh]
	 SCS Correlation Energy    =      -1.6919544361176304 [Eh]
	 SCS Total Energy          =    -416.5975728663735254 [Eh]
	-----------------------------------------------------------

  Dipole Moment: [D]
     X:     0.1659      Y:     0.0361      Z:     1.6936     Total:     1.7021

*** Psi4 exiting successfully. Buy a developer a beer!
