                               Psi4 1.3.2 release

  ==> Input File <==

--------------------------------------------------------------------------
#psi4
#
memory 32 gb

molecule  {
0 1
  O       -2.0737200     1.2628680    -0.4915300
  O        2.0737210    -1.2628680    -0.4915300
  N       -2.9762380    -0.6534170     0.3462040
  N        2.9762380     0.6534180     0.3462030
  C       -0.5467995    -0.4610643     0.2768141
  C        0.5555480     0.5175670     0.1381410
  C       -1.9182850     0.1263550    -0.0446340
  C        1.9182850    -0.1263550    -0.0446340
  H       -0.3806750    -1.2252780    -0.6804370
  H       -0.5383610    -1.1077740     1.0609210
  H        0.3806750     1.2252800    -0.6804340
  H        0.5383600     1.1077700     1.0609240
  H       -2.8543230    -1.6451260     0.4957240
  H       -3.8970040    -0.3356840     0.0715640
  H        2.8543220     1.6451260     0.4957230
  H        3.8970030     0.3356850     0.0715640
units angstrom
no_reorient  #important for SAPT in psi4, default
symmetry c1  #important for SAPT in psi4, default
}

set PROPERTIES_ORIGIN ["COM"]
properties('MP2/aug-cc-pvtz', properties = ['dipole'])
--------------------------------------------------------------------------

    Molecular point group: c1
  Charge       = 0
  Multiplicity = 1
  Basis Set: AUG-CC-PVTZ
    Blend: AUG-CC-PVTZ
  Basis Set: (AUG-CC-PVTZ AUX)
    Blend: AUG-CC-PVTZ-JKFIT

    Orbital Energies [Eh]
    ---------------------

    Doubly Occupied:

       1A    -20.527792     2A    -20.526069     3A    -15.591284
       4A    -15.589957     5A    -11.361576     6A    -11.361143
       7A    -11.251284     8A    -11.246989     9A     -1.381384
      10A     -1.378947    11A     -1.214860    12A     -1.213694
      13A     -1.082488    14A     -0.936769    15A     -0.808470
      16A     -0.777114    17A     -0.726714    18A     -0.724940
      19A     -0.681977    20A     -0.675071    21A     -0.631463
      22A     -0.608994    23A     -0.587855    24A     -0.568645
      25A     -0.556363    26A     -0.526032    27A     -0.471573
      28A     -0.434096    29A     -0.430124    30A     -0.423074
      31A     -0.420552

  @DF-RHF Final Energy:  -414.93822766485232

   => Energetics <=

    Nuclear Repulsion Energy =            365.9127441669544964
    One-Electron Energy =               -1292.2673601877311285
    Two-Electron Energy =                 511.4163883559242549
    Total Energy =                       -414.9382276648523202
  Basis Set: (AUG-CC-PVTZ AUX)
    Blend: AUG-CC-PVTZ-RI
    Molecular point group: c1

    Geometry (in Angstrom), charge = 0, multiplicity = 1:

       Center              X                  Y                   Z               Mass
    ------------   -----------------  -----------------  -----------------  -----------------
         O           -2.074624672224     1.257025731296    -0.489724813548    15.994914619570
         O            2.072816327776    -1.268710268704    -0.489724813548    15.994914619570
         N           -2.977142672224    -0.659259268704     0.348009186452    14.003074004430
         N            2.975333327776     0.647575731296     0.348008186452    14.003074004430
         C           -0.547704172224    -0.466906568704     0.278619286452    12.000000000000
         C            0.554643327776     0.511724731296     0.139946186452    12.000000000000
         C           -1.919189672224     0.120512731296    -0.042828813548    12.000000000000
         C            1.917380327776    -0.132197268704    -0.042828813548    12.000000000000
         H           -0.381579672224    -1.231120268704    -0.678631813548     1.007825032230
         H           -0.539265672224    -1.113616268704     1.062726186452     1.007825032230
         H            0.379770327776     1.219437731296    -0.678628813548     1.007825032230
         H            0.537455327776     1.101927731296     1.062729186452     1.007825032230
         H           -2.855227672224    -1.650968268704     0.497529186452     1.007825032230
         H           -3.897908672224    -0.341526268704     0.073369186452     1.007825032230
         H            2.853417327776     1.639283731296     0.497528186452     1.007825032230
         H            3.896098327776     0.329842731296     0.073369186452     1.007825032230

  Basis Set: AUG-CC-PVTZ
    Blend: AUG-CC-PVTZ
  Basis Set: (AUG-CC-PVTZ AUX)
    Blend: AUG-CC-PVTZ-JKFIT
	 Reference Energy          =    -414.9382276648523202 [Eh]
	 Singles Energy            =      -0.0000000000000000 [Eh]
	 Same-Spin Energy          =      -0.4155186354740836 [Eh]
	 Opposite-Spin Energy      =      -1.2919539309417367 [Eh]
	 Correlation Energy        =      -1.7074725664158203 [Eh]
	 Total Energy              =    -416.6457002312681652 [Eh]

	 ================> DF-SCS-MP2 Energies <==================
	-----------------------------------------------------------
	 SCS Same-Spin Scale       =       0.3333333333333333 [-]
	 SCS Opposite-Spin Scale   =       1.2000000000000000 [-]
	 SCS Same-Spin Energy      =      -0.1385062118246945 [Eh]
	 SCS Opposite-Spin Energy  =      -1.5503447171300839 [Eh]
	 SCS Correlation Energy    =      -1.6888509289547784 [Eh]
	 SCS Total Energy          =    -416.6270785938070844 [Eh]
	-----------------------------------------------------------

  Dipole Moment: [D]
     X:     0.0912      Y:     0.0046      Z:     1.6431     Total:     1.6456

*** Psi4 exiting successfully. Buy a developer a beer!
