                               Psi4 1.3.2 release

  ==> Input File <==

--------------------------------------------------------------------------
#psi4
#
memory 32 gb

molecule  {
0 1
  O       -2.0737200     1.2628680    -0.4915300
  O        2.0737210    -1.2628680    -0.4915300
  N       -2.9762380    -0.6534170     0.3462040
  N        2.9762380     0.6534180     0.3462030
  C       -0.5526318    -0.4987334     0.1843640
  C        0.5555480     0.5175670     0.1381410
  C       -1.9182850     0.1263550    -0.0446340
  C        1.9182850    -0.1263550    -0.0446340
  H       -0.3806750    -1.2252780    -0.6804370
  H       -0.5383610    -1.1077740     1.0609210
  H        0.3806750     1.2252800    -0.6804340
  H        0.5383600     1.1077700     1.0609240
  H       -2.8543230    -1.6451260     0.4957240
  H       -3.8970040    -0.3356840     0.0715640
  H        2.8543220     1.6451260     0.4957230
  H        3.8970030     0.3356850     0.0715640
units angstrom
no_reorient  #important for SAPT in psi4, default
symmetry c1  #important for SAPT in psi4, default
}

set PROPERTIES_ORIGIN ["COM"]
properties('MP2/aug-cc-pvtz', properties = ['dipole'])
--------------------------------------------------------------------------

    Molecular point group: c1
  Charge       = 0
  Multiplicity = 1
  Basis Set: AUG-CC-PVTZ
    Blend: AUG-CC-PVTZ
  Basis Set: (AUG-CC-PVTZ AUX)
    Blend: AUG-CC-PVTZ-JKFIT

    Orbital Energies [Eh]
    ---------------------

    Doubly Occupied:

       1A    -20.527133     2A    -20.526509     3A    -15.590607
       4A    -15.590211     5A    -11.360291     6A    -11.360109
       7A    -11.248091     8A    -11.246744     9A     -1.381137
      10A     -1.378985    11A     -1.214281    12A     -1.213928
      13A     -1.077874    14A     -0.937281    15A     -0.807267
      16A     -0.775674    17A     -0.724508    18A     -0.723458
      19A     -0.681348    20A     -0.672804    21A     -0.635218
      22A     -0.609247    23A     -0.582819    24A     -0.565027
      25A     -0.553328    26A     -0.521268    27A     -0.493068
      28A     -0.433680    29A     -0.432769    30A     -0.422708
      31A     -0.419857

  @DF-RHF Final Energy:  -414.95692339349790

   => Energetics <=

    Nuclear Repulsion Energy =            365.8726434420047440
    One-Electron Energy =               -1292.2446723148066212
    Two-Electron Energy =                 511.4151054793039179
    Total Energy =                       -414.9569233934979025
  Basis Set: (AUG-CC-PVTZ AUX)
    Blend: AUG-CC-PVTZ-RI
    Molecular point group: c1

    Geometry (in Angstrom), charge = 0, multiplicity = 1:

       Center              X                  Y                   Z               Mass
    ------------   -----------------  -----------------  -----------------  -----------------
         O           -2.074021635365     1.260920567935    -0.480165837178    15.994914619570
         O            2.073419364635    -1.264815432065    -0.480165837178    15.994914619570
         N           -2.976539635365    -0.655364432065     0.357568162822    14.003074004430
         N            2.975936364635     0.651470567935     0.357567162822    14.003074004430
         C           -0.552933435365    -0.500680832065     0.195728162822    12.000000000000
         C            0.555246364635     0.515619567935     0.149505162822    12.000000000000
         C           -1.918586635365     0.124407567935    -0.033269837178    12.000000000000
         C            1.917983364635    -0.128302432065    -0.033269837178    12.000000000000
         H           -0.380976635365    -1.227225432065    -0.669072837178     1.007825032230
         H           -0.538662635365    -1.109721432065     1.072285162822     1.007825032230
         H            0.380373364635     1.223332567935    -0.669069837178     1.007825032230
         H            0.538058364635     1.105822567935     1.072288162822     1.007825032230
         H           -2.854624635365    -1.647073432065     0.507088162822     1.007825032230
         H           -3.897305635365    -0.337631432065     0.082928162822     1.007825032230
         H            2.854020364635     1.643178567935     0.507087162822     1.007825032230
         H            3.896701364635     0.333737567935     0.082928162822     1.007825032230

  Basis Set: AUG-CC-PVTZ
    Blend: AUG-CC-PVTZ
  Basis Set: (AUG-CC-PVTZ AUX)
    Blend: AUG-CC-PVTZ-JKFIT
	 Reference Energy          =    -414.9569233934979025 [Eh]
	 Singles Energy            =      -0.0000000000000000 [Eh]
	 Same-Spin Energy          =      -0.4148118603354333 [Eh]
	 Opposite-Spin Energy      =      -1.2906648186645171 [Eh]
	 Correlation Energy        =      -1.7054766789999505 [Eh]
	 Total Energy              =    -416.6624000724978600 [Eh]

	 ================> DF-SCS-MP2 Energies <==================
	-----------------------------------------------------------
	 SCS Same-Spin Scale       =       0.3333333333333333 [-]
	 SCS Opposite-Spin Scale   =       1.2000000000000000 [-]
	 SCS Same-Spin Energy      =      -0.1382706201118111 [Eh]
	 SCS Opposite-Spin Energy  =      -1.5487977823974204 [Eh]
	 SCS Correlation Energy    =      -1.6870684025092315 [Eh]
	 SCS Total Energy          =    -416.6439917960071284 [Eh]
	-----------------------------------------------------------

  Dipole Moment: [D]
     X:     0.0282      Y:    -0.0048      Z:     1.5892     Total:     1.5895

*** Psi4 exiting successfully. Buy a developer a beer!
