                               Psi4 1.3.2 release

  ==> Input File <==

--------------------------------------------------------------------------
#psi4
#
memory 32 gb

molecule  {
0 1
  O       -2.0737200     1.2628680    -0.4915300
  O        2.0737210    -1.2628680    -0.4915300
  N       -2.9762380    -0.6534170     0.3462040
  N        2.9762380     0.6534180     0.3462030
  C       -0.5438833    -0.4422297     0.3230392
  C        0.5555480     0.5175670     0.1381410
  C       -1.9182850     0.1263550    -0.0446340
  C        1.9182850    -0.1263550    -0.0446340
  H       -0.3806750    -1.2252780    -0.6804370
  H       -0.5383610    -1.1077740     1.0609210
  H        0.3806750     1.2252800    -0.6804340
  H        0.5383600     1.1077700     1.0609240
  H       -2.8543230    -1.6451260     0.4957240
  H       -3.8970040    -0.3356840     0.0715640
  H        2.8543220     1.6451260     0.4957230
  H        3.8970030     0.3356850     0.0715640
units angstrom
no_reorient  #important for SAPT in psi4, default
symmetry c1  #important for SAPT in psi4, default
}

set PROPERTIES_ORIGIN ["COM"]
properties('MP2/aug-cc-pvtz', properties = ['dipole'])
--------------------------------------------------------------------------

    Molecular point group: c1
  Charge       = 0
  Multiplicity = 1
  Basis Set: AUG-CC-PVTZ
    Blend: AUG-CC-PVTZ
  Basis Set: (AUG-CC-PVTZ AUX)
    Blend: AUG-CC-PVTZ-JKFIT

    Orbital Energies [Eh]
    ---------------------

    Doubly Occupied:

       1A    -20.528189     2A    -20.525965     3A    -15.591667
       4A    -15.589794     5A    -11.362796     6A    -11.361628
       7A    -11.253779     8A    -11.247592     9A     -1.381596
      10A     -1.378961    11A     -1.215201    12A     -1.213552
      13A     -1.084793    14A     -0.936727    15A     -0.809098
      16A     -0.778695    17A     -0.728818    18A     -0.725615
      19A     -0.682258    20A     -0.675310    21A     -0.630439
      22A     -0.608962    23A     -0.591934    24A     -0.570437
      25A     -0.556799    26A     -0.527629    27A     -0.460509
      28A     -0.434292    29A     -0.427535    30A     -0.423283
      31A     -0.420871

  @DF-RHF Final Energy:  -414.92339045881710

   => Energetics <=

    Nuclear Repulsion Energy =            365.8787443409195816
    One-Electron Energy =               -1292.1548209345828582
    Two-Electron Energy =                 511.3526861348461239
    Total Energy =                       -414.9233904588170958
  Basis Set: (AUG-CC-PVTZ AUX)
    Blend: AUG-CC-PVTZ-RI
    Molecular point group: c1

    Geometry (in Angstrom), charge = 0, multiplicity = 1:

       Center              X                  Y                   Z               Mass
    ------------   -----------------  -----------------  -----------------  -----------------
         O           -2.074926195823     1.255078307806    -0.494504306904    15.994914619570
         O            2.072514804177    -1.270657692194    -0.494504306904    15.994914619570
         N           -2.977444195823    -0.661206692194     0.343229693096    14.003074004430
         N            2.975031804177     0.645628307806     0.343228693096    14.003074004430
         C           -0.545089495823    -0.450019392194     0.320064893096    12.000000000000
         C            0.554341804177     0.509777307806     0.135166693096    12.000000000000
         C           -1.919491195823     0.118565307806    -0.047608306904    12.000000000000
         C            1.917078804177    -0.134144692194    -0.047608306904    12.000000000000
         H           -0.381881195823    -1.233067692194    -0.683411306904     1.007825032230
         H           -0.539567195823    -1.115563692194     1.057946693096     1.007825032230
         H            0.379468804177     1.217490307806    -0.683408306904     1.007825032230
         H            0.537153804177     1.099980307806     1.057949693096     1.007825032230
         H           -2.855529195823    -1.652915692194     0.492749693096     1.007825032230
         H           -3.898210195823    -0.343473692194     0.068589693096     1.007825032230
         H            2.853115804177     1.637336307806     0.492748693096     1.007825032230
         H            3.895796804177     0.327895307806     0.068589693096     1.007825032230

  Basis Set: AUG-CC-PVTZ
    Blend: AUG-CC-PVTZ
  Basis Set: (AUG-CC-PVTZ AUX)
    Blend: AUG-CC-PVTZ-JKFIT
	 Reference Energy          =    -414.9233904588170958 [Eh]
	 Singles Energy            =      -0.0000000000000000 [Eh]
	 Same-Spin Energy          =      -0.4159993667849621 [Eh]
	 Opposite-Spin Energy      =      -1.2929747041236017 [Eh]
	 Correlation Energy        =      -1.7089740709085639 [Eh]
	 Total Energy              =    -416.6323645297256348 [Eh]

	 ================> DF-SCS-MP2 Energies <==================
	-----------------------------------------------------------
	 SCS Same-Spin Scale       =       0.3333333333333333 [-]
	 SCS Opposite-Spin Scale   =       1.2000000000000000 [-]
	 SCS Same-Spin Energy      =      -0.1386664555949874 [Eh]
	 SCS Opposite-Spin Energy  =      -1.5515696449483221 [Eh]
	 SCS Correlation Energy    =      -1.6902361005433093 [Eh]
	 SCS Total Energy          =    -416.6136265593603980 [Eh]
	-----------------------------------------------------------

  Dipole Moment: [D]
     X:     0.1269      Y:     0.0180      Z:     1.6690     Total:     1.6739

*** Psi4 exiting successfully. Buy a developer a beer!
