                               Psi4 1.3.2 release

  ==> Input File <==

--------------------------------------------------------------------------
#psi4
#
memory 32 gb

molecule  {
0 1
  C        0.0901110     0.1256610    -0.0006000
  O        0.5416810     1.2568908     0.0002137
  O        0.7645440    -1.0585160    -0.0000760
  H        1.7137310    -0.8171840     0.0013030
  C       -1.3945180    -0.1003110    -0.0000980
  H       -1.9040560     0.8615770    -0.0148950
  H       -1.6785790    -0.6920150    -0.8731890
  H       -1.6806310    -0.6642840     0.8906910
units angstrom
no_reorient  #important for SAPT in psi4, default
symmetry c1  #important for SAPT in psi4, default
}

set PROPERTIES_ORIGIN ["COM"]
properties('MP2/aug-cc-pvtz', properties = ['dipole'])
--------------------------------------------------------------------------

    Molecular point group: c1
  Charge       = 0
  Multiplicity = 1
  Basis Set: AUG-CC-PVTZ
    Blend: AUG-CC-PVTZ
  Basis Set: (AUG-CC-PVTZ AUX)
    Blend: AUG-CC-PVTZ-JKFIT

    Orbital Energies [Eh]
    ---------------------

    Doubly Occupied:

       1A    -20.627300     2A    -20.555760     3A    -11.394879
       4A    -11.242144     5A     -1.461991     6A     -1.367250
       7A     -1.023457     8A     -0.823602     9A     -0.710298
      10A     -0.680287    11A     -0.651005    12A     -0.586705
      13A     -0.570213    14A     -0.561043    15A     -0.487891
      16A     -0.454374

  @DF-RHF Final Energy:  -227.89938086413630

   => Energetics <=

    Nuclear Repulsion Energy =            120.5177978634203271
    One-Electron Energy =                -550.4379595801680125
    Two-Electron Energy =                 202.0207808526113524
    Total Energy =                       -227.8993808641363046
  Basis Set: (AUG-CC-PVTZ AUX)
    Blend: AUG-CC-PVTZ-RI
    Molecular point group: c1

    Geometry (in Angstrom), charge = 0, multiplicity = 1:

       Center              X                  Y                   Z               Mass
    ------------   -----------------  -----------------  -----------------  -----------------
         C            0.062408037049     0.089756705885    -0.000562798028    12.000000000000
         O            0.513978037049     1.220986505885     0.000250901972    15.994914619570
         O            0.736841037049    -1.094420294115    -0.000038798028    15.994914619570
         H            1.686028037049    -0.853088294115     0.001340201972     1.007825032230
         C           -1.422220962951    -0.136215294115    -0.000060798028    12.000000000000
         H           -1.931758962951     0.825672705885    -0.014857798028     1.007825032230
         H           -1.706281962951    -0.727919294115    -0.873151798028     1.007825032230
         H           -1.708333962951    -0.700188294115     0.890728201972     1.007825032230

  Basis Set: AUG-CC-PVTZ
    Blend: AUG-CC-PVTZ
  Basis Set: (AUG-CC-PVTZ AUX)
    Blend: AUG-CC-PVTZ-JKFIT
	 Reference Energy          =    -227.8993808641363046 [Eh]
	 Singles Energy            =      -0.0000000000000000 [Eh]
	 Same-Spin Energy          =      -0.2155505306082910 [Eh]
	 Opposite-Spin Energy      =      -0.6711139102345757 [Eh]
	 Correlation Energy        =      -0.8866644408428668 [Eh]
	 Total Energy              =    -228.7860453049791829 [Eh]

	 ================> DF-SCS-MP2 Energies <==================
	-----------------------------------------------------------
	 SCS Same-Spin Scale       =       0.3333333333333333 [-]
	 SCS Opposite-Spin Scale   =       1.2000000000000000 [-]
	 SCS Same-Spin Energy      =      -0.0718501768694303 [Eh]
	 SCS Opposite-Spin Energy  =      -0.8053366922814907 [Eh]
	 SCS Correlation Energy    =      -0.8771868691509210 [Eh]
	 SCS Total Energy          =    -228.7765677332872372 [Eh]
	-----------------------------------------------------------

  Dipole Moment: [D]
     X:    -0.4318      Y:    -1.5776      Z:     0.0029     Total:     1.6356

*** Psi4 exiting successfully. Buy a developer a beer!
