                               Psi4 1.3.2 release

  ==> Input File <==

--------------------------------------------------------------------------
#psi4
#
memory 32 gb

molecule  {
0 1
  C        0.0901110     0.1256610    -0.0006000
  O        0.6574530     1.2034920     0.0001100
  O        0.7645440    -1.0585160    -0.0000760
  H        1.7137310    -0.8171840     0.0013030
  C       -1.2956566    -0.0852635    -0.0001314
  H       -1.9040560     0.8615770    -0.0148950
  H       -1.6785790    -0.6920150    -0.8731890
  H       -1.6806310    -0.6642840     0.8906910
units angstrom
no_reorient  #important for SAPT in psi4, default
symmetry c1  #important for SAPT in psi4, default
}

set PROPERTIES_ORIGIN ["COM"]
properties('MP2/aug-cc-pvtz', properties = ['dipole'])
--------------------------------------------------------------------------

    Molecular point group: c1
  Charge       = 0
  Multiplicity = 1
  Basis Set: AUG-CC-PVTZ
    Blend: AUG-CC-PVTZ
  Basis Set: (AUG-CC-PVTZ AUX)
    Blend: AUG-CC-PVTZ-JKFIT

    Orbital Energies [Eh]
    ---------------------

    Doubly Occupied:

       1A    -20.615649     2A    -20.552547     3A    -11.389503
       4A    -11.252307     5A     -1.462701     6A     -1.358464
       7A     -1.047555     8A     -0.818294     9A     -0.708433
      10A     -0.690898    11A     -0.652420    12A     -0.595309
      13A     -0.557008    14A     -0.546534    15A     -0.481478
      16A     -0.461980

  @DF-RHF Final Energy:  -227.89112076778019

   => Energetics <=

    Nuclear Repulsion Energy =            122.0291291646982330
    One-Electron Energy =                -553.4583419170968455
    Two-Electron Energy =                 203.5380919846184042
    Total Energy =                       -227.8911207677801940
  Basis Set: (AUG-CC-PVTZ AUX)
    Blend: AUG-CC-PVTZ-RI
    Molecular point group: c1

    Geometry (in Angstrom), charge = 0, multiplicity = 1:

       Center              X                  Y                   Z               Mass
    ------------   -----------------  -----------------  -----------------  -----------------
         C            0.011790861275     0.100978408207    -0.000528485567    12.000000000000
         O            0.579132861275     1.178809408207     0.000181514433    15.994914619570
         O            0.686223861275    -1.083198591793    -0.000004485567    15.994914619570
         H            1.635410861275    -0.841866591793     0.001374514433     1.007825032230
         C           -1.373976738725    -0.109946091793    -0.000059885567    12.000000000000
         H           -1.982376138725     0.836894408207    -0.014823485567     1.007825032230
         H           -1.756899138725    -0.716697591793    -0.873117485567     1.007825032230
         H           -1.758951138725    -0.688966591793     0.890762514433     1.007825032230

  Basis Set: AUG-CC-PVTZ
    Blend: AUG-CC-PVTZ
  Basis Set: (AUG-CC-PVTZ AUX)
    Blend: AUG-CC-PVTZ-JKFIT
	 Reference Energy          =    -227.8911207677801940 [Eh]
	 Singles Energy            =      -0.0000000000000000 [Eh]
	 Same-Spin Energy          =      -0.2163674865900336 [Eh]
	 Opposite-Spin Energy      =      -0.6716680200544242 [Eh]
	 Correlation Energy        =      -0.8880355066444577 [Eh]
	 Total Energy              =    -228.7791562744246505 [Eh]

	 ================> DF-SCS-MP2 Energies <==================
	-----------------------------------------------------------
	 SCS Same-Spin Scale       =       0.3333333333333333 [-]
	 SCS Opposite-Spin Scale   =       1.2000000000000000 [-]
	 SCS Same-Spin Energy      =      -0.0721224955300112 [Eh]
	 SCS Opposite-Spin Energy  =      -0.8060016240653090 [Eh]
	 SCS Correlation Energy    =      -0.8781241195953201 [Eh]
	 SCS Total Energy          =    -228.7692448873755211 [Eh]
	-----------------------------------------------------------

  Dipole Moment: [D]
     X:    -0.9569      Y:    -1.5039      Z:     0.0038     Total:     1.7825

*** Psi4 exiting successfully. Buy a developer a beer!
