                               Psi4 1.4a3.dev225

  ==> Input File <==

--------------------------------------------------------------------------
#psi4
#
memory 32 gb

molecule  {
0 1
  C       -0.0901920     0.1257170     0.0000000
  O       -0.6581530     1.2031790     0.0000000
  O       -0.7540696    -1.0414176     0.0000000
  H       -1.7131600    -0.8179640     0.0000010
  C        1.3945970    -0.0997450     0.0000000
  H        1.9039530     0.8623950    -0.0000090
  H        1.6798310    -0.6776310     0.8820670
  H        1.6798300    -0.6776490    -0.8820560
units angstrom
no_reorient  #important for SAPT in psi4, default
symmetry c1  #important for SAPT in psi4, default
}

set PROPERTIES_ORIGIN ["COM"]
properties('MP2/aug-cc-pvtz', properties = ['dipole'])
--------------------------------------------------------------------------

    Molecular point group: c1
  Charge       = 0
  Multiplicity = 1
  Basis Set: AUG-CC-PVTZ
    Blend: AUG-CC-PVTZ
  Basis Set: (AUG-CC-PVTZ AUX)
    Blend: AUG-CC-PVTZ-JKFIT

    Orbital Energies [Eh]
    ---------------------

    Doubly Occupied:

       1A    -20.619264     2A    -20.550615     3A    -11.391690
       4A    -11.248320     5A     -1.467524     6A     -1.357790
       7A     -1.028975     8A     -0.825467     9A     -0.706529
      10A     -0.681160    11A     -0.653107    12A     -0.583647
      13A     -0.572930    14A     -0.563669    15A     -0.482056
      16A     -0.456314

  @DF-RHF Final Energy:  -227.90373531996133

   => Energetics <=

    Nuclear Repulsion Energy =            121.0502792154342018
    One-Electron Energy =                -551.5299131952448306
    Two-Electron Energy =                 202.5758986598492868
    Total Energy =                       -227.9037353199613278
  Basis Set: (AUG-CC-PVTZ AUX)
    Blend: AUG-CC-PVTZ-RI
    Molecular point group: c1

    Geometry (in Angstrom), charge = 0, multiplicity = 1:

       Center              X                  Y                   Z               Mass
    ------------   -----------------  -----------------  -----------------  -----------------
         C           -0.034256972965     0.099427635526    -0.000000050374    12.000000000000
         O           -0.602217972965     1.176889635526    -0.000000050374    15.994914619570
         O           -0.698134572965    -1.067706964474    -0.000000050374    15.994914619570
         H           -1.657224972965    -0.844253364474     0.000000949626     1.007825032230
         C            1.450532027035    -0.126034364474    -0.000000050374    12.000000000000
         H            1.959888027035     0.836105635526    -0.000009050374     1.007825032230
         H            1.735766027035    -0.703920364474     0.882066949626     1.007825032230
         H            1.735765027035    -0.703938364474    -0.882056050374     1.007825032230

  Basis Set: AUG-CC-PVTZ
    Blend: AUG-CC-PVTZ
  Basis Set: (AUG-CC-PVTZ AUX)
    Blend: AUG-CC-PVTZ-JKFIT
	 Reference Energy          =    -227.9037353199613278 [Eh]
	 Singles Energy            =      -0.0000000000000000 [Eh]
	 Same-Spin Energy          =      -0.2151850308414798 [Eh]
	 Opposite-Spin Energy      =      -0.6698537536232474 [Eh]
	 Correlation Energy        =      -0.8850387844647272 [Eh]
	 Total Energy              =    -228.7887741044260679 [Eh]

	 ================> DF-SCS-MP2 Energies <==================
	-----------------------------------------------------------
	 SCS Same-Spin Scale       =       0.3333333333333333 [-]
	 SCS Opposite-Spin Scale   =       1.2000000000000000 [-]
	 SCS Same-Spin Energy      =      -0.0717283436138266 [Eh]
	 SCS Opposite-Spin Energy  =      -0.8038245043478969 [Eh]
	 SCS Correlation Energy    =      -0.8755528479617235 [Eh]
	 SCS Total Energy          =    -228.7792881679230561 [Eh]
	-----------------------------------------------------------

  Dipole Moment: [D]
     X:     0.7408      Y:    -1.5886      Z:     0.0000     Total:     1.7528

*** Psi4 exiting successfully. Buy a developer a beer!
