                               Psi4 1.3.2 release

  ==> Input File <==

--------------------------------------------------------------------------
#psi4
#
memory 32 gb

molecule  {
0 1
  C        0.0901110     0.1256610    -0.0006000
  O        0.5642957     1.0265126    -0.0000066
  O        0.7645440    -1.0585160    -0.0000760
  H        1.7137310    -0.8171840     0.0013030
  C       -1.3945180    -0.1003110    -0.0000980
  H       -1.9040560     0.8615770    -0.0148950
  H       -1.6785790    -0.6920150    -0.8731890
  H       -1.6806310    -0.6642840     0.8906910
units angstrom
no_reorient  #important for SAPT in psi4, default
symmetry c1  #important for SAPT in psi4, default
}

set PROPERTIES_ORIGIN ["COM"]
properties('MP2/aug-cc-pvtz', properties = ['dipole'])
--------------------------------------------------------------------------

    Molecular point group: c1
  Charge       = 0
  Multiplicity = 1
  Basis Set: AUG-CC-PVTZ
    Blend: AUG-CC-PVTZ
  Basis Set: (AUG-CC-PVTZ AUX)
    Blend: AUG-CC-PVTZ-JKFIT

    Orbital Energies [Eh]
    ---------------------

    Doubly Occupied:

       1A    -20.582656     2A    -20.550850     3A    -11.347347
       4A    -11.230862     5A     -1.565913     6A     -1.383618
       7A     -1.015069     8A     -0.800841     9A     -0.729153
      10A     -0.719620    11A     -0.693495    12A     -0.596007
      13A     -0.562136    14A     -0.557564    15A     -0.510764
      16A     -0.447113

  @DF-RHF Final Energy:  -227.83759121260778

   => Energetics <=

    Nuclear Repulsion Energy =            127.0095382946257274
    One-Electron Energy =                -563.1082437917268635
    Two-Electron Energy =                 208.2611142844933738
    Total Energy =                       -227.8375912126077765
  Basis Set: (AUG-CC-PVTZ AUX)
    Blend: AUG-CC-PVTZ-RI
    Molecular point group: c1

    Geometry (in Angstrom), charge = 0, multiplicity = 1:

       Center              X                  Y                   Z               Mass
    ------------   -----------------  -----------------  -----------------  -----------------
         C            0.056381489407     0.151149746603    -0.000504090707    12.000000000000
         O            0.530566189407     1.052001346603     0.000089309293    15.994914619570
         O            0.730814489407    -1.033027253397     0.000019909293    15.994914619570
         H            1.680001489407    -0.791695253397     0.001398909293     1.007825032230
         C           -1.428247510593    -0.074822253397    -0.000002090707    12.000000000000
         H           -1.937785510593     0.887065746603    -0.014799090707     1.007825032230
         H           -1.712308510593    -0.666526253397    -0.873093090707     1.007825032230
         H           -1.714360510593    -0.638795253397     0.890786909293     1.007825032230

  Basis Set: AUG-CC-PVTZ
    Blend: AUG-CC-PVTZ
  Basis Set: (AUG-CC-PVTZ AUX)
    Blend: AUG-CC-PVTZ-JKFIT
	 Reference Energy          =    -227.8375912126077765 [Eh]
	 Singles Energy            =      -0.0000000000000000 [Eh]
	 Same-Spin Energy          =      -0.2108999480649064 [Eh]
	 Opposite-Spin Energy      =      -0.6589475102376371 [Eh]
	 Correlation Energy        =      -0.8698474583025435 [Eh]
	 Total Energy              =    -228.7074386709103067 [Eh]

	 ================> DF-SCS-MP2 Energies <==================
	-----------------------------------------------------------
	 SCS Same-Spin Scale       =       0.3333333333333333 [-]
	 SCS Opposite-Spin Scale   =       1.2000000000000000 [-]
	 SCS Same-Spin Energy      =      -0.0702999826883021 [Eh]
	 SCS Opposite-Spin Energy  =      -0.7907370122851645 [Eh]
	 SCS Correlation Energy    =      -0.8610369949734666 [Eh]
	 SCS Total Energy          =    -228.6986282075812369 [Eh]
	-----------------------------------------------------------

  Dipole Moment: [D]
     X:    -0.4167      Y:    -0.3462      Z:     0.0029     Total:     0.5418

*** Psi4 exiting successfully. Buy a developer a beer!
