                               Psi4 1.3.2 release

  ==> Input File <==

--------------------------------------------------------------------------
#psi4
#
memory 32 gb

molecule  {
0 1
  C        0.0901110     0.1256610    -0.0006000
  O        0.6574530     1.2034920     0.0001100
  O        0.7150540    -0.9716210    -0.0001145
  H        1.7137310    -0.8171840     0.0013030
  C       -1.3945180    -0.1003110    -0.0000980
  H       -1.9040560     0.8615770    -0.0148950
  H       -1.6785790    -0.6920150    -0.8731890
  H       -1.6806310    -0.6642840     0.8906910
units angstrom
no_reorient  #important for SAPT in psi4, default
symmetry c1  #important for SAPT in psi4, default
}

set PROPERTIES_ORIGIN ["COM"]
properties('MP2/aug-cc-pvtz', properties = ['dipole'])
--------------------------------------------------------------------------

    Molecular point group: c1
  Charge       = 0
  Multiplicity = 1
  Basis Set: AUG-CC-PVTZ
    Blend: AUG-CC-PVTZ
  Basis Set: (AUG-CC-PVTZ AUX)
    Blend: AUG-CC-PVTZ-JKFIT

    Orbital Energies [Eh]
    ---------------------

    Doubly Occupied:

       1A    -20.626417     2A    -20.534866     3A    -11.379609
       4A    -11.243267     5A     -1.498169     6A     -1.351954
       7A     -1.026882     8A     -0.846261     9A     -0.708979
      10A     -0.684349    11A     -0.669299    12A     -0.578331
      13A     -0.565595    14A     -0.561004    15A     -0.472543
      16A     -0.449309

  @DF-RHF Final Energy:  -227.89829493258068

   => Energetics <=

    Nuclear Repulsion Energy =            123.0184828113289228
    One-Electron Energy =                -555.4398882615246293
    Two-Electron Energy =                 204.5231105176150379
    Total Energy =                       -227.8982949325806828
  Basis Set: (AUG-CC-PVTZ AUX)
    Blend: AUG-CC-PVTZ-RI
    Molecular point group: c1

    Geometry (in Angstrom), charge = 0, multiplicity = 1:

       Center              X                  Y                   Z               Mass
    ------------   -----------------  -----------------  -----------------  -----------------
         C            0.044744675130     0.080830368365    -0.000524903425    12.000000000000
         O            0.612086675130     1.158661368365     0.000185096575    15.994914619570
         O            0.669687675130    -1.016451631635    -0.000039403425    15.994914619570
         H            1.668364675130    -0.862014631635     0.001378096575     1.007825032230
         C           -1.439884324870    -0.145141631635    -0.000022903425    12.000000000000
         H           -1.949422324870     0.816746368365    -0.014819903425     1.007825032230
         H           -1.723945324870    -0.736845631635    -0.873113903425     1.007825032230
         H           -1.725997324870    -0.709114631635     0.890766096575     1.007825032230

  Basis Set: AUG-CC-PVTZ
    Blend: AUG-CC-PVTZ
  Basis Set: (AUG-CC-PVTZ AUX)
    Blend: AUG-CC-PVTZ-JKFIT
	 Reference Energy          =    -227.8982949325806828 [Eh]
	 Singles Energy            =      -0.0000000000000000 [Eh]
	 Same-Spin Energy          =      -0.2148510211870727 [Eh]
	 Opposite-Spin Energy      =      -0.6678044011960121 [Eh]
	 Correlation Energy        =      -0.8826554223830848 [Eh]
	 Total Energy              =    -228.7809503549637782 [Eh]

	 ================> DF-SCS-MP2 Energies <==================
	-----------------------------------------------------------
	 SCS Same-Spin Scale       =       0.3333333333333333 [-]
	 SCS Opposite-Spin Scale   =       1.2000000000000000 [-]
	 SCS Same-Spin Energy      =      -0.0716170070623576 [Eh]
	 SCS Opposite-Spin Energy  =      -0.8013652814352146 [Eh]
	 SCS Correlation Energy    =      -0.8729822884975721 [Eh]
	 SCS Total Energy          =    -228.7712772210782646 [Eh]
	-----------------------------------------------------------

  Dipole Moment: [D]
     X:    -0.4914      Y:    -2.0762      Z:     0.0030     Total:     2.1335

*** Psi4 exiting successfully. Buy a developer a beer!
