                               Psi4 1.3.2 release

  ==> Input File <==

--------------------------------------------------------------------------
#psi4
#
memory 32 gb

molecule  {
0 1
  C        0.0901110     0.1256610    -0.0006000
  O        0.5808853     1.2404422     0.0001801
  O        0.7645440    -1.0585160    -0.0000760
  H        1.7137310    -0.8171840     0.0013030
  C       -1.3945180    -0.1003110    -0.0000980
  H       -1.9040560     0.8615770    -0.0148950
  H       -1.6785790    -0.6920150    -0.8731890
  H       -1.6806310    -0.6642840     0.8906910
units angstrom
no_reorient  #important for SAPT in psi4, default
symmetry c1  #important for SAPT in psi4, default
}

set PROPERTIES_ORIGIN ["COM"]
properties('MP2/aug-cc-pvtz', properties = ['dipole'])
--------------------------------------------------------------------------

    Molecular point group: c1
  Charge       = 0
  Multiplicity = 1
  Basis Set: AUG-CC-PVTZ
    Blend: AUG-CC-PVTZ
  Basis Set: (AUG-CC-PVTZ AUX)
    Blend: AUG-CC-PVTZ-JKFIT

    Orbital Energies [Eh]
    ---------------------

    Doubly Occupied:

       1A    -20.624116     2A    -20.555346     3A    -11.394747
       4A    -11.244644     5A     -1.461674     6A     -1.364497
       7A     -1.025553     8A     -0.822535     9A     -0.709160
      10A     -0.680060    11A     -0.650621    12A     -0.586280
      13A     -0.571763    14A     -0.561698    15A     -0.486782
      16A     -0.455877

  @DF-RHF Final Energy:  -227.90128727695716

   => Energetics <=

    Nuclear Repulsion Energy =            120.5242831045608796
    One-Electron Energy =                -550.4604359097492079
    Two-Electron Energy =                 202.0348655282311654
    Total Energy =                       -227.9012872769571629
  Basis Set: (AUG-CC-PVTZ AUX)
    Blend: AUG-CC-PVTZ-RI
    Molecular point group: c1

    Geometry (in Angstrom), charge = 0, multiplicity = 1:

       Center              X                  Y                   Z               Mass
    ------------   -----------------  -----------------  -----------------  -----------------
         C            0.051960559005     0.094140061470    -0.000553844029    12.000000000000
         O            0.542734859005     1.208921261470     0.000226255971    15.994914619570
         O            0.726393559005    -1.090036938530    -0.000029844029    15.994914619570
         H            1.675580559005    -0.848704938530     0.001349155971     1.007825032230
         C           -1.432668440995    -0.131831938530    -0.000051844029    12.000000000000
         H           -1.942206440995     0.830056061470    -0.014848844029     1.007825032230
         H           -1.716729440995    -0.723535938530    -0.873142844029     1.007825032230
         H           -1.718781440995    -0.695804938530     0.890737155971     1.007825032230

  Basis Set: AUG-CC-PVTZ
    Blend: AUG-CC-PVTZ
  Basis Set: (AUG-CC-PVTZ AUX)
    Blend: AUG-CC-PVTZ-JKFIT
	 Reference Energy          =    -227.9012872769571629 [Eh]
	 Singles Energy            =      -0.0000000000000000 [Eh]
	 Same-Spin Energy          =      -0.2154512674125402 [Eh]
	 Opposite-Spin Energy      =      -0.6708476133464103 [Eh]
	 Correlation Energy        =      -0.8862988807589505 [Eh]
	 Total Energy              =    -228.7875861577161061 [Eh]

	 ================> DF-SCS-MP2 Energies <==================
	-----------------------------------------------------------
	 SCS Same-Spin Scale       =       0.3333333333333333 [-]
	 SCS Opposite-Spin Scale   =       1.2000000000000000 [-]
	 SCS Same-Spin Energy      =      -0.0718170891375134 [Eh]
	 SCS Opposite-Spin Energy  =      -0.8050171360156924 [Eh]
	 SCS Correlation Energy    =      -0.8768342251532057 [Eh]
	 SCS Total Energy          =    -228.7781215021103662 [Eh]
	-----------------------------------------------------------

  Dipole Moment: [D]
     X:    -0.5571      Y:    -1.5458      Z:     0.0029     Total:     1.6432

*** Psi4 exiting successfully. Buy a developer a beer!
