                               Psi4 1.3.2 release

  ==> Input File <==

--------------------------------------------------------------------------
#psi4
#
memory 32 gb

molecule  {
0 1
  C        0.0901110     0.1256610    -0.0006000
  O        0.6574530     1.2034920     0.0001100
  O        0.7645440    -1.0585160    -0.0000760
  H        1.9075639    -0.7679017     0.0015846
  C       -1.3945180    -0.1003110    -0.0000980
  H       -1.9040560     0.8615770    -0.0148950
  H       -1.6785790    -0.6920150    -0.8731890
  H       -1.6806310    -0.6642840     0.8906910
units angstrom
no_reorient  #important for SAPT in psi4, default
symmetry c1  #important for SAPT in psi4, default
}

set PROPERTIES_ORIGIN ["COM"]
properties('MP2/aug-cc-pvtz', properties = ['dipole'])
--------------------------------------------------------------------------

    Molecular point group: c1
  Charge       = 0
  Multiplicity = 1
  Basis Set: AUG-CC-PVTZ
    Blend: AUG-CC-PVTZ
  Basis Set: (AUG-CC-PVTZ AUX)
    Blend: AUG-CC-PVTZ-JKFIT

    Orbital Energies [Eh]
    ---------------------

    Doubly Occupied:

       1A    -20.626027     2A    -20.550653     3A    -11.390857
       4A    -11.248750     5A     -1.441078     6A     -1.341274
       7A     -1.023105     8A     -0.789906     9A     -0.685793
      10A     -0.674694    11A     -0.645243    12A     -0.579053
      13A     -0.558692    14A     -0.557907    15A     -0.479044
      16A     -0.454110

  @DF-RHF Final Energy:  -227.86815565519996

   => Energetics <=

    Nuclear Repulsion Energy =            119.6096144496577693
    One-Electron Energy =                -548.8631744534851578
    Two-Electron Energy =                 201.3854043486274179
    Total Energy =                       -227.8681556551999563
  Basis Set: (AUG-CC-PVTZ AUX)
    Blend: AUG-CC-PVTZ-RI
    Molecular point group: c1

    Geometry (in Angstrom), charge = 0, multiplicity = 1:

       Center              X                  Y                   Z               Mass
    ------------   -----------------  -----------------  -----------------  -----------------
         C            0.028301499475     0.103159341251    -0.000539891609    12.000000000000
         O            0.595643499475     1.180990341251     0.000170108391    15.994914619570
         O            0.702734499475    -1.081017658749    -0.000015891609    15.994914619570
         H            1.845754399475    -0.790403358749     0.001644708391     1.007825032230
         C           -1.456327500525    -0.122812658749    -0.000037891609    12.000000000000
         H           -1.965865500525     0.839075341251    -0.014834891609     1.007825032230
         H           -1.740388500525    -0.714516658749    -0.873128891609     1.007825032230
         H           -1.742440500525    -0.686785658749     0.890751108391     1.007825032230

  Basis Set: AUG-CC-PVTZ
    Blend: AUG-CC-PVTZ
  Basis Set: (AUG-CC-PVTZ AUX)
    Blend: AUG-CC-PVTZ-JKFIT
	 Reference Energy          =    -227.8681556551999563 [Eh]
	 Singles Energy            =      -0.0000000000000000 [Eh]
	 Same-Spin Energy          =      -0.2177929476626891 [Eh]
	 Opposite-Spin Energy      =      -0.6768913790558777 [Eh]
	 Correlation Energy        =      -0.8946843267185668 [Eh]
	 Total Energy              =    -228.7628399819185177 [Eh]

	 ================> DF-SCS-MP2 Energies <==================
	-----------------------------------------------------------
	 SCS Same-Spin Scale       =       0.3333333333333333 [-]
	 SCS Opposite-Spin Scale   =       1.2000000000000000 [-]
	 SCS Same-Spin Energy      =      -0.0725976492208964 [Eh]
	 SCS Opposite-Spin Energy  =      -0.8122696548670533 [Eh]
	 SCS Correlation Energy    =      -0.8848673040879497 [Eh]
	 SCS Total Energy          =    -228.7530229592879039 [Eh]
	-----------------------------------------------------------

  Dipole Moment: [D]
     X:    -0.5827      Y:    -1.4574      Z:     0.0033     Total:     1.5696

*** Psi4 exiting successfully. Buy a developer a beer!
