                               Psi4 1.3.2 release

  ==> Input File <==

--------------------------------------------------------------------------
#psi4
#
memory 32 gb

molecule  {
0 1
  C        0.0901110     0.1256610    -0.0006000
  O        0.6108743     1.1150023     0.0000517
  O        0.7645440    -1.0585160    -0.0000760
  H        1.7137310    -0.8171840     0.0013030
  C       -1.3945180    -0.1003110    -0.0000980
  H       -1.9040560     0.8615770    -0.0148950
  H       -1.6785790    -0.6920150    -0.8731890
  H       -1.6806310    -0.6642840     0.8906910
units angstrom
no_reorient  #important for SAPT in psi4, default
symmetry c1  #important for SAPT in psi4, default
}

set PROPERTIES_ORIGIN ["COM"]
properties('MP2/aug-cc-pvtz', properties = ['dipole'])
--------------------------------------------------------------------------

    Molecular point group: c1
  Charge       = 0
  Multiplicity = 1
  Basis Set: AUG-CC-PVTZ
    Blend: AUG-CC-PVTZ
  Basis Set: (AUG-CC-PVTZ AUX)
    Blend: AUG-CC-PVTZ-JKFIT

    Orbital Energies [Eh]
    ---------------------

    Doubly Occupied:

       1A    -20.600647     2A    -20.553154     3A    -11.371110
       4A    -11.240560     5A     -1.498384     6A     -1.382504
       7A     -1.021792     8A     -0.810065     9A     -0.713493
      10A     -0.696466    11A     -0.662956    12A     -0.594550
      13A     -0.568370    14A     -0.558840    15A     -0.502871
      16A     -0.455423

  @DF-RHF Final Energy:  -227.89816124948391

   => Energetics <=

    Nuclear Repulsion Energy =            123.5801601478441256
    One-Electron Energy =                -556.4942730599947254
    Two-Electron Energy =                 205.0159516626666800
    Total Energy =                       -227.8981612494839055
  Basis Set: (AUG-CC-PVTZ AUX)
    Blend: AUG-CC-PVTZ-RI
    Molecular point group: c1

    Geometry (in Angstrom), charge = 0, multiplicity = 1:

       Center              X                  Y                   Z               Mass
    ------------   -----------------  -----------------  -----------------  -----------------
         C            0.043968848426     0.127568297684    -0.000519626961    12.000000000000
         O            0.564732148426     1.116909597684     0.000132073039    15.994914619570
         O            0.718401848426    -1.056608702316     0.000004373039    15.994914619570
         H            1.667588848426    -0.815276702316     0.001383373039     1.007825032230
         C           -1.440660151574    -0.098403702316    -0.000017626961    12.000000000000
         H           -1.950198151574     0.863484297684    -0.014814626961     1.007825032230
         H           -1.724721151574    -0.690107702316    -0.873108626961     1.007825032230
         H           -1.726773151574    -0.662376702316     0.890771373039     1.007825032230

  Basis Set: AUG-CC-PVTZ
    Blend: AUG-CC-PVTZ
  Basis Set: (AUG-CC-PVTZ AUX)
    Blend: AUG-CC-PVTZ-JKFIT
	 Reference Energy          =    -227.8981612494839055 [Eh]
	 Singles Energy            =      -0.0000000000000000 [Eh]
	 Same-Spin Energy          =      -0.2128996101282697 [Eh]
	 Opposite-Spin Energy      =      -0.6643830064983741 [Eh]
	 Correlation Energy        =      -0.8772826166266439 [Eh]
	 Total Energy              =    -228.7754438661105496 [Eh]

	 ================> DF-SCS-MP2 Energies <==================
	-----------------------------------------------------------
	 SCS Same-Spin Scale       =       0.3333333333333333 [-]
	 SCS Opposite-Spin Scale   =       1.2000000000000000 [-]
	 SCS Same-Spin Energy      =      -0.0709665367094232 [Eh]
	 SCS Opposite-Spin Energy  =      -0.7972596077980489 [Eh]
	 SCS Correlation Energy    =      -0.8682261445074722 [Eh]
	 SCS Total Energy          =    -228.7663873939913799 [Eh]
	-----------------------------------------------------------

  Dipole Moment: [D]
     X:    -0.6216      Y:    -0.9400      Z:     0.0029     Total:     1.1270

*** Psi4 exiting successfully. Buy a developer a beer!
