                               Psi4 1.3.2 release

  ==> Input File <==

--------------------------------------------------------------------------
#psi4
#
memory 32 gb

molecule  {
0 1
  C        0.1318490     0.1484770    -0.0005353
  O        0.6574530     1.2034920     0.0001100
  O        0.7645440    -1.0585160    -0.0000760
  H        1.7137310    -0.8171840     0.0013030
  C       -1.3945180    -0.1003110    -0.0000980
  H       -1.9040560     0.8615770    -0.0148950
  H       -1.6785790    -0.6920150    -0.8731890
  H       -1.6806310    -0.6642840     0.8906910
units angstrom
no_reorient  #important for SAPT in psi4, default
symmetry c1  #important for SAPT in psi4, default
}

set PROPERTIES_ORIGIN ["COM"]
properties('MP2/aug-cc-pvtz', properties = ['dipole'])
--------------------------------------------------------------------------

    Molecular point group: c1
  Charge       = 0
  Multiplicity = 1
  Basis Set: AUG-CC-PVTZ
    Blend: AUG-CC-PVTZ
  Basis Set: (AUG-CC-PVTZ AUX)
    Blend: AUG-CC-PVTZ-JKFIT

    Orbital Energies [Eh]
    ---------------------

    Doubly Occupied:

       1A    -20.616910     2A    -20.559530     3A    -11.390331
       4A    -11.246017     5A     -1.472315     6A     -1.378965
       7A     -1.013485     8A     -0.816177     9A     -0.712777
      10A     -0.683724    11A     -0.651621    12A     -0.593030
      13A     -0.565784    14A     -0.560574    15A     -0.497592
      16A     -0.456082

  @DF-RHF Final Energy:  -227.90289235075494

   => Energetics <=

    Nuclear Repulsion Energy =            120.8519647084950890
    One-Electron Energy =                -551.0798853051804826
    Two-Electron Energy =                 202.3250282459304685
    Total Energy =                       -227.9028923507549393
  Basis Set: (AUG-CC-PVTZ AUX)
    Blend: AUG-CC-PVTZ-RI
    Molecular point group: c1

    Geometry (in Angstrom), charge = 0, multiplicity = 1:

       Center              X                  Y                   Z               Mass
    ------------   -----------------  -----------------  -----------------  -----------------
         C            0.064949519421     0.122241255159    -0.000483398660    12.000000000000
         O            0.590553519421     1.177256255159     0.000161901340    15.994914619570
         O            0.697644519421    -1.084751744841    -0.000024098660    15.994914619570
         H            1.646831519421    -0.843419744841     0.001354901340     1.007825032230
         C           -1.461417480579    -0.126546744841    -0.000046098660    12.000000000000
         H           -1.970955480579     0.835341255159    -0.014843098660     1.007825032230
         H           -1.745478480579    -0.718250744841    -0.873137098660     1.007825032230
         H           -1.747530480579    -0.690519744841     0.890742901340     1.007825032230

  Basis Set: AUG-CC-PVTZ
    Blend: AUG-CC-PVTZ
  Basis Set: (AUG-CC-PVTZ AUX)
    Blend: AUG-CC-PVTZ-JKFIT
	 Reference Energy          =    -227.9028923507549393 [Eh]
	 Singles Energy            =      -0.0000000000000000 [Eh]
	 Same-Spin Energy          =      -0.2144116602510340 [Eh]
	 Opposite-Spin Energy      =      -0.6688198043448409 [Eh]
	 Correlation Energy        =      -0.8832314645958749 [Eh]
	 Total Energy              =    -228.7861238153508054 [Eh]

	 ================> DF-SCS-MP2 Energies <==================
	-----------------------------------------------------------
	 SCS Same-Spin Scale       =       0.3333333333333333 [-]
	 SCS Opposite-Spin Scale   =       1.2000000000000000 [-]
	 SCS Same-Spin Energy      =      -0.0714705534170113 [Eh]
	 SCS Opposite-Spin Energy  =      -0.8025837652138090 [Eh]
	 SCS Correlation Energy    =      -0.8740543186308204 [Eh]
	 SCS Total Energy          =    -228.7769466693857510 [Eh]
	-----------------------------------------------------------

  Dipole Moment: [D]
     X:    -0.5586      Y:    -1.2931      Z:     0.0029     Total:     1.4086

*** Psi4 exiting successfully. Buy a developer a beer!
