                               Psi4 1.4a3.dev225

  ==> Input File <==

--------------------------------------------------------------------------
#psi4
#
memory 32 gb

molecule  {
0 1
  C       -0.0901920     0.1257170     0.0000000
  O       -0.6581530     1.2031790     0.0000000
  O       -0.7886791    -1.1022631     0.0000000
  H       -1.7131600    -0.8179640     0.0000010
  C        1.3945970    -0.0997450     0.0000000
  H        1.9039530     0.8623950    -0.0000090
  H        1.6798310    -0.6776310     0.8820670
  H        1.6798300    -0.6776490    -0.8820560
units angstrom
no_reorient  #important for SAPT in psi4, default
symmetry c1  #important for SAPT in psi4, default
}

set PROPERTIES_ORIGIN ["COM"]
properties('MP2/aug-cc-pvtz', properties = ['dipole'])
--------------------------------------------------------------------------

    Molecular point group: c1
  Charge       = 0
  Multiplicity = 1
  Basis Set: AUG-CC-PVTZ
    Blend: AUG-CC-PVTZ
  Basis Set: (AUG-CC-PVTZ AUX)
    Blend: AUG-CC-PVTZ-JKFIT

    Orbital Energies [Eh]
    ---------------------

    Doubly Occupied:

       1A    -20.613018     2A    -20.563295     3A    -11.401344
       4A    -11.252729     5A     -1.449027     6A     -1.359219
       7A     -1.031250     8A     -0.808419     9A     -0.707215
      10A     -0.676049    11A     -0.643811    12A     -0.591861
      13A     -0.576858    14A     -0.560746    15A     -0.489088
      16A     -0.460625

  @DF-RHF Final Energy:  -227.89871997679930

   => Energetics <=

    Nuclear Repulsion Energy =            119.4534116882495738
    One-Electron Energy =                -548.3351554324972312
    Two-Electron Energy =                 200.9830237674483726
    Total Energy =                       -227.8987199767992990
  Basis Set: (AUG-CC-PVTZ AUX)
    Blend: AUG-CC-PVTZ-RI
    Molecular point group: c1

    Geometry (in Angstrom), charge = 0, multiplicity = 1:

       Center              X                  Y                   Z               Mass
    ------------   -----------------  -----------------  -----------------  -----------------
         C           -0.025033954283     0.115642235081    -0.000000050374    12.000000000000
         O           -0.592994954283     1.193104235081    -0.000000050374    15.994914619570
         O           -0.723521054283    -1.112337864919    -0.000000050374    15.994914619570
         H           -1.648001954283    -0.828038764919     0.000000949626     1.007825032230
         C            1.459755045717    -0.109819764919    -0.000000050374    12.000000000000
         H            1.969111045717     0.852320235081    -0.000009050374     1.007825032230
         H            1.744989045717    -0.687705764919     0.882066949626     1.007825032230
         H            1.744988045717    -0.687723764919    -0.882056050374     1.007825032230

  Basis Set: AUG-CC-PVTZ
    Blend: AUG-CC-PVTZ
  Basis Set: (AUG-CC-PVTZ AUX)
    Blend: AUG-CC-PVTZ-JKFIT
	 Reference Energy          =    -227.8987199767992990 [Eh]
	 Singles Energy            =      -0.0000000000000000 [Eh]
	 Same-Spin Energy          =      -0.2157103871140489 [Eh]
	 Opposite-Spin Energy      =      -0.6720851895007268 [Eh]
	 Correlation Energy        =      -0.8877955766147758 [Eh]
	 Total Energy              =    -228.7865155534140627 [Eh]

	 ================> DF-SCS-MP2 Energies <==================
	-----------------------------------------------------------
	 SCS Same-Spin Scale       =       0.3333333333333333 [-]
	 SCS Opposite-Spin Scale   =       1.2000000000000000 [-]
	 SCS Same-Spin Energy      =      -0.0719034623713496 [Eh]
	 SCS Opposite-Spin Energy  =      -0.8065022274008722 [Eh]
	 SCS Correlation Energy    =      -0.8784056897722218 [Eh]
	 SCS Total Energy          =    -228.7771256665715214 [Eh]
	-----------------------------------------------------------

  Dipole Moment: [D]
     X:     0.9681      Y:    -1.1780      Z:     0.0000     Total:     1.5248

*** Psi4 exiting successfully. Buy a developer a beer!
