                               Psi4 1.3.2 release

  ==> Input File <==

--------------------------------------------------------------------------
#psi4
#
memory 32 gb

molecule  {
0 1
  C        0.0901110     0.1256610    -0.0006000
  O        0.6574530     1.2034920     0.0001100
  O        0.7645440    -1.0585160    -0.0000760
  H        1.7137310    -0.8171840     0.0013030
  C       -1.1967952    -0.0702161    -0.0001649
  H       -1.9040560     0.8615770    -0.0148950
  H       -1.6785790    -0.6920150    -0.8731890
  H       -1.6806310    -0.6642840     0.8906910
units angstrom
no_reorient  #important for SAPT in psi4, default
symmetry c1  #important for SAPT in psi4, default
}

set PROPERTIES_ORIGIN ["COM"]
properties('MP2/aug-cc-pvtz', properties = ['dipole'])
--------------------------------------------------------------------------

    Molecular point group: c1
  Charge       = 0
  Multiplicity = 1
  Basis Set: AUG-CC-PVTZ
    Blend: AUG-CC-PVTZ
  Basis Set: (AUG-CC-PVTZ AUX)
    Blend: AUG-CC-PVTZ-JKFIT

    Orbital Energies [Eh]
    ---------------------

    Doubly Occupied:

       1A    -20.612738     2A    -20.549713     3A    -11.381357
       4A    -11.256978     5A     -1.463991     6A     -1.357653
       7A     -1.072164     8A     -0.814197     9A     -0.714816
      10A     -0.698004    11A     -0.656593    12A     -0.603075
      13A     -0.536552    14A     -0.531266    15A     -0.475785
      16A     -0.461656

  @DF-RHF Final Energy:  -227.85062479417604

   => Energetics <=

    Nuclear Repulsion Energy =            123.6362394092851531
    One-Electron Energy =                -556.6006592726306508
    Two-Electron Energy =                 205.1137950691694414
    Total Energy =                       -227.8506247941760421
  Basis Set: (AUG-CC-PVTZ AUX)
    Blend: AUG-CC-PVTZ-RI
    Molecular point group: c1

    Geometry (in Angstrom), charge = 0, multiplicity = 1:

       Center              X                  Y                   Z               Mass
    ------------   -----------------  -----------------  -----------------  -----------------
         C           -0.007974458246     0.097969987641    -0.000521787926    12.000000000000
         O            0.559367541754     1.175800987641     0.000188212074    15.994914619570
         O            0.666458541754    -1.086207012359     0.000002212074    15.994914619570
         H            1.615645541754    -0.844875012359     0.001381212074     1.007825032230
         C           -1.294880658246    -0.097907112359    -0.000086687926    12.000000000000
         H           -2.002141458246     0.833885987641    -0.014816787926     1.007825032230
         H           -1.776664458246    -0.719706012359    -0.873110787926     1.007825032230
         H           -1.778716458246    -0.691975012359     0.890769212074     1.007825032230

  Basis Set: AUG-CC-PVTZ
    Blend: AUG-CC-PVTZ
  Basis Set: (AUG-CC-PVTZ AUX)
    Blend: AUG-CC-PVTZ-JKFIT
	 Reference Energy          =    -227.8506247941760421 [Eh]
	 Singles Energy            =      -0.0000000000000000 [Eh]
	 Same-Spin Energy          =      -0.2183782312399050 [Eh]
	 Opposite-Spin Energy      =      -0.6745216332518017 [Eh]
	 Correlation Energy        =      -0.8928998644917067 [Eh]
	 Total Energy              =    -228.7435246586677522 [Eh]

	 ================> DF-SCS-MP2 Energies <==================
	-----------------------------------------------------------
	 SCS Same-Spin Scale       =       0.3333333333333333 [-]
	 SCS Opposite-Spin Scale   =       1.2000000000000000 [-]
	 SCS Same-Spin Energy      =      -0.0727927437466350 [Eh]
	 SCS Opposite-Spin Energy  =      -0.8094259599021620 [Eh]
	 SCS Correlation Energy    =      -0.8822187036487971 [Eh]
	 SCS Total Energy          =    -228.7328434978248310 [Eh]
	-----------------------------------------------------------

  Dipole Moment: [D]
     X:    -1.1598      Y:    -1.5442      Z:     0.0050     Total:     1.9313

*** Psi4 exiting successfully. Buy a developer a beer!
