                               Psi4 1.3.2 release

  ==> Input File <==

--------------------------------------------------------------------------
#psi4
#
memory 32 gb

molecule  {
0 1
  C        0.0491947     0.1014023    -0.0006641
  O        0.6574530     1.2034920     0.0001100
  O        0.7645440    -1.0585160    -0.0000760
  H        1.7137310    -0.8171840     0.0013030
  C       -1.3945180    -0.1003110    -0.0000980
  H       -1.9040560     0.8615770    -0.0148950
  H       -1.6785790    -0.6920150    -0.8731890
  H       -1.6806310    -0.6642840     0.8906910
units angstrom
no_reorient  #important for SAPT in psi4, default
symmetry c1  #important for SAPT in psi4, default
}

set PROPERTIES_ORIGIN ["COM"]
properties('MP2/aug-cc-pvtz', properties = ['dipole'])
--------------------------------------------------------------------------

    Molecular point group: c1
  Charge       = 0
  Multiplicity = 1
  Basis Set: AUG-CC-PVTZ
    Blend: AUG-CC-PVTZ
  Basis Set: (AUG-CC-PVTZ AUX)
    Blend: AUG-CC-PVTZ-JKFIT

    Orbital Energies [Eh]
    ---------------------

    Doubly Occupied:

       1A    -20.618458     2A    -20.549002     3A    -11.398933
       4A    -11.252390     5A     -1.454290     6A     -1.335724
       7A     -1.046548     8A     -0.824605     9A     -0.702148
      10A     -0.678325    11A     -0.650967    12A     -0.584872
      13A     -0.575863    14A     -0.564769    15A     -0.470184
      16A     -0.455542

  @DF-RHF Final Energy:  -227.89558477945241

   => Energetics <=

    Nuclear Repulsion Energy =            120.3508446230340070
    One-Electron Energy =                -550.1676145799435744
    Two-Electron Energy =                 201.9211851774571755
    Total Energy =                       -227.8955847794524061
  Basis Set: (AUG-CC-PVTZ AUX)
    Blend: AUG-CC-PVTZ-RI
    Molecular point group: c1

    Geometry (in Angstrom), charge = 0, multiplicity = 1:

       Center              X                  Y                   Z               Mass
    ------------   -----------------  -----------------  -----------------  -----------------
         C           -0.001179739974     0.084578180798    -0.000586447729    12.000000000000
         O            0.607078560026     1.186667880798     0.000187652271    15.994914619570
         O            0.714169560026    -1.075340119202     0.000001652271    15.994914619570
         H            1.663356560026    -0.834008119202     0.001380652271     1.007825032230
         C           -1.444892439974    -0.117135119202    -0.000020347729    12.000000000000
         H           -1.954430439974     0.844752880798    -0.014817347729     1.007825032230
         H           -1.728953439974    -0.708839119202    -0.873111347729     1.007825032230
         H           -1.731005439974    -0.681108119202     0.890768652271     1.007825032230

  Basis Set: AUG-CC-PVTZ
    Blend: AUG-CC-PVTZ
  Basis Set: (AUG-CC-PVTZ AUX)
    Blend: AUG-CC-PVTZ-JKFIT
	 Reference Energy          =    -227.8955847794524061 [Eh]
	 Singles Energy            =      -0.0000000000000000 [Eh]
	 Same-Spin Energy          =      -0.2164408186616915 [Eh]
	 Opposite-Spin Energy      =      -0.6724736796748976 [Eh]
	 Correlation Energy        =      -0.8889144983365891 [Eh]
	 Total Energy              =    -228.7844992777889956 [Eh]

	 ================> DF-SCS-MP2 Energies <==================
	-----------------------------------------------------------
	 SCS Same-Spin Scale       =       0.3333333333333333 [-]
	 SCS Opposite-Spin Scale   =       1.2000000000000000 [-]
	 SCS Same-Spin Energy      =      -0.0721469395538971 [Eh]
	 SCS Opposite-Spin Energy  =      -0.8069684156098771 [Eh]
	 SCS Correlation Energy    =      -0.8791153551637743 [Eh]
	 SCS Total Energy          =    -228.7747001346161824 [Eh]
	-----------------------------------------------------------

  Dipole Moment: [D]
     X:    -1.0306      Y:    -1.6419      Z:     0.0032     Total:     1.9386

*** Psi4 exiting successfully. Buy a developer a beer!
