                               Psi4 1.3.2 release

  ==> Input File <==

--------------------------------------------------------------------------
#psi4
#
memory 32 gb

molecule  {
0 1
  C        0.0695470     0.1137102    -0.0006321
  O        0.6574530     1.2034920     0.0001100
  O        0.7645440    -1.0585160    -0.0000760
  H        1.7137310    -0.8171840     0.0013030
  C       -1.3945180    -0.1003110    -0.0000980
  H       -1.9040560     0.8615770    -0.0148950
  H       -1.6785790    -0.6920150    -0.8731890
  H       -1.6806310    -0.6642840     0.8906910
units angstrom
no_reorient  #important for SAPT in psi4, default
symmetry c1  #important for SAPT in psi4, default
}

set PROPERTIES_ORIGIN ["COM"]
properties('MP2/aug-cc-pvtz', properties = ['dipole'])
--------------------------------------------------------------------------

    Molecular point group: c1
  Charge       = 0
  Multiplicity = 1
  Basis Set: AUG-CC-PVTZ
    Blend: AUG-CC-PVTZ
  Basis Set: (AUG-CC-PVTZ AUX)
    Blend: AUG-CC-PVTZ-JKFIT

    Orbital Energies [Eh]
    ---------------------

    Doubly Occupied:

       1A    -20.617934     2A    -20.551698     3A    -11.396732
       4A    -11.251051     5A     -1.457455     6A     -1.347364
       7A     -1.037983     8A     -0.822501     9A     -0.704195
      10A     -0.678732    11A     -0.650197    12A     -0.581757
      13A     -0.578989    14A     -0.563922    15A     -0.477235
      16A     -0.457046

  @DF-RHF Final Energy:  -227.90023844635903

   => Energetics <=

    Nuclear Repulsion Energy =            120.4615685593880130
    One-Electron Energy =                -550.3740329442454140
    Two-Electron Energy =                 202.0122259384983749
    Total Energy =                       -227.9002384463590261
  Basis Set: (AUG-CC-PVTZ AUX)
    Blend: AUG-CC-PVTZ-RI
    Molecular point group: c1

    Geometry (in Angstrom), charge = 0, multiplicity = 1:

       Center              X                  Y                   Z               Mass
    ------------   -----------------  -----------------  -----------------  -----------------
         C            0.015103532959     0.094425367353    -0.000560845476    12.000000000000
         O            0.603009532959     1.184207167353     0.000181254524    15.994914619570
         O            0.710100532959    -1.077800832647    -0.000004745476    15.994914619570
         H            1.659287532959    -0.836468832647     0.001374254524     1.007825032230
         C           -1.448961467041    -0.119595832647    -0.000026745476    12.000000000000
         H           -1.958499467041     0.842292167353    -0.014823745476     1.007825032230
         H           -1.733022467041    -0.711299832647    -0.873117745476     1.007825032230
         H           -1.735074467041    -0.683568832647     0.890762254524     1.007825032230

  Basis Set: AUG-CC-PVTZ
    Blend: AUG-CC-PVTZ
  Basis Set: (AUG-CC-PVTZ AUX)
    Blend: AUG-CC-PVTZ-JKFIT
	 Reference Energy          =    -227.9002384463590261 [Eh]
	 Singles Energy            =      -0.0000000000000000 [Eh]
	 Same-Spin Energy          =      -0.2158519862707963 [Eh]
	 Opposite-Spin Energy      =      -0.6714183913830882 [Eh]
	 Correlation Energy        =      -0.8872703776538846 [Eh]
	 Total Energy              =    -228.7875088240129173 [Eh]

	 ================> DF-SCS-MP2 Energies <==================
	-----------------------------------------------------------
	 SCS Same-Spin Scale       =       0.3333333333333333 [-]
	 SCS Opposite-Spin Scale   =       1.2000000000000000 [-]
	 SCS Same-Spin Energy      =      -0.0719506620902654 [Eh]
	 SCS Opposite-Spin Energy  =      -0.8057020696597058 [Eh]
	 SCS Correlation Energy    =      -0.8776527317499713 [Eh]
	 SCS Total Energy          =    -228.7778911781090017 [Eh]
	-----------------------------------------------------------

  Dipole Moment: [D]
     X:    -0.9194      Y:    -1.5568      Z:     0.0031     Total:     1.8081

*** Psi4 exiting successfully. Buy a developer a beer!
