                               Psi4 1.4a3.dev225

  ==> Input File <==

--------------------------------------------------------------------------
#psi4
#
memory 32 gb

molecule  {
0 1
  C       -0.0901920     0.1257170     0.0000000
  O       -0.6581530     1.2031790     0.0000000
  O       -0.7392369    -1.0153409     0.0000000
  H       -1.7131600    -0.8179640     0.0000010
  C        1.3945970    -0.0997450     0.0000000
  H        1.9039530     0.8623950    -0.0000090
  H        1.6798310    -0.6776310     0.8820670
  H        1.6798300    -0.6776490    -0.8820560
units angstrom
no_reorient  #important for SAPT in psi4, default
symmetry c1  #important for SAPT in psi4, default
}

set PROPERTIES_ORIGIN ["COM"]
properties('MP2/aug-cc-pvtz', properties = ['dipole'])
--------------------------------------------------------------------------

    Molecular point group: c1
  Charge       = 0
  Multiplicity = 1
  Basis Set: AUG-CC-PVTZ
    Blend: AUG-CC-PVTZ
  Basis Set: (AUG-CC-PVTZ AUX)
    Blend: AUG-CC-PVTZ-JKFIT

    Orbital Energies [Eh]
    ---------------------

    Doubly Occupied:

       1A    -20.621954     2A    -20.544873     3A    -11.387290
       4A    -11.246432     5A     -1.477862     6A     -1.356037
       7A     -1.028115     8A     -0.833224     9A     -0.706630
      10A     -0.683036    11A     -0.658451    12A     -0.581220
      13A     -0.569316    14A     -0.564576    15A     -0.478659
      16A     -0.453934

  @DF-RHF Final Energy:  -227.90337004511929

   => Energetics <=

    Nuclear Repulsion Energy =            121.7691250053864565
    One-Electron Energy =                -552.9617754704353274
    Two-Electron Energy =                 203.2892804199295824
    Total Energy =                       -227.9033700451192885
  Basis Set: (AUG-CC-PVTZ AUX)
    Blend: AUG-CC-PVTZ-RI
    Molecular point group: c1

    Geometry (in Angstrom), charge = 0, multiplicity = 1:

       Center              X                  Y                   Z               Mass
    ------------   -----------------  -----------------  -----------------  -----------------
         C           -0.038209710486     0.092478506204    -0.000000050374    12.000000000000
         O           -0.606170710486     1.169940506204    -0.000000050374    15.994914619570
         O           -0.687254610486    -1.048579393796    -0.000000050374    15.994914619570
         H           -1.661177710486    -0.851202493796     0.000000949626     1.007825032230
         C            1.446579289514    -0.132983493796    -0.000000050374    12.000000000000
         H            1.955935289514     0.829156506204    -0.000009050374     1.007825032230
         H            1.731813289514    -0.710869493796     0.882066949626     1.007825032230
         H            1.731812289514    -0.710887493796    -0.882056050374     1.007825032230

  Basis Set: AUG-CC-PVTZ
    Blend: AUG-CC-PVTZ
  Basis Set: (AUG-CC-PVTZ AUX)
    Blend: AUG-CC-PVTZ-JKFIT
	 Reference Energy          =    -227.9033700451192885 [Eh]
	 Singles Energy            =      -0.0000000000000000 [Eh]
	 Same-Spin Energy          =      -0.2150258872804032 [Eh]
	 Opposite-Spin Energy      =      -0.6690230056138009 [Eh]
	 Correlation Energy        =      -0.8840488928942041 [Eh]
	 Total Energy              =    -228.7874189380135022 [Eh]

	 ================> DF-SCS-MP2 Energies <==================
	-----------------------------------------------------------
	 SCS Same-Spin Scale       =       0.3333333333333333 [-]
	 SCS Opposite-Spin Scale   =       1.2000000000000000 [-]
	 SCS Same-Spin Energy      =      -0.0716752957601344 [Eh]
	 SCS Opposite-Spin Energy  =      -0.8028276067365611 [Eh]
	 SCS Correlation Energy    =      -0.8745029024966955 [Eh]
	 SCS Total Energy          =    -228.7778729476159754 [Eh]
	-----------------------------------------------------------

  Dipole Moment: [D]
     X:     0.6460      Y:    -1.7689      Z:     0.0000     Total:     1.8832

*** Psi4 exiting successfully. Buy a developer a beer!
