                               Psi4 1.3.2 release

  ==> Input File <==

--------------------------------------------------------------------------
#psi4
#
memory 32 gb

molecule  {
0 1
  C        0.0901110     0.1256610    -0.0006000
  O        0.7312566     1.1612907     0.0001787
  O        0.7645440    -1.0585160    -0.0000760
  H        1.7137310    -0.8171840     0.0013030
  C       -1.3945180    -0.1003110    -0.0000980
  H       -1.9040560     0.8615770    -0.0148950
  H       -1.6785790    -0.6920150    -0.8731890
  H       -1.6806310    -0.6642840     0.8906910
units angstrom
no_reorient  #important for SAPT in psi4, default
symmetry c1  #important for SAPT in psi4, default
}

set PROPERTIES_ORIGIN ["COM"]
properties('MP2/aug-cc-pvtz', properties = ['dipole'])
--------------------------------------------------------------------------

    Molecular point group: c1
  Charge       = 0
  Multiplicity = 1
  Basis Set: AUG-CC-PVTZ
    Blend: AUG-CC-PVTZ
  Basis Set: (AUG-CC-PVTZ AUX)
    Blend: AUG-CC-PVTZ-JKFIT

    Orbital Energies [Eh]
    ---------------------

    Doubly Occupied:

       1A    -20.610489     2A    -20.553053     3A    -11.394400
       4A    -11.254352     5A     -1.461642     6A     -1.352050
       7A     -1.033491     8A     -0.818257     9A     -0.703962
      10A     -0.679495    11A     -0.649614    12A     -0.585503
      13A     -0.577146    14A     -0.564124    15A     -0.481065
      16A     -0.457983

  @DF-RHF Final Energy:  -227.90202892528461

   => Energetics <=

    Nuclear Repulsion Energy =            120.7008088346386074
    One-Electron Energy =                -550.8524256678886104
    Two-Electron Energy =                 202.2495879079653776
    Total Energy =                       -227.9020289252846112
  Basis Set: (AUG-CC-PVTZ AUX)
    Blend: AUG-CC-PVTZ-RI
    Molecular point group: c1

    Geometry (in Angstrom), charge = 0, multiplicity = 1:

       Center              X                  Y                   Z               Mass
    ------------   -----------------  -----------------  -----------------  -----------------
         C            0.011888402249     0.115232991540    -0.000553470946    12.000000000000
         O            0.653034002249     1.150862691540     0.000225229054    15.994914619570
         O            0.686321402249    -1.068944008460    -0.000029470946    15.994914619570
         H            1.635508402249    -0.827612008460     0.001349529054     1.007825032230
         C           -1.472740597751    -0.110739008460    -0.000051470946    12.000000000000
         H           -1.982278597751     0.851148991540    -0.014848470946     1.007825032230
         H           -1.756801597751    -0.702443008460    -0.873142470946     1.007825032230
         H           -1.758853597751    -0.674712008460     0.890737529054     1.007825032230

  Basis Set: AUG-CC-PVTZ
    Blend: AUG-CC-PVTZ
  Basis Set: (AUG-CC-PVTZ AUX)
    Blend: AUG-CC-PVTZ-JKFIT
	 Reference Energy          =    -227.9020289252846112 [Eh]
	 Singles Energy            =      -0.0000000000000000 [Eh]
	 Same-Spin Energy          =      -0.2152654275607075 [Eh]
	 Opposite-Spin Energy      =      -0.6702443608196744 [Eh]
	 Correlation Energy        =      -0.8855097883803820 [Eh]
	 Total Energy              =    -228.7875387136649863 [Eh]

	 ================> DF-SCS-MP2 Energies <==================
	-----------------------------------------------------------
	 SCS Same-Spin Scale       =       0.3333333333333333 [-]
	 SCS Opposite-Spin Scale   =       1.2000000000000000 [-]
	 SCS Same-Spin Energy      =      -0.0717551425202358 [Eh]
	 SCS Opposite-Spin Energy  =      -0.8042932329836093 [Eh]
	 SCS Correlation Energy    =      -0.8760483755038452 [Eh]
	 SCS Total Energy          =    -228.7780773007884534 [Eh]
	-----------------------------------------------------------

  Dipole Moment: [D]
     X:    -1.0453      Y:    -1.3793      Z:     0.0029     Total:     1.7307

*** Psi4 exiting successfully. Buy a developer a beer!
