                               Psi4 1.3.2 release

  ==> Input File <==

--------------------------------------------------------------------------
#psi4
#
memory 32 gb

molecule  {
0 1
  C        0.0901110     0.1256610    -0.0006000
  O        0.6574530     1.2034920     0.0001100
  O        0.8635239    -1.2323060     0.0000009
  H        1.7137310    -0.8171840     0.0013030
  C       -1.3945180    -0.1003110    -0.0000980
  H       -1.9040560     0.8615770    -0.0148950
  H       -1.6785790    -0.6920150    -0.8731890
  H       -1.6806310    -0.6642840     0.8906910
units angstrom
no_reorient  #important for SAPT in psi4, default
symmetry c1  #important for SAPT in psi4, default
}

set PROPERTIES_ORIGIN ["COM"]
properties('MP2/aug-cc-pvtz', properties = ['dipole'])
--------------------------------------------------------------------------

    Molecular point group: c1
  Charge       = 0
  Multiplicity = 1
  Basis Set: AUG-CC-PVTZ
    Blend: AUG-CC-PVTZ
  Basis Set: (AUG-CC-PVTZ AUX)
    Blend: AUG-CC-PVTZ-JKFIT

    Orbital Energies [Eh]
    ---------------------

    Doubly Occupied:

       1A    -20.600289     2A    -20.587561     3A    -11.419450
       4A    -11.262207     5A     -1.434476     6A     -1.346878
       7A     -1.037185     8A     -0.784092     9A     -0.701077
      10A     -0.668932    11A     -0.635791    12A     -0.609529
      13A     -0.576591    14A     -0.553538    15A     -0.498445
      16A     -0.463338

  @DF-RHF Final Energy:  -227.87112309616850

   => Energetics <=

    Nuclear Repulsion Energy =            116.3395824851144198
    One-Electron Energy =                -542.0626542571004620
    Two-Electron Energy =                 197.8519486758175390
    Total Energy =                       -227.8711230961685033
  Basis Set: (AUG-CC-PVTZ AUX)
    Blend: AUG-CC-PVTZ-RI
    Molecular point group: c1

    Geometry (in Angstrom), charge = 0, multiplicity = 1:

       Center              X                  Y                   Z               Mass
    ------------   -----------------  -----------------  -----------------  -----------------
         C            0.005179218780     0.150299809568    -0.000555656148    12.000000000000
         O            0.572521218780     1.228130809568     0.000154343852    15.994914619570
         O            0.778592118780    -1.207667190432     0.000045243852    15.994914619570
         H            1.628799218780    -0.792545190432     0.001347343852     1.007825032230
         C           -1.479449781220    -0.075672190432    -0.000053656148    12.000000000000
         H           -1.988987781220     0.886215809568    -0.014850656148     1.007825032230
         H           -1.763510781220    -0.667376190432    -0.873144656148     1.007825032230
         H           -1.765562781220    -0.639645190432     0.890735343852     1.007825032230

  Basis Set: AUG-CC-PVTZ
    Blend: AUG-CC-PVTZ
  Basis Set: (AUG-CC-PVTZ AUX)
    Blend: AUG-CC-PVTZ-JKFIT
	 Reference Energy          =    -227.8711230961685033 [Eh]
	 Singles Energy            =      -0.0000000000000000 [Eh]
	 Same-Spin Energy          =      -0.2175390682225102 [Eh]
	 Opposite-Spin Energy      =      -0.6782768631737526 [Eh]
	 Correlation Energy        =      -0.8958159313962628 [Eh]
	 Total Energy              =    -228.7669390275647743 [Eh]

	 ================> DF-SCS-MP2 Energies <==================
	-----------------------------------------------------------
	 SCS Same-Spin Scale       =       0.3333333333333333 [-]
	 SCS Opposite-Spin Scale   =       1.2000000000000000 [-]
	 SCS Same-Spin Energy      =      -0.0725130227408367 [Eh]
	 SCS Opposite-Spin Energy  =      -0.8139322358085030 [Eh]
	 SCS Correlation Energy    =      -0.8864452585493398 [Eh]
	 SCS Total Energy          =    -228.7575683547178471 [Eh]
	-----------------------------------------------------------

  Dipole Moment: [D]
     X:    -1.4709      Y:    -0.3352      Z:     0.0030     Total:     1.5087

*** Psi4 exiting successfully. Buy a developer a beer!
