                               Psi4 1.4a3.dev225

  ==> Input File <==

--------------------------------------------------------------------------
#psi4
#
memory 32 gb

molecule  {
0 1
  C       -0.0901920     0.1257170     0.0000000
  O       -0.6814685     1.2474101     0.0000000
  O       -0.7639580    -1.0588020     0.0000000
  H       -1.7131600    -0.8179640     0.0000010
  C        1.3945970    -0.0997450     0.0000000
  H        1.9039530     0.8623950    -0.0000090
  H        1.6798310    -0.6776310     0.8820670
  H        1.6798300    -0.6776490    -0.8820560
units angstrom
no_reorient  #important for SAPT in psi4, default
symmetry c1  #important for SAPT in psi4, default
}

set PROPERTIES_ORIGIN ["COM"]
properties('MP2/aug-cc-pvtz', properties = ['dipole'])
--------------------------------------------------------------------------

    Molecular point group: c1
  Charge       = 0
  Multiplicity = 1
  Basis Set: AUG-CC-PVTZ
    Blend: AUG-CC-PVTZ
  Basis Set: (AUG-CC-PVTZ AUX)
    Blend: AUG-CC-PVTZ-JKFIT

    Orbital Energies [Eh]
    ---------------------

    Doubly Occupied:

       1A    -20.625420     2A    -20.554296     3A    -11.405367
       4A    -11.253774     5A     -1.455942     6A     -1.337226
       7A     -1.033648     8A     -0.825555     9A     -0.705831
      10A     -0.674224    11A     -0.647667    12A     -0.579209
      13A     -0.577003    14A     -0.565771    15A     -0.472969
      16A     -0.456773

  @DF-RHF Final Energy:  -227.89349233904184

   => Energetics <=

    Nuclear Repulsion Energy =            119.2176696480449181
    One-Electron Energy =                -547.8809725019447114
    Two-Electron Energy =                 200.7698105148579373
    Total Energy =                       -227.8934923390418419
  Basis Set: (AUG-CC-PVTZ AUX)
    Blend: AUG-CC-PVTZ-RI
    Molecular point group: c1

    Geometry (in Angstrom), charge = 0, multiplicity = 1:

       Center              X                  Y                   Z               Mass
    ------------   -----------------  -----------------  -----------------  -----------------
         C           -0.025408529907     0.092273310394    -0.000000050374    12.000000000000
         O           -0.616685029907     1.213966410394    -0.000000050374    15.994914619570
         O           -0.699174529907    -1.092245689606    -0.000000050374    15.994914619570
         H           -1.648376529907    -0.851407689606     0.000000949626     1.007825032230
         C            1.459380470093    -0.133188689606    -0.000000050374    12.000000000000
         H            1.968736470093     0.828951310394    -0.000009050374     1.007825032230
         H            1.744614470093    -0.711074689606     0.882066949626     1.007825032230
         H            1.744613470093    -0.711092689606    -0.882056050374     1.007825032230

  Basis Set: AUG-CC-PVTZ
    Blend: AUG-CC-PVTZ
  Basis Set: (AUG-CC-PVTZ AUX)
    Blend: AUG-CC-PVTZ-JKFIT
	 Reference Energy          =    -227.8934923390418419 [Eh]
	 Singles Energy            =      -0.0000000000000000 [Eh]
	 Same-Spin Energy          =      -0.2166056083753142 [Eh]
	 Opposite-Spin Energy      =      -0.6736285665816457 [Eh]
	 Correlation Energy        =      -0.8902341749569600 [Eh]
	 Total Energy              =    -228.7837265139988006 [Eh]

	 ================> DF-SCS-MP2 Energies <==================
	-----------------------------------------------------------
	 SCS Same-Spin Scale       =       0.3333333333333333 [-]
	 SCS Opposite-Spin Scale   =       1.2000000000000000 [-]
	 SCS Same-Spin Energy      =      -0.0722018694584381 [Eh]
	 SCS Opposite-Spin Energy  =      -0.8083542798979748 [Eh]
	 SCS Correlation Energy    =      -0.8805561493564129 [Eh]
	 SCS Total Energy          =    -228.7740484883982504 [Eh]
	-----------------------------------------------------------

  Dipole Moment: [D]
     X:     0.8861      Y:    -1.7080      Z:     0.0000     Total:     1.9241

*** Psi4 exiting successfully. Buy a developer a beer!
