                               Psi4 1.4a3.dev225

  ==> Input File <==

--------------------------------------------------------------------------
#psi4
#
memory 32 gb

molecule  {
0 1
  C       -0.0901920     0.1257170     0.0000000
  O       -0.6581530     1.2031790     0.0000000
  O       -0.7639580    -1.0588020     0.0000000
  H       -1.6646957    -0.8302607     0.0000009
  C        1.3945970    -0.0997450     0.0000000
  H        1.9039530     0.8623950    -0.0000090
  H        1.6798310    -0.6776310     0.8820670
  H        1.6798300    -0.6776490    -0.8820560
units angstrom
no_reorient  #important for SAPT in psi4, default
symmetry c1  #important for SAPT in psi4, default
}

set PROPERTIES_ORIGIN ["COM"]
properties('MP2/aug-cc-pvtz', properties = ['dipole'])
--------------------------------------------------------------------------

    Molecular point group: c1
  Charge       = 0
  Multiplicity = 1
  Basis Set: AUG-CC-PVTZ
    Blend: AUG-CC-PVTZ
  Basis Set: (AUG-CC-PVTZ AUX)
    Blend: AUG-CC-PVTZ-JKFIT

    Orbital Energies [Eh]
    ---------------------

    Doubly Occupied:

       1A    -20.614064     2A    -20.555361     3A    -11.395526
       4A    -11.249857     5A     -1.469542     6A     -1.363647
       7A     -1.031820     8A     -0.830677     9A     -0.711469
      10A     -0.680990    11A     -0.651390    12A     -0.588613
      13A     -0.576467    14A     -0.564146    15A     -0.485606
      16A     -0.458675

  @DF-RHF Final Energy:  -227.90376572247280

   => Energetics <=

    Nuclear Repulsion Energy =            120.8764932868224093
    One-Electron Energy =                -551.1048188998815931
    Two-Electron Energy =                 202.3245598905863574
    Total Energy =                       -227.9037657224727980
  Basis Set: (AUG-CC-PVTZ AUX)
    Blend: AUG-CC-PVTZ-RI
    Molecular point group: c1

    Geometry (in Angstrom), charge = 0, multiplicity = 1:

       Center              X                  Y                   Z               Mass
    ------------   -----------------  -----------------  -----------------  -----------------
         C           -0.032435604721     0.104266846632    -0.000000048694    12.000000000000
         O           -0.600396604721     1.181728846632    -0.000000048694    15.994914619570
         O           -0.706201604721    -1.080252153368    -0.000000048694    15.994914619570
         H           -1.606939304721    -0.851710853368     0.000000851306     1.007825032230
         C            1.452353395279    -0.121195153368    -0.000000048694    12.000000000000
         H            1.961709395279     0.840944846632    -0.000009048694     1.007825032230
         H            1.737587395279    -0.699081153368     0.882066951306     1.007825032230
         H            1.737586395279    -0.699099153368    -0.882056048694     1.007825032230

  Basis Set: AUG-CC-PVTZ
    Blend: AUG-CC-PVTZ
  Basis Set: (AUG-CC-PVTZ AUX)
    Blend: AUG-CC-PVTZ-JKFIT
	 Reference Energy          =    -227.9037657224727980 [Eh]
	 Singles Energy            =      -0.0000000000000000 [Eh]
	 Same-Spin Energy          =      -0.2146860680835106 [Eh]
	 Opposite-Spin Energy      =      -0.6690160747909109 [Eh]
	 Correlation Energy        =      -0.8837021428744214 [Eh]
	 Total Energy              =    -228.7874678653472245 [Eh]

	 ================> DF-SCS-MP2 Energies <==================
	-----------------------------------------------------------
	 SCS Same-Spin Scale       =       0.3333333333333333 [-]
	 SCS Opposite-Spin Scale   =       1.2000000000000000 [-]
	 SCS Same-Spin Energy      =      -0.0715620226945035 [Eh]
	 SCS Opposite-Spin Energy  =      -0.8028192897490930 [Eh]
	 SCS Correlation Energy    =      -0.8743813124435965 [Eh]
	 SCS Total Energy          =    -228.7781470349164010 [Eh]
	-----------------------------------------------------------

  Dipole Moment: [D]
     X:     0.8648      Y:    -1.4672      Z:     0.0000     Total:     1.7031

*** Psi4 exiting successfully. Buy a developer a beer!
