                               Psi4 1.3.2 release

  ==> Input File <==

--------------------------------------------------------------------------
#psi4
#
memory 32 gb

molecule  {
0 1
  C        0.0901110     0.1256610    -0.0006000
  O        0.7670091     1.1382842    -0.0000015
  O        0.7645440    -1.0585160    -0.0000760
  H        1.7137310    -0.8171840     0.0013030
  C       -1.3945180    -0.1003110    -0.0000980
  H       -1.9040560     0.8615770    -0.0148950
  H       -1.6785790    -0.6920150    -0.8731890
  H       -1.6806310    -0.6642840     0.8906910
units angstrom
no_reorient  #important for SAPT in psi4, default
symmetry c1  #important for SAPT in psi4, default
}

set PROPERTIES_ORIGIN ["COM"]
properties('MP2/aug-cc-pvtz', properties = ['dipole'])
--------------------------------------------------------------------------

    Molecular point group: c1
  Charge       = 0
  Multiplicity = 1
  Basis Set: AUG-CC-PVTZ
    Blend: AUG-CC-PVTZ
  Basis Set: (AUG-CC-PVTZ AUX)
    Blend: AUG-CC-PVTZ-JKFIT

    Orbital Energies [Eh]
    ---------------------

    Doubly Occupied:

       1A    -20.606839     2A    -20.552311     3A    -11.394362
       4A    -11.256700     5A     -1.461997     6A     -1.348517
       7A     -1.035367     8A     -0.817214     9A     -0.702482
      10A     -0.679432    11A     -0.649501    12A     -0.585600
      13A     -0.578252    14A     -0.564680    15A     -0.479303
      16A     -0.457491

  @DF-RHF Final Energy:  -227.90043808317577

   => Energetics <=

    Nuclear Repulsion Energy =            120.7832159883755025
    One-Electron Energy =                -551.0272125585566982
    Two-Electron Energy =                 202.3435584870054242
    Total Energy =                       -227.9004380831757715
  Basis Set: (AUG-CC-PVTZ AUX)
    Blend: AUG-CC-PVTZ-RI
    Molecular point group: c1

    Geometry (in Angstrom), charge = 0, multiplicity = 1:

       Center              X                  Y                   Z               Mass
    ------------   -----------------  -----------------  -----------------  -----------------
         C            0.002360787708     0.121363949206    -0.000505449796    12.000000000000
         O            0.679258887708     1.133987149206     0.000093050204    15.994914619570
         O            0.676793787708    -1.062813050794     0.000018550204    15.994914619570
         H            1.625980787708    -0.821481050794     0.001397550204     1.007825032230
         C           -1.482268212292    -0.104608050794    -0.000003449796    12.000000000000
         H           -1.991806212292     0.857279949206    -0.014800449796     1.007825032230
         H           -1.766329212292    -0.696312050794    -0.873094449796     1.007825032230
         H           -1.768381212292    -0.668581050794     0.890785550204     1.007825032230

  Basis Set: AUG-CC-PVTZ
    Blend: AUG-CC-PVTZ
  Basis Set: (AUG-CC-PVTZ AUX)
    Blend: AUG-CC-PVTZ-JKFIT
	 Reference Energy          =    -227.9004380831757715 [Eh]
	 Singles Energy            =      -0.0000000000000000 [Eh]
	 Same-Spin Energy          =      -0.2152732304348466 [Eh]
	 Opposite-Spin Energy      =      -0.6702072192719939 [Eh]
	 Correlation Energy        =      -0.8854804497068405 [Eh]
	 Total Energy              =    -228.7859185328826186 [Eh]

	 ================> DF-SCS-MP2 Energies <==================
	-----------------------------------------------------------
	 SCS Same-Spin Scale       =       0.3333333333333333 [-]
	 SCS Opposite-Spin Scale   =       1.2000000000000000 [-]
	 SCS Same-Spin Energy      =      -0.0717577434782822 [Eh]
	 SCS Opposite-Spin Energy  =      -0.8042486631263926 [Eh]
	 SCS Correlation Energy    =      -0.8760064066046749 [Eh]
	 SCS Total Energy          =    -228.7764444897804594 [Eh]
	-----------------------------------------------------------

  Dipole Moment: [D]
     X:    -1.1633      Y:    -1.3283      Z:     0.0031     Total:     1.7657

*** Psi4 exiting successfully. Buy a developer a beer!
