                               Psi4 1.3.2 release

  ==> Input File <==

--------------------------------------------------------------------------
#psi4
#
memory 32 gb

molecule  {
0 1
  C        0.0901110     0.1256610    -0.0006000
  O        0.6574530     1.2034920     0.0001100
  O        0.7645440    -1.0585160    -0.0000760
  H        1.8106474    -0.7925429     0.0014438
  C       -1.3945180    -0.1003110    -0.0000980
  H       -1.9040560     0.8615770    -0.0148950
  H       -1.6785790    -0.6920150    -0.8731890
  H       -1.6806310    -0.6642840     0.8906910
units angstrom
no_reorient  #important for SAPT in psi4, default
symmetry c1  #important for SAPT in psi4, default
}

set PROPERTIES_ORIGIN ["COM"]
properties('MP2/aug-cc-pvtz', properties = ['dipole'])
--------------------------------------------------------------------------

    Molecular point group: c1
  Charge       = 0
  Multiplicity = 1
  Basis Set: AUG-CC-PVTZ
    Blend: AUG-CC-PVTZ
  Basis Set: (AUG-CC-PVTZ AUX)
    Blend: AUG-CC-PVTZ-JKFIT

    Orbital Energies [Eh]
    ---------------------

    Doubly Occupied:

       1A    -20.622685     2A    -20.552408     3A    -11.392638
       4A    -11.249097     5A     -1.449362     6A     -1.349260
       7A     -1.025938     8A     -0.803006     9A     -0.696343
      10A     -0.677196    11A     -0.647481    12A     -0.581363
      13A     -0.568182    14A     -0.560710    15A     -0.481513
      16A     -0.455883

  @DF-RHF Final Energy:  -227.88992775831011

   => Energetics <=

    Nuclear Repulsion Energy =            120.0611090748620171
    One-Electron Energy =                -549.6759435890861596
    Two-Electron Energy =                 201.7249067559140201
    Total Energy =                       -227.8899277583101082
  Basis Set: (AUG-CC-PVTZ AUX)
    Blend: AUG-CC-PVTZ-RI
    Molecular point group: c1

    Geometry (in Angstrom), charge = 0, multiplicity = 1:

       Center              X                  Y                   Z               Mass
    ------------   -----------------  -----------------  -----------------  -----------------
         C            0.029928840975     0.103573095848    -0.000537527412    12.000000000000
         O            0.597270840975     1.181404095848     0.000172472588    15.994914619570
         O            0.704361840975    -1.080603904152    -0.000013527412    15.994914619570
         H            1.750465240975    -0.814630804152     0.001506272588     1.007825032230
         C           -1.454700159025    -0.122398904152    -0.000035527412    12.000000000000
         H           -1.964238159025     0.839489095848    -0.014832527412     1.007825032230
         H           -1.738761159025    -0.714102904152    -0.873126527412     1.007825032230
         H           -1.740813159025    -0.686371904152     0.890753472588     1.007825032230

  Basis Set: AUG-CC-PVTZ
    Blend: AUG-CC-PVTZ
  Basis Set: (AUG-CC-PVTZ AUX)
    Blend: AUG-CC-PVTZ-JKFIT
	 Reference Energy          =    -227.8899277583101082 [Eh]
	 Singles Energy            =      -0.0000000000000000 [Eh]
	 Same-Spin Energy          =      -0.2165669415663141 [Eh]
	 Opposite-Spin Energy      =      -0.6735392209431439 [Eh]
	 Correlation Energy        =      -0.8901061625094580 [Eh]
	 Total Energy              =    -228.7800339208195624 [Eh]

	 ================> DF-SCS-MP2 Energies <==================
	-----------------------------------------------------------
	 SCS Same-Spin Scale       =       0.3333333333333333 [-]
	 SCS Opposite-Spin Scale   =       1.2000000000000000 [-]
	 SCS Same-Spin Energy      =      -0.0721889805221047 [Eh]
	 SCS Opposite-Spin Energy  =      -0.8082470651317727 [Eh]
	 SCS Correlation Energy    =      -0.8804360456538773 [Eh]
	 SCS Total Energy          =    -228.7703638039639884 [Eh]
	-----------------------------------------------------------

  Dipole Moment: [D]
     X:    -0.6890      Y:    -1.4683      Z:     0.0031     Total:     1.6220

*** Psi4 exiting successfully. Buy a developer a beer!
