                               Psi4 1.3.2 release

  ==> Input File <==

--------------------------------------------------------------------------
#psi4
#
memory 32 gb

molecule  {
0 1
  C        0.0901110     0.1256610    -0.0006000
  O        0.6574530     1.2034920     0.0001100
  O        0.7645440    -1.0585160    -0.0000760
  H        1.7137310    -0.8171840     0.0013030
  C       -1.5922408    -0.1304059    -0.0000311
  H       -1.9040560     0.8615770    -0.0148950
  H       -1.6785790    -0.6920150    -0.8731890
  H       -1.6806310    -0.6642840     0.8906910
units angstrom
no_reorient  #important for SAPT in psi4, default
symmetry c1  #important for SAPT in psi4, default
}

set PROPERTIES_ORIGIN ["COM"]
properties('MP2/aug-cc-pvtz', properties = ['dipole'])
--------------------------------------------------------------------------

    Molecular point group: c1
  Charge       = 0
  Multiplicity = 1
  Basis Set: AUG-CC-PVTZ
    Blend: AUG-CC-PVTZ
  Basis Set: (AUG-CC-PVTZ AUX)
    Blend: AUG-CC-PVTZ-JKFIT

    Orbital Energies [Eh]
    ---------------------

    Doubly Occupied:

       1A    -20.618829     2A    -20.555874     3A    -11.397503
       4A    -11.252749     5A     -1.458565     6A     -1.357469
       7A     -1.009869     8A     -0.820884     9A     -0.704906
      10A     -0.663873    11A     -0.649550    12A     -0.611609
      13A     -0.589936    14A     -0.553749    15A     -0.485483
      16A     -0.434929

  @DF-RHF Final Energy:  -227.87493394005062

   => Energetics <=

    Nuclear Repulsion Energy =            117.9925917969250548
    One-Electron Energy =                -545.4035024022566631
    Two-Electron Energy =                 199.5359766652809697
    Total Energy =                       -227.8749339400506244
  Basis Set: (AUG-CC-PVTZ AUX)
    Blend: AUG-CC-PVTZ-RI
    Molecular point group: c1

    Geometry (in Angstrom), charge = 0, multiplicity = 1:

       Center              X                  Y                   Z               Mass
    ------------   -----------------  -----------------  -----------------  -----------------
         C            0.071086819840     0.110003709892    -0.000548538505    12.000000000000
         O            0.638428819840     1.187834709892     0.000161461495    15.994914619570
         O            0.745519819840    -1.074173290108    -0.000024538505    15.994914619570
         H            1.694706819840    -0.832841290108     0.001354461495     1.007825032230
         C           -1.611264980160    -0.146063190108     0.000020361495    12.000000000000
         H           -1.923080180160     0.845919709892    -0.014843538505     1.007825032230
         H           -1.697603180160    -0.707672290108    -0.873137538505     1.007825032230
         H           -1.699655180160    -0.679941290108     0.890742461495     1.007825032230

  Basis Set: AUG-CC-PVTZ
    Blend: AUG-CC-PVTZ
  Basis Set: (AUG-CC-PVTZ AUX)
    Blend: AUG-CC-PVTZ-JKFIT
	 Reference Energy          =    -227.8749339400506244 [Eh]
	 Singles Energy            =      -0.0000000000000000 [Eh]
	 Same-Spin Energy          =      -0.2153692415358756 [Eh]
	 Opposite-Spin Energy      =      -0.6719450319645724 [Eh]
	 Correlation Energy        =      -0.8873142735004480 [Eh]
	 Total Energy              =    -228.7622482135510609 [Eh]

	 ================> DF-SCS-MP2 Energies <==================
	-----------------------------------------------------------
	 SCS Same-Spin Scale       =       0.3333333333333333 [-]
	 SCS Opposite-Spin Scale   =       1.2000000000000000 [-]
	 SCS Same-Spin Energy      =      -0.0717897471786252 [Eh]
	 SCS Opposite-Spin Energy  =      -0.8063340383574870 [Eh]
	 SCS Correlation Energy    =      -0.8781237855361121 [Eh]
	 SCS Total Energy          =    -228.7530577255867286 [Eh]
	-----------------------------------------------------------

  Dipole Moment: [D]
     X:    -0.5799      Y:    -1.4084      Z:     0.0021     Total:     1.5231

*** Psi4 exiting successfully. Buy a developer a beer!
