                               Psi4 1.4a3.dev225

  ==> Input File <==

--------------------------------------------------------------------------
#psi4
#
memory 32 gb

molecule  {
0 1
  C       -0.0901920     0.1257170     0.0000000
  O       -0.6581530     1.2031790     0.0000000
  O       -0.7738464    -1.0761864     0.0000000
  H       -1.7131600    -0.8179640     0.0000010
  C        1.3945970    -0.0997450     0.0000000
  H        1.9039530     0.8623950    -0.0000090
  H        1.6798310    -0.6776310     0.8820670
  H        1.6798300    -0.6776490    -0.8820560
units angstrom
no_reorient  #important for SAPT in psi4, default
symmetry c1  #important for SAPT in psi4, default
}

set PROPERTIES_ORIGIN ["COM"]
properties('MP2/aug-cc-pvtz', properties = ['dipole'])
--------------------------------------------------------------------------

    Molecular point group: c1
  Charge       = 0
  Multiplicity = 1
  Basis Set: AUG-CC-PVTZ
    Blend: AUG-CC-PVTZ
  Basis Set: (AUG-CC-PVTZ AUX)
    Blend: AUG-CC-PVTZ-JKFIT

    Orbital Energies [Eh]
    ---------------------

    Doubly Occupied:

       1A    -20.615683     2A    -20.557980     3A    -11.397310
       4A    -11.250839     5A     -1.455978     6A     -1.359117
       7A     -1.030232     8A     -0.815471     9A     -0.706955
      10A     -0.678219    11A     -0.647276    12A     -0.588047
      13A     -0.575801    14A     -0.562121    15A     -0.486239
      16A     -0.458998

  @DF-RHF Final Energy:  -227.90174125020792

   => Energetics <=

    Nuclear Repulsion Energy =            120.1248008634762243
    One-Electron Energy =                -549.6805502135665620
    Two-Electron Energy =                 201.6540080998823896
    Total Energy =                       -227.9017412502079196
  Basis Set: (AUG-CC-PVTZ AUX)
    Blend: AUG-CC-PVTZ-RI
    Molecular point group: c1

    Geometry (in Angstrom), charge = 0, multiplicity = 1:

       Center              X                  Y                   Z               Mass
    ------------   -----------------  -----------------  -----------------  -----------------
         C           -0.028986691803     0.108693105758    -0.000000050374    12.000000000000
         O           -0.596947691803     1.186155105758    -0.000000050374    15.994914619570
         O           -0.712641091803    -1.093210294242    -0.000000050374    15.994914619570
         H           -1.651954691803    -0.834987894242     0.000000949626     1.007825032230
         C            1.455802308197    -0.116768894242    -0.000000050374    12.000000000000
         H            1.965158308197     0.845371105758    -0.000009050374     1.007825032230
         H            1.741036308197    -0.694654894242     0.882066949626     1.007825032230
         H            1.741035308197    -0.694672894242    -0.882056050374     1.007825032230

  Basis Set: AUG-CC-PVTZ
    Blend: AUG-CC-PVTZ
  Basis Set: (AUG-CC-PVTZ AUX)
    Blend: AUG-CC-PVTZ-JKFIT
	 Reference Energy          =    -227.9017412502079196 [Eh]
	 Singles Energy            =      -0.0000000000000000 [Eh]
	 Same-Spin Energy          =      -0.2154588873327211 [Eh]
	 Opposite-Spin Energy      =      -0.6710779283811142 [Eh]
	 Correlation Energy        =      -0.8865368157138354 [Eh]
	 Total Energy              =    -228.7882780659217588 [Eh]

	 ================> DF-SCS-MP2 Energies <==================
	-----------------------------------------------------------
	 SCS Same-Spin Scale       =       0.3333333333333333 [-]
	 SCS Opposite-Spin Scale   =       1.2000000000000000 [-]
	 SCS Same-Spin Energy      =      -0.0718196291109070 [Eh]
	 SCS Opposite-Spin Energy  =      -0.8052935140573371 [Eh]
	 SCS Correlation Energy    =      -0.8771131431682441 [Eh]
	 SCS Total Energy          =    -228.7788543933761503 [Eh]
	-----------------------------------------------------------

  Dipole Moment: [D]
     X:     0.8698      Y:    -1.3524      Z:     0.0000     Total:     1.6079

*** Psi4 exiting successfully. Buy a developer a beer!
