                               Psi4 1.3.2 release

  ==> Input File <==

--------------------------------------------------------------------------
#psi4
#
memory 32 gb

molecule  {
0 1
  C        0.0901110     0.1256610    -0.0006000
  O        0.6574530     1.2034920     0.0001100
  O        0.6655641    -0.8847260    -0.0001529
  H        1.7137310    -0.8171840     0.0013030
  C       -1.3945180    -0.1003110    -0.0000980
  H       -1.9040560     0.8615770    -0.0148950
  H       -1.6785790    -0.6920150    -0.8731890
  H       -1.6806310    -0.6642840     0.8906910
units angstrom
no_reorient  #important for SAPT in psi4, default
symmetry c1  #important for SAPT in psi4, default
}

set PROPERTIES_ORIGIN ["COM"]
properties('MP2/aug-cc-pvtz', properties = ['dipole'])
--------------------------------------------------------------------------

    Molecular point group: c1
  Charge       = 0
  Multiplicity = 1
  Basis Set: AUG-CC-PVTZ
    Blend: AUG-CC-PVTZ
  Basis Set: (AUG-CC-PVTZ AUX)
    Blend: AUG-CC-PVTZ-JKFIT

    Orbital Energies [Eh]
    ---------------------

    Doubly Occupied:

       1A    -20.634905     2A    -20.513316     3A    -11.363148
       4A    -11.237037     5A     -1.550085     6A     -1.340973
       7A     -1.025280     8A     -0.871300     9A     -0.724139
      10A     -0.698719    11A     -0.678808    12A     -0.573372
      13A     -0.565951    14A     -0.539408    15A     -0.458981
      16A     -0.437928

  @DF-RHF Final Energy:  -227.86467391470566

   => Energetics <=

    Nuclear Repulsion Energy =            125.7471160567153987
    One-Electron Energy =                -560.7968841898813253
    Two-Electron Energy =                 207.1850942184602502
    Total Energy =                       -227.8646739147056621
  Basis Set: (AUG-CC-PVTZ AUX)
    Blend: AUG-CC-PVTZ-RI
    Molecular point group: c1

    Geometry (in Angstrom), charge = 0, multiplicity = 1:

       Center              X                  Y                   Z               Mass
    ------------   -----------------  -----------------  -----------------  -----------------
         C            0.057933142814     0.057673887964    -0.000514670283    12.000000000000
         O            0.625275142814     1.135504887964     0.000195329717    15.994914619570
         O            0.633386242814    -0.952713112036    -0.000067570283    15.994914619570
         H            1.681553142814    -0.885171112036     0.001388329717     1.007825032230
         C           -1.426695857186    -0.168298112036    -0.000012670283    12.000000000000
         H           -1.936233857186     0.793589887964    -0.014809670283     1.007825032230
         H           -1.710756857186    -0.760002112036    -0.873103670283     1.007825032230
         H           -1.712808857186    -0.732271112036     0.890776329717     1.007825032230

  Basis Set: AUG-CC-PVTZ
    Blend: AUG-CC-PVTZ
  Basis Set: (AUG-CC-PVTZ AUX)
    Blend: AUG-CC-PVTZ-JKFIT
	 Reference Energy          =    -227.8646739147056621 [Eh]
	 Singles Energy            =      -0.0000000000000000 [Eh]
	 Same-Spin Energy          =      -0.2148228777991417 [Eh]
	 Opposite-Spin Energy      =      -0.6659183527570069 [Eh]
	 Correlation Energy        =      -0.8807412305561486 [Eh]
	 Total Energy              =    -228.7454151452618021 [Eh]

	 ================> DF-SCS-MP2 Energies <==================
	-----------------------------------------------------------
	 SCS Same-Spin Scale       =       0.3333333333333333 [-]
	 SCS Opposite-Spin Scale   =       1.2000000000000000 [-]
	 SCS Same-Spin Energy      =      -0.0716076259330472 [Eh]
	 SCS Opposite-Spin Energy  =      -0.7991020233084083 [Eh]
	 SCS Correlation Energy    =      -0.8707096492414556 [Eh]
	 SCS Total Energy          =    -228.7353835639471242 [Eh]
	-----------------------------------------------------------

  Dipole Moment: [D]
     X:    -0.2104      Y:    -2.7166      Z:     0.0030     Total:     2.7247

*** Psi4 exiting successfully. Buy a developer a beer!
