                               Psi4 1.4a3.dev225

  ==> Input File <==

--------------------------------------------------------------------------
#psi4
#
memory 32 gb

molecule  {
0 1
  C       -0.0901920     0.1257170     0.0000000
  O       -0.6674792     1.2208714     0.0000000
  O       -0.7639580    -1.0588020     0.0000000
  H       -1.7131600    -0.8179640     0.0000010
  C        1.3945970    -0.0997450     0.0000000
  H        1.9039530     0.8623950    -0.0000090
  H        1.6798310    -0.6776310     0.8820670
  H        1.6798300    -0.6776490    -0.8820560
units angstrom
no_reorient  #important for SAPT in psi4, default
symmetry c1  #important for SAPT in psi4, default
}

set PROPERTIES_ORIGIN ["COM"]
properties('MP2/aug-cc-pvtz', properties = ['dipole'])
--------------------------------------------------------------------------

    Molecular point group: c1
  Charge       = 0
  Multiplicity = 1
  Basis Set: AUG-CC-PVTZ
    Blend: AUG-CC-PVTZ
  Basis Set: (AUG-CC-PVTZ AUX)
    Blend: AUG-CC-PVTZ-JKFIT

    Orbital Energies [Eh]
    ---------------------

    Doubly Occupied:

       1A    -20.620690     2A    -20.554376     3A    -11.398958
       4A    -11.251283     5A     -1.458456     6A     -1.350539
       7A     -1.031208     8A     -0.822473     9A     -0.706180
      10A     -0.677303    11A     -0.648833    12A     -0.583062
      13A     -0.575831    14A     -0.564034    15A     -0.479764
      16A     -0.457500

  @DF-RHF Final Energy:  -227.89994740981507

   => Energetics <=

    Nuclear Repulsion Energy =            120.0270881716023723
    One-Electron Energy =                -549.4930917191854860
    Two-Electron Energy =                 201.5660561377680438
    Total Energy =                       -227.8999474098150699
  Basis Set: (AUG-CC-PVTZ AUX)
    Blend: AUG-CC-PVTZ-RI
    Molecular point group: c1

    Geometry (in Angstrom), charge = 0, multiplicity = 1:

       Center              X                  Y                   Z               Mass
    ------------   -----------------  -----------------  -----------------  -----------------
         C           -0.029136511393     0.099345557202    -0.000000050374    12.000000000000
         O           -0.606423711393     1.194499957202    -0.000000050374    15.994914619570
         O           -0.702902511393    -1.085173442798    -0.000000050374    15.994914619570
         H           -1.652104511393    -0.844335442798     0.000000949626     1.007825032230
         C            1.455652488607    -0.126116442798    -0.000000050374    12.000000000000
         H            1.965008488607     0.836023557202    -0.000009050374     1.007825032230
         H            1.740886488607    -0.704002442798     0.882066949626     1.007825032230
         H            1.740885488607    -0.704020442798    -0.882056050374     1.007825032230

  Basis Set: AUG-CC-PVTZ
    Blend: AUG-CC-PVTZ
  Basis Set: (AUG-CC-PVTZ AUX)
    Blend: AUG-CC-PVTZ-JKFIT
	 Reference Energy          =    -227.8999474098150699 [Eh]
	 Singles Energy            =      -0.0000000000000000 [Eh]
	 Same-Spin Energy          =      -0.2158273632118453 [Eh]
	 Opposite-Spin Energy      =      -0.6717159699946403 [Eh]
	 Correlation Energy        =      -0.8875433332064857 [Eh]
	 Total Energy              =    -228.7874907430215501 [Eh]

	 ================> DF-SCS-MP2 Energies <==================
	-----------------------------------------------------------
	 SCS Same-Spin Scale       =       0.3333333333333333 [-]
	 SCS Opposite-Spin Scale   =       1.2000000000000000 [-]
	 SCS Same-Spin Energy      =      -0.0719424544039484 [Eh]
	 SCS Opposite-Spin Energy  =      -0.8060591639935684 [Eh]
	 SCS Correlation Energy    =      -0.8780016183975168 [Eh]
	 SCS Total Energy          =    -228.7779490282125892 [Eh]
	-----------------------------------------------------------

  Dipole Moment: [D]
     X:     0.8383      Y:    -1.5673      Z:     0.0000     Total:     1.7774

*** Psi4 exiting successfully. Buy a developer a beer!
