                               Psi4 1.4a3.dev225

  ==> Input File <==

--------------------------------------------------------------------------
#psi4
#
memory 32 gb

molecule  {
0 1
  C       -0.0901920     0.1257170     0.0000000
  O       -0.6581530     1.2031790     0.0000000
  O       -0.7639580    -1.0588020     0.0000000
  H       -1.7131600    -0.8179640     0.0000010
  C        1.3748237    -0.0967425     0.0000000
  H        1.9039530     0.8623950    -0.0000090
  H        1.6798310    -0.6776310     0.8820670
  H        1.6798300    -0.6776490    -0.8820560
units angstrom
no_reorient  #important for SAPT in psi4, default
symmetry c1  #important for SAPT in psi4, default
}

set PROPERTIES_ORIGIN ["COM"]
properties('MP2/aug-cc-pvtz', properties = ['dipole'])
--------------------------------------------------------------------------

    Molecular point group: c1
  Charge       = 0
  Multiplicity = 1
  Basis Set: AUG-CC-PVTZ
    Blend: AUG-CC-PVTZ
  Basis Set: (AUG-CC-PVTZ AUX)
    Blend: AUG-CC-PVTZ-JKFIT

    Orbital Energies [Eh]
    ---------------------

    Doubly Occupied:

       1A    -20.617181     2A    -20.554056     3A    -11.393758
       4A    -11.249929     5A     -1.461698     6A     -1.358636
       7A     -1.032661     8A     -0.820118     9A     -0.706936
      10A     -0.681905    11A     -0.650368    12A     -0.587115
      13A     -0.571992    14A     -0.559690    15A     -0.483825
      16A     -0.458958

  @DF-RHF Final Energy:  -227.90250699245235

   => Energetics <=

    Nuclear Repulsion Energy =            120.8618558765689244
    One-Electron Energy =                -551.1510713232592025
    Two-Electron Energy =                 202.3867084542379189
    Total Energy =                       -227.9025069924523450
  Basis Set: (AUG-CC-PVTZ AUX)
    Blend: AUG-CC-PVTZ-RI
    Molecular point group: c1

    Geometry (in Angstrom), charge = 0, multiplicity = 1:

       Center              X                  Y                   Z               Mass
    ------------   -----------------  -----------------  -----------------  -----------------
         C           -0.027668564552     0.103460082038    -0.000000050374    12.000000000000
         O           -0.595629564552     1.180922082038    -0.000000050374    15.994914619570
         O           -0.701434564552    -1.081058917962    -0.000000050374    15.994914619570
         H           -1.650636564552    -0.840220917962     0.000000949626     1.007825032230
         C            1.437347135448    -0.118999417962    -0.000000050374    12.000000000000
         H            1.966476435448     0.840138082038    -0.000009050374     1.007825032230
         H            1.742354435448    -0.699887917962     0.882066949626     1.007825032230
         H            1.742353435448    -0.699905917962    -0.882056050374     1.007825032230

  Basis Set: AUG-CC-PVTZ
    Blend: AUG-CC-PVTZ
  Basis Set: (AUG-CC-PVTZ AUX)
    Blend: AUG-CC-PVTZ-JKFIT
	 Reference Energy          =    -227.9025069924523450 [Eh]
	 Singles Energy            =      -0.0000000000000000 [Eh]
	 Same-Spin Energy          =      -0.2154564166746504 [Eh]
	 Opposite-Spin Energy      =      -0.6705746764109765 [Eh]
	 Correlation Energy        =      -0.8860310930856268 [Eh]
	 Total Energy              =    -228.7885380855379651 [Eh]

	 ================> DF-SCS-MP2 Energies <==================
	-----------------------------------------------------------
	 SCS Same-Spin Scale       =       0.3333333333333333 [-]
	 SCS Opposite-Spin Scale   =       1.2000000000000000 [-]
	 SCS Same-Spin Energy      =      -0.0718188055582168 [Eh]
	 SCS Opposite-Spin Energy  =      -0.8046896116931718 [Eh]
	 SCS Correlation Energy    =      -0.8765084172513885 [Eh]
	 SCS Total Energy          =    -228.7790154097037316 [Eh]
	-----------------------------------------------------------

  Dipole Moment: [D]
     X:     0.8320      Y:    -1.4762      Z:     0.0000     Total:     1.6945

*** Psi4 exiting successfully. Buy a developer a beer!
