                               Psi4 1.3.2 release

  ==> Input File <==

--------------------------------------------------------------------------
#psi4
#
memory 32 gb

molecule  {
0 1
  C        0.0901110     0.1256610    -0.0006000
  O        0.6574530     1.2034920     0.0001100
  O        0.7645440    -1.0585160    -0.0000760
  H        1.7137310    -0.8171840     0.0013030
  C       -1.4933794    -0.1153585    -0.0000646
  H       -1.9040560     0.8615770    -0.0148950
  H       -1.6785790    -0.6920150    -0.8731890
  H       -1.6806310    -0.6642840     0.8906910
units angstrom
no_reorient  #important for SAPT in psi4, default
symmetry c1  #important for SAPT in psi4, default
}

set PROPERTIES_ORIGIN ["COM"]
properties('MP2/aug-cc-pvtz', properties = ['dipole'])
--------------------------------------------------------------------------

    Molecular point group: c1
  Charge       = 0
  Multiplicity = 1
  Basis Set: AUG-CC-PVTZ
    Blend: AUG-CC-PVTZ
  Basis Set: (AUG-CC-PVTZ AUX)
    Blend: AUG-CC-PVTZ-JKFIT

    Orbital Energies [Eh]
    ---------------------

    Doubly Occupied:

       1A    -20.618449     2A    -20.555316     3A    -11.396953
       4A    -11.249585     5A     -1.459977     6A     -1.358165
       7A     -1.017589     8A     -0.821043     9A     -0.705778
      10A     -0.670304    11A     -0.649130    12A     -0.597010
      13A     -0.578048    14A     -0.567068    15A     -0.485234
      16A     -0.448645

  @DF-RHF Final Energy:  -227.89524374860264

   => Energetics <=

    Nuclear Repulsion Energy =            119.2498099876201820
    One-Electron Energy =                -547.9335200771403152
    Two-Electron Energy =                 200.7884663409174664
    Total Energy =                       -227.8952437486026383
  Basis Set: (AUG-CC-PVTZ AUX)
    Blend: AUG-CC-PVTZ-RI
    Molecular point group: c1

    Geometry (in Angstrom), charge = 0, multiplicity = 1:

       Center              X                  Y                   Z               Mass
    ------------   -----------------  -----------------  -----------------  -----------------
         C            0.051321500318     0.106995289325    -0.000541840864    12.000000000000
         O            0.618663500318     1.184826289325     0.000168159136    15.994914619570
         O            0.725754500318    -1.077181710675    -0.000017840864    15.994914619570
         H            1.674941500318    -0.835849710675     0.001361159136     1.007825032230
         C           -1.532168899682    -0.134024210675    -0.000006440864    12.000000000000
         H           -1.942845499682     0.842911289325    -0.014836840864     1.007825032230
         H           -1.717368499682    -0.710680710675    -0.873130840864     1.007825032230
         H           -1.719420499682    -0.682949710675     0.890749159136     1.007825032230

  Basis Set: AUG-CC-PVTZ
    Blend: AUG-CC-PVTZ
  Basis Set: (AUG-CC-PVTZ AUX)
    Blend: AUG-CC-PVTZ-JKFIT
	 Reference Energy          =    -227.8952437486026383 [Eh]
	 Singles Energy            =      -0.0000000000000000 [Eh]
	 Same-Spin Energy          =      -0.2150328330492709 [Eh]
	 Opposite-Spin Energy      =      -0.6706086915554171 [Eh]
	 Correlation Energy        =      -0.8856415246046880 [Eh]
	 Total Energy              =    -228.7808852732073319 [Eh]

	 ================> DF-SCS-MP2 Energies <==================
	-----------------------------------------------------------
	 SCS Same-Spin Scale       =       0.3333333333333333 [-]
	 SCS Opposite-Spin Scale   =       1.2000000000000000 [-]
	 SCS Same-Spin Energy      =      -0.0716776110164236 [Eh]
	 SCS Opposite-Spin Energy  =      -0.8047304298665006 [Eh]
	 SCS Correlation Energy    =      -0.8764080408829242 [Eh]
	 SCS Total Energy          =    -228.7716517894855599 [Eh]
	-----------------------------------------------------------

  Dipole Moment: [D]
     X:    -0.6875      Y:    -1.4402      Z:     0.0025     Total:     1.5959

*** Psi4 exiting successfully. Buy a developer a beer!
