                               Psi4 1.4a3.dev225

  ==> Input File <==

--------------------------------------------------------------------------
#psi4
#
memory 32 gb

molecule  {
0 1
  C       -0.0901920     0.1257170     0.0000000
  O       -0.6581530     1.2031790     0.0000000
  O       -0.7639580    -1.0588020     0.0000000
  H       -1.7616243    -0.8056673     0.0000011
  C        1.3945970    -0.0997450     0.0000000
  H        1.9039530     0.8623950    -0.0000090
  H        1.6798310    -0.6776310     0.8820670
  H        1.6798300    -0.6776490    -0.8820560
units angstrom
no_reorient  #important for SAPT in psi4, default
symmetry c1  #important for SAPT in psi4, default
}

set PROPERTIES_ORIGIN ["COM"]
properties('MP2/aug-cc-pvtz', properties = ['dipole'])
--------------------------------------------------------------------------

    Molecular point group: c1
  Charge       = 0
  Multiplicity = 1
  Basis Set: AUG-CC-PVTZ
    Blend: AUG-CC-PVTZ
  Basis Set: (AUG-CC-PVTZ AUX)
    Blend: AUG-CC-PVTZ-JKFIT

    Orbital Energies [Eh]
    ---------------------

    Doubly Occupied:

       1A    -20.620328     2A    -20.553357     3A    -11.393572
       4A    -11.249334     5A     -1.454821     6A     -1.353797
       7A     -1.027632     8A     -0.811160     9A     -0.701640
      10A     -0.678446    11A     -0.648711    12A     -0.583229
      13A     -0.571930    14A     -0.561791    15A     -0.482839
      16A     -0.456799

  @DF-RHF Final Energy:  -227.89802723599479

   => Energetics <=

    Nuclear Repulsion Energy =            120.3124922563707031
    One-Electron Energy =                -550.1222709713857739
    Two-Electron Energy =                 201.9117514790202677
    Total Energy =                       -227.8980272359947890
  Basis Set: (AUG-CC-PVTZ AUX)
    Blend: AUG-CC-PVTZ-RI
    Molecular point group: c1

    Geometry (in Angstrom), charge = 0, multiplicity = 1:

       Center              X                  Y                   Z               Mass
    ------------   -----------------  -----------------  -----------------  -----------------
         C           -0.030808060047     0.103853894653    -0.000000052053    12.000000000000
         O           -0.598769060047     1.181315894653    -0.000000052053    15.994914619570
         O           -0.704574060047    -1.080665105347    -0.000000052053    15.994914619570
         H           -1.702240360047    -0.827530405347     0.000001047947     1.007825032230
         C            1.453980939953    -0.121608105347    -0.000000052053    12.000000000000
         H            1.963336939953     0.840531894653    -0.000009052053     1.007825032230
         H            1.739214939953    -0.699494105347     0.882066947947     1.007825032230
         H            1.739213939953    -0.699512105347    -0.882056052053     1.007825032230

  Basis Set: AUG-CC-PVTZ
    Blend: AUG-CC-PVTZ
  Basis Set: (AUG-CC-PVTZ AUX)
    Blend: AUG-CC-PVTZ-JKFIT
	 Reference Energy          =    -227.8980272359947890 [Eh]
	 Singles Energy            =      -0.0000000000000000 [Eh]
	 Same-Spin Energy          =      -0.2159410843578956 [Eh]
	 Opposite-Spin Energy      =      -0.6719562712444196 [Eh]
	 Correlation Energy        =      -0.8878973556023152 [Eh]
	 Total Energy              =    -228.7859245915971087 [Eh]

	 ================> DF-SCS-MP2 Energies <==================
	-----------------------------------------------------------
	 SCS Same-Spin Scale       =       0.3333333333333333 [-]
	 SCS Opposite-Spin Scale   =       1.2000000000000000 [-]
	 SCS Same-Spin Energy      =      -0.0719803614526319 [Eh]
	 SCS Opposite-Spin Energy  =      -0.8063475254933035 [Eh]
	 SCS Correlation Energy    =      -0.8783278869459353 [Eh]
	 SCS Total Energy          =    -228.7763551229407142 [Eh]
	-----------------------------------------------------------

  Dipole Moment: [D]
     X:     0.7465      Y:    -1.4701      Z:     0.0000     Total:     1.6488

*** Psi4 exiting successfully. Buy a developer a beer!
