                               Psi4 1.3.2 release

  ==> Input File <==

--------------------------------------------------------------------------
#psi4
#
memory 32 gb

molecule  {
0 1
  C       -0.0299744     0.0486765    -0.0007901
  O        0.6574530     1.2034920     0.0001100
  O        0.7645440    -1.0585160    -0.0000760
  H        1.7137310    -0.8171840     0.0013030
  C       -1.3945180    -0.1003110    -0.0000980
  H       -1.9040560     0.8615770    -0.0148950
  H       -1.6785790    -0.6920150    -0.8731890
  H       -1.6806310    -0.6642840     0.8906910
units angstrom
no_reorient  #important for SAPT in psi4, default
symmetry c1  #important for SAPT in psi4, default
}

set PROPERTIES_ORIGIN ["COM"]
properties('MP2/aug-cc-pvtz', properties = ['dipole'])
--------------------------------------------------------------------------

    Molecular point group: c1
  Charge       = 0
  Multiplicity = 1
  Basis Set: AUG-CC-PVTZ
    Blend: AUG-CC-PVTZ
  Basis Set: (AUG-CC-PVTZ AUX)
    Blend: AUG-CC-PVTZ-JKFIT

    Orbital Energies [Eh]
    ---------------------

    Doubly Occupied:

       1A    -20.621024     2A    -20.537072     3A    -11.407070
       4A    -11.256672     5A     -1.446431     6A     -1.288205
       7A     -1.082240     8A     -0.832826     9A     -0.701326
      10A     -0.678305    11A     -0.658847    12A     -0.605046
      13A     -0.567224    14A     -0.549384    15A     -0.443641
      16A     -0.441858

  @DF-RHF Final Energy:  -227.85973186113790

   => Energetics <=

    Nuclear Repulsion Energy =            120.0109783821584983
    One-Electron Energy =                -549.5070757652280236
    Two-Electron Energy =                 201.6363655219316229
    Total Energy =                       -227.8597318611379023
  Basis Set: (AUG-CC-PVTZ AUX)
    Blend: AUG-CC-PVTZ-RI
    Molecular point group: c1

    Geometry (in Angstrom), charge = 0, multiplicity = 1:

       Center              X                  Y                   Z               Mass
    ------------   -----------------  -----------------  -----------------  -----------------
         C           -0.064520593988     0.042393828562    -0.000687256600    12.000000000000
         O            0.622906806012     1.197209328562     0.000212843400    15.994914619570
         O            0.729997806012    -1.064798671438     0.000026843400    15.994914619570
         H            1.679184806012    -0.823466671438     0.001405843400     1.007825032230
         C           -1.429064193988    -0.106593671438     0.000004843400    12.000000000000
         H           -1.938602193988     0.855294328562    -0.014792156600     1.007825032230
         H           -1.713125193988    -0.698297671438    -0.873086156600     1.007825032230
         H           -1.715177193988    -0.670566671438     0.890793843400     1.007825032230

  Basis Set: AUG-CC-PVTZ
    Blend: AUG-CC-PVTZ
  Basis Set: (AUG-CC-PVTZ AUX)
    Blend: AUG-CC-PVTZ-JKFIT
	 Reference Energy          =    -227.8597318611379023 [Eh]
	 Singles Energy            =      -0.0000000000000000 [Eh]
	 Same-Spin Energy          =      -0.2192393414478658 [Eh]
	 Opposite-Spin Energy      =      -0.6774385774184899 [Eh]
	 Correlation Energy        =      -0.8966779188663556 [Eh]
	 Total Energy              =    -228.7564097800042475 [Eh]

	 ================> DF-SCS-MP2 Energies <==================
	-----------------------------------------------------------
	 SCS Same-Spin Scale       =       0.3333333333333333 [-]
	 SCS Opposite-Spin Scale   =       1.2000000000000000 [-]
	 SCS Same-Spin Energy      =      -0.0730797804826219 [Eh]
	 SCS Opposite-Spin Energy  =      -0.8129262929021879 [Eh]
	 SCS Correlation Energy    =      -0.8860060733848099 [Eh]
	 SCS Total Energy          =    -228.7457379345227082 [Eh]
	-----------------------------------------------------------

  Dipole Moment: [D]
     X:    -1.4469      Y:    -1.9699      Z:     0.0037     Total:     2.4441

*** Psi4 exiting successfully. Buy a developer a beer!
