                               Psi4 1.4a3.dev225

  ==> Input File <==

--------------------------------------------------------------------------
#psi4
#
memory 32 gb

molecule  {
0 1
  C       -0.0901920     0.1257170     0.0000000
  O       -0.6581530     1.2031790     0.0000000
  O       -0.7639580    -1.0588020     0.0000000
  H       -1.7131600    -0.8179640     0.0000010
  C        1.4440303    -0.1072513     0.0000000
  H        1.9039530     0.8623950    -0.0000090
  H        1.6798310    -0.6776310     0.8820670
  H        1.6798300    -0.6776490    -0.8820560
units angstrom
no_reorient  #important for SAPT in psi4, default
symmetry c1  #important for SAPT in psi4, default
}

set PROPERTIES_ORIGIN ["COM"]
properties('MP2/aug-cc-pvtz', properties = ['dipole'])
--------------------------------------------------------------------------

    Molecular point group: c1
  Charge       = 0
  Multiplicity = 1
  Basis Set: AUG-CC-PVTZ
    Blend: AUG-CC-PVTZ
  Basis Set: (AUG-CC-PVTZ AUX)
    Blend: AUG-CC-PVTZ-JKFIT

    Orbital Energies [Eh]
    ---------------------

    Doubly Occupied:

       1A    -20.618046     2A    -20.554910     3A    -11.396030
       4A    -11.249209     5A     -1.460732     6A     -1.358455
       7A     -1.022930     8A     -0.820872     9A     -0.706237
      10A     -0.674641    11A     -0.649388    12A     -0.589133
      13A     -0.573499    14A     -0.570790    15A     -0.484869
      16A     -0.453800

  @DF-RHF Final Energy:  -227.90114115316288

   => Energetics <=

    Nuclear Repulsion Energy =            119.9051596835980007
    One-Electron Energy =                -549.2455208313747335
    Two-Electron Energy =                 201.4392199946138362
    Total Energy =                       -227.9011411531628823
  Basis Set: (AUG-CC-PVTZ AUX)
    Blend: AUG-CC-PVTZ-RI
    Molecular point group: c1

    Geometry (in Angstrom), charge = 0, multiplicity = 1:

       Center              X                  Y                   Z               Mass
    ------------   -----------------  -----------------  -----------------  -----------------
         C           -0.041505011962     0.105561102150    -0.000000050374    12.000000000000
         O           -0.609466011962     1.183023102150    -0.000000050374    15.994914619570
         O           -0.715271011962    -1.078957897850    -0.000000050374    15.994914619570
         H           -1.664473011962    -0.838119897850     0.000000949626     1.007825032230
         C            1.492717288038    -0.127407197850    -0.000000050374    12.000000000000
         H            1.952639988038     0.842239102150    -0.000009050374     1.007825032230
         H            1.728517988038    -0.697786897850     0.882066949626     1.007825032230
         H            1.728516988038    -0.697804897850    -0.882056050374     1.007825032230

  Basis Set: AUG-CC-PVTZ
    Blend: AUG-CC-PVTZ
  Basis Set: (AUG-CC-PVTZ AUX)
    Blend: AUG-CC-PVTZ-JKFIT
	 Reference Energy          =    -227.9011411531628823 [Eh]
	 Singles Energy            =      -0.0000000000000000 [Eh]
	 Same-Spin Energy          =      -0.2150860084962132 [Eh]
	 Opposite-Spin Energy      =      -0.6703692414782543 [Eh]
	 Correlation Energy        =      -0.8854552499744675 [Eh]
	 Total Energy              =    -228.7865964031373380 [Eh]

	 ================> DF-SCS-MP2 Energies <==================
	-----------------------------------------------------------
	 SCS Same-Spin Scale       =       0.3333333333333333 [-]
	 SCS Opposite-Spin Scale   =       1.2000000000000000 [-]
	 SCS Same-Spin Energy      =      -0.0716953361654044 [Eh]
	 SCS Opposite-Spin Energy  =      -0.8044430897739051 [Eh]
	 SCS Correlation Energy    =      -0.8761384259393095 [Eh]
	 SCS Total Energy          =    -228.7772795791021849 [Eh]
	-----------------------------------------------------------

  Dipole Moment: [D]
     X:     0.7435      Y:    -1.4548      Z:     0.0000     Total:     1.6338

*** Psi4 exiting successfully. Buy a developer a beer!
