                               Psi4 1.4a3.dev225

  ==> Input File <==

--------------------------------------------------------------------------
#psi4
#
memory 32 gb

molecule  {
0 1
  C       -0.0901920     0.1257170     0.0000000
  O       -0.6581530     1.2031790     0.0000000
  O       -0.7639580    -1.0588020     0.0000000
  H       -1.6937743    -0.8228827     0.0000010
  C        1.3945970    -0.0997450     0.0000000
  H        1.9039530     0.8623950    -0.0000090
  H        1.6798310    -0.6776310     0.8820670
  H        1.6798300    -0.6776490    -0.8820560
units angstrom
no_reorient  #important for SAPT in psi4, default
symmetry c1  #important for SAPT in psi4, default
}

set PROPERTIES_ORIGIN ["COM"]
properties('MP2/aug-cc-pvtz', properties = ['dipole'])
--------------------------------------------------------------------------

    Molecular point group: c1
  Charge       = 0
  Multiplicity = 1
  Basis Set: AUG-CC-PVTZ
    Blend: AUG-CC-PVTZ
  Basis Set: (AUG-CC-PVTZ AUX)
    Blend: AUG-CC-PVTZ-JKFIT

    Orbital Energies [Eh]
    ---------------------

    Doubly Occupied:

       1A    -20.616176     2A    -20.554743     3A    -11.394928
       4A    -11.249687     5A     -1.464472     6A     -1.360605
       7A     -1.030446     8A     -0.824395     9A     -0.708660
      10A     -0.680220    11A     -0.650554    12A     -0.586830
      13A     -0.575444    14A     -0.563416    15A     -0.484757
      16A     -0.458105

  @DF-RHF Final Energy:  -227.90394653516270

   => Energetics <=

    Nuclear Repulsion Energy =            120.6974663418988882
    One-Electron Energy =                -550.7959526042234302
    Two-Electron Energy =                 202.1945397271618106
    Total Energy =                       -227.9039465351627030
  Basis Set: (AUG-CC-PVTZ AUX)
    Blend: AUG-CC-PVTZ-RI
    Molecular point group: c1

    Geometry (in Angstrom), charge = 0, multiplicity = 1:

       Center              X                  Y                   Z               Mass
    ------------   -----------------  -----------------  -----------------  -----------------
         C           -0.031947340983     0.104142961374    -0.000000050374    12.000000000000
         O           -0.599908340983     1.181604961374    -0.000000050374    15.994914619570
         O           -0.705713340983    -1.080376038626    -0.000000050374    15.994914619570
         H           -1.635529640983    -0.844456738626     0.000000949626     1.007825032230
         C            1.452841659017    -0.121319038626    -0.000000050374    12.000000000000
         H            1.962197659017     0.840820961374    -0.000009050374     1.007825032230
         H            1.738075659017    -0.699205038626     0.882066949626     1.007825032230
         H            1.738074659017    -0.699223038626    -0.882056050374     1.007825032230

  Basis Set: AUG-CC-PVTZ
    Blend: AUG-CC-PVTZ
  Basis Set: (AUG-CC-PVTZ AUX)
    Blend: AUG-CC-PVTZ-JKFIT
	 Reference Energy          =    -227.9039465351627030 [Eh]
	 Singles Energy            =      -0.0000000000000000 [Eh]
	 Same-Spin Energy          =      -0.2150617618643565 [Eh]
	 Opposite-Spin Energy      =      -0.6698666035082800 [Eh]
	 Correlation Energy        =      -0.8849283653726364 [Eh]
	 Total Energy              =    -228.7888749005353475 [Eh]

	 ================> DF-SCS-MP2 Energies <==================
	-----------------------------------------------------------
	 SCS Same-Spin Scale       =       0.3333333333333333 [-]
	 SCS Opposite-Spin Scale   =       1.2000000000000000 [-]
	 SCS Same-Spin Energy      =      -0.0716872539547855 [Eh]
	 SCS Opposite-Spin Energy  =      -0.8038399242099360 [Eh]
	 SCS Correlation Energy    =      -0.8755271781647215 [Eh]
	 SCS Total Energy          =    -228.7794737133274339 [Eh]
	-----------------------------------------------------------

  Dipole Moment: [D]
     X:     0.8288      Y:    -1.4692      Z:     0.0000     Total:     1.6868

*** Psi4 exiting successfully. Buy a developer a beer!
