                               Psi4 1.3.2 release

  ==> Input File <==

--------------------------------------------------------------------------
#psi4
#
memory 32 gb

molecule  {
0 1
  C        0.0901110     0.1256610    -0.0006000
  O        0.6947232     1.1830355     0.0000736
  O        0.7645440    -1.0585160    -0.0000760
  H        1.7137310    -0.8171840     0.0013030
  C       -1.3945180    -0.1003110    -0.0000980
  H       -1.9040560     0.8615770    -0.0148950
  H       -1.6785790    -0.6920150    -0.8731890
  H       -1.6806310    -0.6642840     0.8906910
units angstrom
no_reorient  #important for SAPT in psi4, default
symmetry c1  #important for SAPT in psi4, default
}

set PROPERTIES_ORIGIN ["COM"]
properties('MP2/aug-cc-pvtz', properties = ['dipole'])
--------------------------------------------------------------------------

    Molecular point group: c1
  Charge       = 0
  Multiplicity = 1
  Basis Set: AUG-CC-PVTZ
    Blend: AUG-CC-PVTZ
  Basis Set: (AUG-CC-PVTZ AUX)
    Blend: AUG-CC-PVTZ-JKFIT

    Orbital Energies [Eh]
    ---------------------

    Doubly Occupied:

       1A    -20.614037     2A    -20.553725     3A    -11.394458
       4A    -11.251971     5A     -1.461443     6A     -1.355402
       7A     -1.031572     8A     -0.819318     9A     -0.705366
      10A     -0.679587    11A     -0.649783    12A     -0.585538
      13A     -0.575936    14A     -0.563549    15A     -0.482691
      16A     -0.458056

  @DF-RHF Final Energy:  -227.90289271051364

   => Energetics <=

    Nuclear Repulsion Energy =            120.6338803414671474
    One-Electron Energy =                -550.7086799389780936
    Two-Electron Energy =                 202.1719068869973057
    Total Energy =                       -227.9028927105136404
  Basis Set: (AUG-CC-PVTZ AUX)
    Blend: AUG-CC-PVTZ-RI
    Molecular point group: c1

    Geometry (in Angstrom), charge = 0, multiplicity = 1:

       Center              X                  Y                   Z               Mass
    ------------   -----------------  -----------------  -----------------  -----------------
         C            0.021624117320     0.109438261866    -0.000525463050    12.000000000000
         O            0.626236317320     1.166812761866     0.000148136950    15.994914619570
         O            0.696057117320    -1.074738738134    -0.000001463050    15.994914619570
         H            1.645244117320    -0.833406738134     0.001377536950     1.007825032230
         C           -1.463004882680    -0.116533738134    -0.000023463050    12.000000000000
         H           -1.972542882680     0.845354261866    -0.014820463050     1.007825032230
         H           -1.747065882680    -0.708237738134    -0.873114463050     1.007825032230
         H           -1.749117882680    -0.680506738134     0.890765536950     1.007825032230

  Basis Set: AUG-CC-PVTZ
    Blend: AUG-CC-PVTZ
  Basis Set: (AUG-CC-PVTZ AUX)
    Blend: AUG-CC-PVTZ-JKFIT
	 Reference Energy          =    -227.9028927105136404 [Eh]
	 Singles Energy            =      -0.0000000000000000 [Eh]
	 Same-Spin Energy          =      -0.2152798098028311 [Eh]
	 Opposite-Spin Energy      =      -0.6703265565877496 [Eh]
	 Correlation Energy        =      -0.8856063663905807 [Eh]
	 Total Energy              =    -228.7884990769042304 [Eh]

	 ================> DF-SCS-MP2 Energies <==================
	-----------------------------------------------------------
	 SCS Same-Spin Scale       =       0.3333333333333333 [-]
	 SCS Opposite-Spin Scale   =       1.2000000000000000 [-]
	 SCS Same-Spin Energy      =      -0.0717599366009437 [Eh]
	 SCS Opposite-Spin Energy  =      -0.8043918679052996 [Eh]
	 SCS Correlation Energy    =      -0.8761518045062433 [Eh]
	 SCS Total Energy          =    -228.7790445150198764 [Eh]
	-----------------------------------------------------------

  Dipole Moment: [D]
     X:    -0.9255      Y:    -1.4267      Z:     0.0030     Total:     1.7006

*** Psi4 exiting successfully. Buy a developer a beer!
