                               Psi4 1.3.2 release

  ==> Input File <==

--------------------------------------------------------------------------
#psi4
#
memory 32 gb

molecule  {
0 1
  C        0.0901110     0.1256610    -0.0006000
  O        0.6761773     1.1934264     0.0001275
  O        0.7645440    -1.0585160    -0.0000760
  H        1.7137310    -0.8171840     0.0013030
  C       -1.3945180    -0.1003110    -0.0000980
  H       -1.9040560     0.8615770    -0.0148950
  H       -1.6785790    -0.6920150    -0.8731890
  H       -1.6806310    -0.6642840     0.8906910
units angstrom
no_reorient  #important for SAPT in psi4, default
symmetry c1  #important for SAPT in psi4, default
}

set PROPERTIES_ORIGIN ["COM"]
properties('MP2/aug-cc-pvtz', properties = ['dipole'])
--------------------------------------------------------------------------

    Molecular point group: c1
  Charge       = 0
  Multiplicity = 1
  Basis Set: AUG-CC-PVTZ
    Blend: AUG-CC-PVTZ
  Basis Set: (AUG-CC-PVTZ AUX)
    Blend: AUG-CC-PVTZ-JKFIT

    Orbital Energies [Eh]
    ---------------------

    Doubly Occupied:

       1A    -20.615774     2A    -20.554036     3A    -11.394495
       4A    -11.250769     5A     -1.461399     6A     -1.357014
       7A     -1.030596     8A     -0.819852     9A     -0.706041
      10A     -0.679644    11A     -0.649889    12A     -0.585600
      13A     -0.575295    14A     -0.563254    15A     -0.483454
      16A     -0.457940

  @DF-RHF Final Energy:  -227.90305823426093

   => Energetics <=

    Nuclear Repulsion Energy =            120.6061603735879260
    One-Electron Energy =                -550.6483332189809516
    Two-Electron Energy =                 202.1391146111320722
    Total Energy =                       -227.9030582342609250
  Basis Set: (AUG-CC-PVTZ AUX)
    Blend: AUG-CC-PVTZ-RI
    Molecular point group: c1

    Geometry (in Angstrom), charge = 0, multiplicity = 1:

       Center              X                  Y                   Z               Mass
    ------------   -----------------  -----------------  -----------------  -----------------
         C            0.026566378323     0.106669211032    -0.000539826757    12.000000000000
         O            0.612632678323     1.174434611032     0.000187673243    15.994914619570
         O            0.700999378323    -1.077507788968    -0.000015826757    15.994914619570
         H            1.650186378323    -0.836175788968     0.001363173243     1.007825032230
         C           -1.458062621677    -0.119302788968    -0.000037826757    12.000000000000
         H           -1.967600621677     0.842585211032    -0.014834826757     1.007825032230
         H           -1.742123621677    -0.711006788968    -0.873128826757     1.007825032230
         H           -1.744175621677    -0.683275788968     0.890751173243     1.007825032230

  Basis Set: AUG-CC-PVTZ
    Blend: AUG-CC-PVTZ
  Basis Set: (AUG-CC-PVTZ AUX)
    Blend: AUG-CC-PVTZ-JKFIT
	 Reference Energy          =    -227.9030582342609250 [Eh]
	 Singles Energy            =      -0.0000000000000000 [Eh]
	 Same-Spin Energy          =      -0.2152951367385570 [Eh]
	 Opposite-Spin Energy      =      -0.6703846726562750 [Eh]
	 Correlation Energy        =      -0.8856798093948320 [Eh]
	 Total Energy              =    -228.7887380436557692 [Eh]

	 ================> DF-SCS-MP2 Energies <==================
	-----------------------------------------------------------
	 SCS Same-Spin Scale       =       0.3333333333333333 [-]
	 SCS Opposite-Spin Scale   =       1.2000000000000000 [-]
	 SCS Same-Spin Energy      =      -0.0717650455795190 [Eh]
	 SCS Opposite-Spin Energy  =      -0.8044616071875300 [Eh]
	 SCS Correlation Energy    =      -0.8762266527670490 [Eh]
	 SCS Total Energy          =    -228.7792848870279840 [Eh]
	-----------------------------------------------------------

  Dipole Moment: [D]
     X:    -0.8650      Y:    -1.4490      Z:     0.0030     Total:     1.6875

*** Psi4 exiting successfully. Buy a developer a beer!
