                               Psi4 1.4a3.dev225

  ==> Input File <==

--------------------------------------------------------------------------
#psi4
#
memory 32 gb

molecule  {
0 1
  C       -0.0901920     0.1257170     0.0000000
  O       -0.6488268     1.1854866     0.0000000
  O       -0.7639580    -1.0588020     0.0000000
  H       -1.7131600    -0.8179640     0.0000010
  C        1.3945970    -0.0997450     0.0000000
  H        1.9039530     0.8623950    -0.0000090
  H        1.6798310    -0.6776310     0.8820670
  H        1.6798300    -0.6776490    -0.8820560
units angstrom
no_reorient  #important for SAPT in psi4, default
symmetry c1  #important for SAPT in psi4, default
}

set PROPERTIES_ORIGIN ["COM"]
properties('MP2/aug-cc-pvtz', properties = ['dipole'])
--------------------------------------------------------------------------

    Molecular point group: c1
  Charge       = 0
  Multiplicity = 1
  Basis Set: AUG-CC-PVTZ
    Blend: AUG-CC-PVTZ
  Basis Set: (AUG-CC-PVTZ AUX)
    Blend: AUG-CC-PVTZ-JKFIT

    Orbital Energies [Eh]
    ---------------------

    Doubly Occupied:

       1A    -20.614202     2A    -20.554231     3A    -11.390006
       4A    -11.247842     5A     -1.465713     6A     -1.365761
       7A     -1.027981     8A     -0.818326     9A     -0.707509
      10A     -0.682417    11A     -0.651577    12A     -0.588076
      13A     -0.573383    14A     -0.561917    15A     -0.488490
      16A     -0.457736

  @DF-RHF Final Energy:  -227.90504663100364

   => Energetics <=

    Nuclear Repulsion Energy =            121.1526798569327070
    One-Electron Energy =                -551.7251185838666743
    Two-Electron Energy =                 202.6673920959303246
    Total Energy =                       -227.9050466310036427
  Basis Set: (AUG-CC-PVTZ AUX)
    Blend: AUG-CC-PVTZ-RI
    Molecular point group: c1

    Geometry (in Angstrom), charge = 0, multiplicity = 1:

       Center              X                  Y                   Z               Mass
    ------------   -----------------  -----------------  -----------------  -----------------
         C           -0.034107153375     0.108775184082    -0.000000050374    12.000000000000
         O           -0.592741953375     1.168544784082    -0.000000050374    15.994914619570
         O           -0.707873153375    -1.075743815918    -0.000000050374    15.994914619570
         H           -1.657075153375    -0.834905815918     0.000000949626     1.007825032230
         C            1.450681846625    -0.116686815918    -0.000000050374    12.000000000000
         H            1.960037846625     0.845453184082    -0.000009050374     1.007825032230
         H            1.735915846625    -0.694572815918     0.882066949626     1.007825032230
         H            1.735914846625    -0.694590815918    -0.882056050374     1.007825032230

  Basis Set: AUG-CC-PVTZ
    Blend: AUG-CC-PVTZ
  Basis Set: (AUG-CC-PVTZ AUX)
    Blend: AUG-CC-PVTZ-JKFIT
	 Reference Energy          =    -227.9050466310036427 [Eh]
	 Singles Energy            =      -0.0000000000000000 [Eh]
	 Same-Spin Energy          =      -0.2148061581898117 [Eh]
	 Opposite-Spin Energy      =      -0.6691946917493807 [Eh]
	 Correlation Energy        =      -0.8840008499391925 [Eh]
	 Total Energy              =    -228.7890474809428270 [Eh]

	 ================> DF-SCS-MP2 Energies <==================
	-----------------------------------------------------------
	 SCS Same-Spin Scale       =       0.3333333333333333 [-]
	 SCS Opposite-Spin Scale   =       1.2000000000000000 [-]
	 SCS Same-Spin Energy      =      -0.0716020527299372 [Eh]
	 SCS Opposite-Spin Energy  =      -0.8030336300992569 [Eh]
	 SCS Correlation Energy    =      -0.8746356828291941 [Eh]
	 SCS Total Energy          =    -228.7796823138328364 [Eh]
	-----------------------------------------------------------

  Dipole Moment: [D]
     X:     0.7706      Y:    -1.3696      Z:     0.0000     Total:     1.5715

*** Psi4 exiting successfully. Buy a developer a beer!
