                               Psi4 1.3.2 release

  ==> Input File <==

--------------------------------------------------------------------------
#psi4
#
memory 32 gb

molecule  {
0 1
  C        0.0901110     0.1256610    -0.0006000
  O        0.6574530     1.2034920     0.0001100
  O        0.8140340    -1.1454110    -0.0000375
  H        1.7137310    -0.8171840     0.0013030
  C       -1.3945180    -0.1003110    -0.0000980
  H       -1.9040560     0.8615770    -0.0148950
  H       -1.6785790    -0.6920150    -0.8731890
  H       -1.6806310    -0.6642840     0.8906910
units angstrom
no_reorient  #important for SAPT in psi4, default
symmetry c1  #important for SAPT in psi4, default
}

set PROPERTIES_ORIGIN ["COM"]
properties('MP2/aug-cc-pvtz', properties = ['dipole'])
--------------------------------------------------------------------------

    Molecular point group: c1
  Charge       = 0
  Multiplicity = 1
  Basis Set: AUG-CC-PVTZ
    Blend: AUG-CC-PVTZ
  Basis Set: (AUG-CC-PVTZ AUX)
    Blend: AUG-CC-PVTZ-JKFIT

    Orbital Energies [Eh]
    ---------------------

    Doubly Occupied:

       1A    -20.608662     2A    -20.571775     3A    -11.407740
       4A    -11.255862     5A     -1.440643     6A     -1.357427
       7A     -1.033098     8A     -0.797961     9A     -0.706812
      10A     -0.672903    11A     -0.639589    12A     -0.598280
      13A     -0.577478    14A     -0.558216    15A     -0.493192
      16A     -0.462562

  @DF-RHF Final Energy:  -227.89141078632485

   => Energetics <=

    Nuclear Repulsion Energy =            118.3728510130622169
    One-Electron Energy =                -546.1641265397707912
    Two-Electron Energy =                 199.8998647403836912
    Total Energy =                       -227.8914107863248546
  Basis Set: (AUG-CC-PVTZ AUX)
    Blend: AUG-CC-PVTZ-RI
    Molecular point group: c1

    Geometry (in Angstrom), charge = 0, multiplicity = 1:

       Center              X                  Y                   Z               Mass
    ------------   -----------------  -----------------  -----------------  -----------------
         C            0.018367686464     0.127143329167    -0.000545423006    12.000000000000
         O            0.585709686464     1.204974329167     0.000164576994    15.994914619570
         O            0.742290686464    -1.143928670833     0.000017076994    15.994914619570
         H            1.641987686464    -0.815701670833     0.001357576994     1.007825032230
         C           -1.466261313536    -0.098828670833    -0.000043423006    12.000000000000
         H           -1.975799313536     0.863059329167    -0.014840423006     1.007825032230
         H           -1.750322313536    -0.690532670833    -0.873134423006     1.007825032230
         H           -1.752374313536    -0.662801670833     0.890745576994     1.007825032230

  Basis Set: AUG-CC-PVTZ
    Blend: AUG-CC-PVTZ
  Basis Set: (AUG-CC-PVTZ AUX)
    Blend: AUG-CC-PVTZ-JKFIT
	 Reference Energy          =    -227.8914107863248546 [Eh]
	 Singles Energy            =      -0.0000000000000000 [Eh]
	 Same-Spin Energy          =      -0.2162187712452391 [Eh]
	 Opposite-Spin Energy      =      -0.6739409351083514 [Eh]
	 Correlation Energy        =      -0.8901597063535905 [Eh]
	 Total Energy              =    -228.7815704926784406 [Eh]

	 ================> DF-SCS-MP2 Energies <==================
	-----------------------------------------------------------
	 SCS Same-Spin Scale       =       0.3333333333333333 [-]
	 SCS Opposite-Spin Scale   =       1.2000000000000000 [-]
	 SCS Same-Spin Energy      =      -0.0720729237484130 [Eh]
	 SCS Opposite-Spin Energy  =      -0.8087291221300217 [Eh]
	 SCS Correlation Energy    =      -0.8808020458784347 [Eh]
	 SCS Total Energy          =    -228.7722128322032802 [Eh]
	-----------------------------------------------------------

  Dipole Moment: [D]
     X:    -1.1335      Y:    -0.8927      Z:     0.0030     Total:     1.4428

*** Psi4 exiting successfully. Buy a developer a beer!
