                               Psi4 1.4a3.dev225

  ==> Input File <==

--------------------------------------------------------------------------
#psi4
#
memory 32 gb

molecule  {
0 1
  C       -0.0901920     0.1257170     0.0000000
  O       -0.6348375     1.1589479     0.0000000
  O       -0.7639580    -1.0588020     0.0000000
  H       -1.7131600    -0.8179640     0.0000010
  C        1.3945970    -0.0997450     0.0000000
  H        1.9039530     0.8623950    -0.0000090
  H        1.6798310    -0.6776310     0.8820670
  H        1.6798300    -0.6776490    -0.8820560
units angstrom
no_reorient  #important for SAPT in psi4, default
symmetry c1  #important for SAPT in psi4, default
}

set PROPERTIES_ORIGIN ["COM"]
properties('MP2/aug-cc-pvtz', properties = ['dipole'])
--------------------------------------------------------------------------

    Molecular point group: c1
  Charge       = 0
  Multiplicity = 1
  Basis Set: AUG-CC-PVTZ
    Blend: AUG-CC-PVTZ
  Basis Set: (AUG-CC-PVTZ AUX)
    Blend: AUG-CC-PVTZ-JKFIT

    Orbital Energies [Eh]
    ---------------------

    Doubly Occupied:

       1A    -20.609203     2A    -20.553944     3A    -11.383040
       4A    -11.245176     5A     -1.475015     6A     -1.374332
       7A     -1.025602     8A     -0.815211     9A     -0.709215
      10A     -0.687070    11A     -0.654780    12A     -0.591086
      13A     -0.571503    14A     -0.560546    15A     -0.494514
      16A     -0.457318

  @DF-RHF Final Energy:  -227.90555496809702

   => Energetics <=

    Nuclear Repulsion Energy =            122.0342028561715040
    One-Electron Energy =                -553.4644023140649551
    Two-Electron Energy =                 203.5246444897964011
    Total Energy =                       -227.9055549680970216
  Basis Set: (AUG-CC-PVTZ AUX)
    Blend: AUG-CC-PVTZ-RI
    Molecular point group: c1

    Geometry (in Angstrom), charge = 0, multiplicity = 1:

       Center              X                  Y                   Z               Mass
    ------------   -----------------  -----------------  -----------------  -----------------
         C           -0.037835134862     0.115847430891    -0.000000050374    12.000000000000
         O           -0.582480634862     1.149078330891    -0.000000050374    15.994914619570
         O           -0.711601134862    -1.068671569109    -0.000000050374    15.994914619570
         H           -1.660803134862    -0.827833569109     0.000000949626     1.007825032230
         C            1.446953865138    -0.109614569109    -0.000000050374    12.000000000000
         H            1.956309865138     0.852525430891    -0.000009050374     1.007825032230
         H            1.732187865138    -0.687500569109     0.882066949626     1.007825032230
         H            1.732186865138    -0.687518569109    -0.882056050374     1.007825032230

  Basis Set: AUG-CC-PVTZ
    Blend: AUG-CC-PVTZ
  Basis Set: (AUG-CC-PVTZ AUX)
    Blend: AUG-CC-PVTZ-JKFIT
	 Reference Energy          =    -227.9055549680970216 [Eh]
	 Singles Energy            =      -0.0000000000000000 [Eh]
	 Same-Spin Energy          =      -0.2140647481888329 [Eh]
	 Opposite-Spin Energy      =      -0.6673461143087052 [Eh]
	 Correlation Energy        =      -0.8814108624975381 [Eh]
	 Total Energy              =    -228.7869658305945677 [Eh]

	 ================> DF-SCS-MP2 Energies <==================
	-----------------------------------------------------------
	 SCS Same-Spin Scale       =       0.3333333333333333 [-]
	 SCS Opposite-Spin Scale   =       1.2000000000000000 [-]
	 SCS Same-Spin Energy      =      -0.0713549160629443 [Eh]
	 SCS Opposite-Spin Energy  =      -0.8008153371704462 [Eh]
	 SCS Correlation Energy    =      -0.8721702532333905 [Eh]
	 SCS Total Energy          =    -228.7777252213303996 [Eh]
	-----------------------------------------------------------

  Dipole Moment: [D]
     X:     0.7168      Y:    -1.2136      Z:     0.0000     Total:     1.4095

*** Psi4 exiting successfully. Buy a developer a beer!
