                               Psi4 1.3.2 release

  ==> Input File <==

--------------------------------------------------------------------------
#psi4
#
memory 32 gb

molecule  {
0 1
  C        0.0901110     0.1256610    -0.0006000
  O        0.6194916     1.2226354     0.0000743
  O        0.7645440    -1.0585160    -0.0000760
  H        1.7137310    -0.8171840     0.0013030
  C       -1.3945180    -0.1003110    -0.0000980
  H       -1.9040560     0.8615770    -0.0148950
  H       -1.6785790    -0.6920150    -0.8731890
  H       -1.6806310    -0.6642840     0.8906910
units angstrom
no_reorient  #important for SAPT in psi4, default
symmetry c1  #important for SAPT in psi4, default
}

set PROPERTIES_ORIGIN ["COM"]
properties('MP2/aug-cc-pvtz', properties = ['dipole'])
--------------------------------------------------------------------------

    Molecular point group: c1
  Charge       = 0
  Multiplicity = 1
  Basis Set: AUG-CC-PVTZ
    Blend: AUG-CC-PVTZ
  Basis Set: (AUG-CC-PVTZ AUX)
    Blend: AUG-CC-PVTZ-JKFIT

    Orbital Energies [Eh]
    ---------------------

    Doubly Occupied:

       1A    -20.620847     2A    -20.554870     3A    -11.394632
       4A    -11.247116     5A     -1.461470     6A     -1.361613
       7A     -1.027603     8A     -0.821463     9A     -0.707961
      10A     -0.679867    11A     -0.650288    12A     -0.585939
      13A     -0.573238    14A     -0.562336    15A     -0.485547
      16A     -0.456994

  @DF-RHF Final Energy:  -227.90251093209707

   => Energetics <=

    Nuclear Repulsion Energy =            120.5457443585777924
    One-Electron Energy =                -550.5129406872190430
    Two-Electron Energy =                 202.0646853965441778
    Total Energy =                       -227.9025109320970728
  Basis Set: (AUG-CC-PVTZ AUX)
    Blend: AUG-CC-PVTZ-RI
    Molecular point group: c1

    Geometry (in Angstrom), charge = 0, multiplicity = 1:

       Center              X                  Y                   Z               Mass
    ------------   -----------------  -----------------  -----------------  -----------------
         C            0.041672440825     0.098885361144    -0.000525649592    12.000000000000
         O            0.571053040825     1.195859761144     0.000148650408    15.994914619570
         O            0.716105440825    -1.085291638856    -0.000001649592    15.994914619570
         H            1.665292440825    -0.843959638856     0.001377350408     1.007825032230
         C           -1.442956559175    -0.127086638856    -0.000023649592    12.000000000000
         H           -1.952494559175     0.834801361144    -0.014820649592     1.007825032230
         H           -1.727017559175    -0.718790638856    -0.873114649592     1.007825032230
         H           -1.729069559175    -0.691059638856     0.890765350408     1.007825032230

  Basis Set: AUG-CC-PVTZ
    Blend: AUG-CC-PVTZ
  Basis Set: (AUG-CC-PVTZ AUX)
    Blend: AUG-CC-PVTZ-JKFIT
	 Reference Energy          =    -227.9025109320970728 [Eh]
	 Singles Energy            =      -0.0000000000000000 [Eh]
	 Same-Spin Energy          =      -0.2153730282764060 [Eh]
	 Opposite-Spin Energy      =      -0.6706277682730308 [Eh]
	 Correlation Energy        =      -0.8860007965494369 [Eh]
	 Total Energy              =    -228.7885117286465118 [Eh]

	 ================> DF-SCS-MP2 Energies <==================
	-----------------------------------------------------------
	 SCS Same-Spin Scale       =       0.3333333333333333 [-]
	 SCS Opposite-Spin Scale   =       1.2000000000000000 [-]
	 SCS Same-Spin Energy      =      -0.0717910094254687 [Eh]
	 SCS Opposite-Spin Energy  =      -0.8047533219276369 [Eh]
	 SCS Correlation Energy    =      -0.8765443313531056 [Eh]
	 SCS Total Energy          =    -228.7790552634501751 [Eh]
	-----------------------------------------------------------

  Dipole Moment: [D]
     X:    -0.6813      Y:    -1.5100      Z:     0.0031     Total:     1.6566

*** Psi4 exiting successfully. Buy a developer a beer!
