                               Psi4 1.3.2 release

  ==> Input File <==

--------------------------------------------------------------------------
#psi4
#
memory 32 gb

molecule  {
0 1
  C        0.0091500     0.0757303    -0.0007275
  O        0.6574530     1.2034920     0.0001100
  O        0.7645440    -1.0585160    -0.0000760
  H        1.7137310    -0.8171840     0.0013030
  C       -1.3945180    -0.1003110    -0.0000980
  H       -1.9040560     0.8615770    -0.0148950
  H       -1.6785790    -0.6920150    -0.8731890
  H       -1.6806310    -0.6642840     0.8906910
units angstrom
no_reorient  #important for SAPT in psi4, default
symmetry c1  #important for SAPT in psi4, default
}

set PROPERTIES_ORIGIN ["COM"]
properties('MP2/aug-cc-pvtz', properties = ['dipole'])
--------------------------------------------------------------------------

    Molecular point group: c1
  Charge       = 0
  Multiplicity = 1
  Basis Set: AUG-CC-PVTZ
    Blend: AUG-CC-PVTZ
  Basis Set: (AUG-CC-PVTZ AUX)
    Blend: AUG-CC-PVTZ-JKFIT

    Orbital Energies [Eh]
    ---------------------

    Doubly Occupied:

       1A    -20.619674     2A    -20.543310     3A    -11.403201
       4A    -11.254700     5A     -1.449631     6A     -1.311884
       7A     -1.064175     8A     -0.828764     9A     -0.699956
      10A     -0.678468    11A     -0.654037    12A     -0.595036
      13A     -0.566160    14A     -0.563913    15A     -0.455964
      16A     -0.450561

  @DF-RHF Final Energy:  -227.88099167996862

   => Energetics <=

    Nuclear Repulsion Energy =            120.1601339817478333
    One-Electron Energy =                -549.8033854182814366
    Two-Electron Energy =                 201.7622597565649869
    Total Energy =                       -227.8809916799686164
  Basis Set: (AUG-CC-PVTZ AUX)
    Blend: AUG-CC-PVTZ-RI
    Molecular point group: c1

    Geometry (in Angstrom), charge = 0, multiplicity = 1:

       Center              X                  Y                   Z               Mass
    ------------   -----------------  -----------------  -----------------  -----------------
         C           -0.033218319378     0.064038773324    -0.000637172192    12.000000000000
         O            0.615084680622     1.191800473324     0.000200327808    15.994914619570
         O            0.722175680622    -1.070207526676     0.000014327808    15.994914619570
         H            1.671362680622    -0.828875526676     0.001393327808     1.007825032230
         C           -1.436886319378    -0.112002526676    -0.000007672192    12.000000000000
         H           -1.946424319378     0.849885473324    -0.014804672192     1.007825032230
         H           -1.720947319378    -0.703706526676    -0.873098672192     1.007825032230
         H           -1.722999319378    -0.675975526676     0.890781327808     1.007825032230

  Basis Set: AUG-CC-PVTZ
    Blend: AUG-CC-PVTZ
  Basis Set: (AUG-CC-PVTZ AUX)
    Blend: AUG-CC-PVTZ-JKFIT
	 Reference Energy          =    -227.8809916799686164 [Eh]
	 Singles Energy            =      -0.0000000000000000 [Eh]
	 Same-Spin Energy          =      -0.2177615633346288 [Eh]
	 Opposite-Spin Energy      =      -0.6748274877718065 [Eh]
	 Correlation Energy        =      -0.8925890511064353 [Eh]
	 Total Energy              =    -228.7735807310750431 [Eh]

	 ================> DF-SCS-MP2 Energies <==================
	-----------------------------------------------------------
	 SCS Same-Spin Scale       =       0.3333333333333333 [-]
	 SCS Opposite-Spin Scale   =       1.2000000000000000 [-]
	 SCS Same-Spin Energy      =      -0.0725871877782096 [Eh]
	 SCS Opposite-Spin Energy  =      -0.8097929853261677 [Eh]
	 SCS Correlation Energy    =      -0.8823801731043773 [Eh]
	 SCS Total Energy          =    -228.7633718530729823 [Eh]
	-----------------------------------------------------------

  Dipole Moment: [D]
     X:    -1.2432      Y:    -1.8079      Z:     0.0034     Total:     2.1941

*** Psi4 exiting successfully. Buy a developer a beer!
