                               Psi4 1.4a3.dev225

  ==> Input File <==

--------------------------------------------------------------------------
#psi4
#
memory 32 gb

molecule  {
0 1
  C       -0.0901920     0.1257170     0.0000000
  O       -0.6581530     1.2031790     0.0000000
  O       -0.7639580    -1.0588020     0.0000000
  H       -1.7131600    -0.8179640     0.0000010
  C        1.4143703    -0.1027475     0.0000000
  H        1.9039530     0.8623950    -0.0000090
  H        1.6798310    -0.6776310     0.8820670
  H        1.6798300    -0.6776490    -0.8820560
units angstrom
no_reorient  #important for SAPT in psi4, default
symmetry c1  #important for SAPT in psi4, default
}

set PROPERTIES_ORIGIN ["COM"]
properties('MP2/aug-cc-pvtz', properties = ['dipole'])
--------------------------------------------------------------------------

    Molecular point group: c1
  Charge       = 0
  Multiplicity = 1
  Basis Set: AUG-CC-PVTZ
    Blend: AUG-CC-PVTZ
  Basis Set: (AUG-CC-PVTZ AUX)
    Blend: AUG-CC-PVTZ-JKFIT

    Orbital Energies [Eh]
    ---------------------

    Doubly Occupied:

       1A    -20.617726     2A    -20.554589     3A    -11.395208
       4A    -11.249343     5A     -1.461153     6A     -1.358564
       7A     -1.026756     8A     -0.820630     9A     -0.706515
      10A     -0.677603    11A     -0.649717    12A     -0.585807
      13A     -0.575560    14A     -0.566136    15A     -0.484509
      16A     -0.456304

  @DF-RHF Final Energy:  -227.90282647842500

   => Energetics <=

    Nuclear Repulsion Energy =            120.3087543285616761
    One-Electron Energy =                -550.0509275940221414
    Two-Electron Energy =                 201.8393467870354527
    Total Energy =                       -227.9028264784249984
  Basis Set: (AUG-CC-PVTZ AUX)
    Blend: AUG-CC-PVTZ-RI
    Molecular point group: c1

    Geometry (in Angstrom), charge = 0, multiplicity = 1:

       Center              X                  Y                   Z               Mass
    ------------   -----------------  -----------------  -----------------  -----------------
         C           -0.035575100217     0.104660659247    -0.000000050374    12.000000000000
         O           -0.603536100217     1.182122659247    -0.000000050374    15.994914619570
         O           -0.709341100217    -1.079858340753    -0.000000050374    15.994914619570
         H           -1.658543100217    -0.839020340753     0.000000949626     1.007825032230
         C            1.468987199783    -0.123803840753    -0.000000050374    12.000000000000
         H            1.958569899783     0.841338659247    -0.000009050374     1.007825032230
         H            1.734447899783    -0.698687340753     0.882066949626     1.007825032230
         H            1.734446899783    -0.698705340753    -0.882056050374     1.007825032230

  Basis Set: AUG-CC-PVTZ
    Blend: AUG-CC-PVTZ
  Basis Set: (AUG-CC-PVTZ AUX)
    Blend: AUG-CC-PVTZ-JKFIT
	 Reference Energy          =    -227.9028264784249984 [Eh]
	 Singles Energy            =      -0.0000000000000000 [Eh]
	 Same-Spin Energy          =      -0.2152004961253465 [Eh]
	 Opposite-Spin Energy      =      -0.6703778049581822 [Eh]
	 Correlation Energy        =      -0.8855783010835288 [Eh]
	 Total Energy              =    -228.7884047795085394 [Eh]

	 ================> DF-SCS-MP2 Energies <==================
	-----------------------------------------------------------
	 SCS Same-Spin Scale       =       0.3333333333333333 [-]
	 SCS Opposite-Spin Scale   =       1.2000000000000000 [-]
	 SCS Same-Spin Energy      =      -0.0717334987084488 [Eh]
	 SCS Opposite-Spin Energy  =      -0.8044533659498186 [Eh]
	 SCS Correlation Energy    =      -0.8761868646582675 [Eh]
	 SCS Total Energy          =    -228.7790133430832782 [Eh]
	-----------------------------------------------------------

  Dipole Moment: [D]
     X:     0.7794      Y:    -1.4638      Z:     0.0000     Total:     1.6584

*** Psi4 exiting successfully. Buy a developer a beer!
