                               Psi4 1.3.2 release

  ==> Input File <==

--------------------------------------------------------------------------
#psi4
#
memory 32 gb

molecule  {
0 1
  C        0.1108804     0.1372511    -0.0005677
  O        0.6574530     1.2034920     0.0001100
  O        0.7645440    -1.0585160    -0.0000760
  H        1.7137310    -0.8171840     0.0013030
  C       -1.3945180    -0.1003110    -0.0000980
  H       -1.9040560     0.8615770    -0.0148950
  H       -1.6785790    -0.6920150    -0.8731890
  H       -1.6806310    -0.6642840     0.8906910
units angstrom
no_reorient  #important for SAPT in psi4, default
symmetry c1  #important for SAPT in psi4, default
}

set PROPERTIES_ORIGIN ["COM"]
properties('MP2/aug-cc-pvtz', properties = ['dipole'])
--------------------------------------------------------------------------

    Molecular point group: c1
  Charge       = 0
  Multiplicity = 1
  Basis Set: AUG-CC-PVTZ
    Blend: AUG-CC-PVTZ
  Basis Set: (AUG-CC-PVTZ AUX)
    Blend: AUG-CC-PVTZ-JKFIT

    Orbital Energies [Eh]
    ---------------------

    Doubly Occupied:

       1A    -20.617140     2A    -20.556929     3A    -11.392387
       4A    -11.247889     5A     -1.466281     6A     -1.369187
       7A     -1.021441     8A     -0.818277     9A     -0.709576
      10A     -0.681362    11A     -0.650462    12A     -0.589560
      13A     -0.570054    14A     -0.561843    15A     -0.490986
      16A     -0.457442

  @DF-RHF Final Energy:  -227.90395375057918

   => Energetics <=

    Nuclear Repulsion Energy =            120.7125232157499113
    One-Electron Energy =                -550.8313227247338091
    Two-Electron Energy =                 202.2148457584047208
    Total Energy =                       -227.9039537505791770
  Basis Set: (AUG-CC-PVTZ AUX)
    Blend: AUG-CC-PVTZ-RI
    Molecular point group: c1

    Geometry (in Angstrom), charge = 0, multiplicity = 1:

       Center              X                  Y                   Z               Mass
    ------------   -----------------  -----------------  -----------------  -----------------
         C            0.048173163096     0.113259744784    -0.000509320941    12.000000000000
         O            0.594745763096     1.179500644784     0.000168379059    15.994914619570
         O            0.701836763096    -1.082507355216    -0.000017620941    15.994914619570
         H            1.651023763096    -0.841175355216     0.001361379059     1.007825032230
         C           -1.457225236904    -0.124302355216    -0.000039620941    12.000000000000
         H           -1.966763236904     0.837585644784    -0.014836620941     1.007825032230
         H           -1.741286236904    -0.716006355216    -0.873130620941     1.007825032230
         H           -1.743338236904    -0.688275355216     0.890749379059     1.007825032230

  Basis Set: AUG-CC-PVTZ
    Blend: AUG-CC-PVTZ
  Basis Set: (AUG-CC-PVTZ AUX)
    Blend: AUG-CC-PVTZ-JKFIT
	 Reference Energy          =    -227.9039537505791770 [Eh]
	 Singles Energy            =      -0.0000000000000000 [Eh]
	 Same-Spin Energy          =      -0.2148350231551234 [Eh]
	 Opposite-Spin Energy      =      -0.6695866602326583 [Eh]
	 Correlation Energy        =      -0.8844216833877817 [Eh]
	 Total Energy              =    -228.7883754339669622 [Eh]

	 ================> DF-SCS-MP2 Energies <==================
	-----------------------------------------------------------
	 SCS Same-Spin Scale       =       0.3333333333333333 [-]
	 SCS Opposite-Spin Scale   =       1.2000000000000000 [-]
	 SCS Same-Spin Energy      =      -0.0716116743850411 [Eh]
	 SCS Opposite-Spin Energy  =      -0.8035039922791900 [Eh]
	 SCS Correlation Energy    =      -0.8751156666642311 [Eh]
	 SCS Total Energy          =    -228.7790694172434200 [Eh]
	-----------------------------------------------------------

  Dipole Moment: [D]
     X:    -0.6841      Y:    -1.3824      Z:     0.0029     Total:     1.5424

*** Psi4 exiting successfully. Buy a developer a beer!
