                               Psi4 1.3.2 release

  ==> Input File <==

--------------------------------------------------------------------------
#psi4
#
memory 32 gb

molecule  {
0 1
  C        0.1743578     0.1698225    -0.0004700
  O        0.6574530     1.2034920     0.0001100
  O        0.7645440    -1.0585160    -0.0000760
  H        1.7137310    -0.8171840     0.0013030
  C       -1.3945180    -0.1003110    -0.0000980
  H       -1.9040560     0.8615770    -0.0148950
  H       -1.6785790    -0.6920150    -0.8731890
  H       -1.6806310    -0.6642840     0.8906910
units angstrom
no_reorient  #important for SAPT in psi4, default
symmetry c1  #important for SAPT in psi4, default
}

set PROPERTIES_ORIGIN ["COM"]
properties('MP2/aug-cc-pvtz', properties = ['dipole'])
--------------------------------------------------------------------------

    Molecular point group: c1
  Charge       = 0
  Multiplicity = 1
  Basis Set: AUG-CC-PVTZ
    Blend: AUG-CC-PVTZ
  Basis Set: (AUG-CC-PVTZ AUX)
    Blend: AUG-CC-PVTZ-JKFIT

    Orbital Energies [Eh]
    ---------------------

    Doubly Occupied:

       1A    -20.616901     2A    -20.564875     3A    -11.386687
       4A    -11.241572     5A     -1.488318     6A     -1.395490
       7A     -0.998210     8A     -0.812071     9A     -0.720033
      10A     -0.690512    11A     -0.656295    12A     -0.599233
      13A     -0.558399    14A     -0.557480    15A     -0.510039
      16A     -0.449823

  @DF-RHF Final Energy:  -227.89464788867451

   => Energetics <=

    Nuclear Repulsion Energy =            121.1559860754808966
    One-Electron Energy =                -551.6093890061955562
    Two-Electron Energy =                 202.5587550420401612
    Total Energy =                       -227.8946478886745126
  Basis Set: (AUG-CC-PVTZ AUX)
    Blend: AUG-CC-PVTZ-RI
    Molecular point group: c1

    Geometry (in Angstrom), charge = 0, multiplicity = 1:

       Center              X                  Y                   Z               Mass
    ------------   -----------------  -----------------  -----------------  -----------------
         C            0.098959552314     0.139319158020    -0.000431154063    12.000000000000
         O            0.582054752314     1.172988658020     0.000148845937    15.994914619570
         O            0.689145752314    -1.089019341980    -0.000037154063    15.994914619570
         H            1.638332752314    -0.847687341980     0.001341845937     1.007825032230
         C           -1.469916247686    -0.130814341980    -0.000059154063    12.000000000000
         H           -1.979454247686     0.831073658020    -0.014856154063     1.007825032230
         H           -1.753977247686    -0.722518341980    -0.873150154063     1.007825032230
         H           -1.756029247686    -0.694787341980     0.890729845937     1.007825032230

  Basis Set: AUG-CC-PVTZ
    Blend: AUG-CC-PVTZ
  Basis Set: (AUG-CC-PVTZ AUX)
    Blend: AUG-CC-PVTZ-JKFIT
	 Reference Energy          =    -227.8946478886745126 [Eh]
	 Singles Energy            =      -0.0000000000000000 [Eh]
	 Same-Spin Energy          =      -0.2137421087869905 [Eh]
	 Opposite-Spin Energy      =      -0.6675975778015109 [Eh]
	 Correlation Energy        =      -0.8813396865885014 [Eh]
	 Total Energy              =    -228.7759875752630023 [Eh]

	 ================> DF-SCS-MP2 Energies <==================
	-----------------------------------------------------------
	 SCS Same-Spin Scale       =       0.3333333333333333 [-]
	 SCS Opposite-Spin Scale   =       1.2000000000000000 [-]
	 SCS Same-Spin Energy      =      -0.0712473695956635 [Eh]
	 SCS Opposite-Spin Energy  =      -0.8011170933618130 [Eh]
	 SCS Correlation Energy    =      -0.8723644629574765 [Eh]
	 SCS Total Energy          =    -228.7670123516319904 [Eh]
	-----------------------------------------------------------

  Dipole Moment: [D]
     X:    -0.2888      Y:    -1.1114      Z:     0.0028     Total:     1.1483

*** Psi4 exiting successfully. Buy a developer a beer!
