                               Psi4 1.4a3.dev225

  ==> Input File <==

--------------------------------------------------------------------------
#psi4
#
memory 32 gb

molecule  {
0 1
  C       -0.0901920     0.1257170     0.0000000
  O       -0.6581530     1.2031790     0.0000000
  O       -0.7639580    -1.0588020     0.0000000
  H       -1.7131600    -0.8179640     0.0000010
  C        1.3451637    -0.0922387     0.0000000
  H        1.9039530     0.8623950    -0.0000090
  H        1.6798310    -0.6776310     0.8820670
  H        1.6798300    -0.6776490    -0.8820560
units angstrom
no_reorient  #important for SAPT in psi4, default
symmetry c1  #important for SAPT in psi4, default
}

set PROPERTIES_ORIGIN ["COM"]
properties('MP2/aug-cc-pvtz', properties = ['dipole'])
--------------------------------------------------------------------------

    Molecular point group: c1
  Charge       = 0
  Multiplicity = 1
  Basis Set: AUG-CC-PVTZ
    Blend: AUG-CC-PVTZ
  Basis Set: (AUG-CC-PVTZ AUX)
    Blend: AUG-CC-PVTZ-JKFIT

    Orbital Energies [Eh]
    ---------------------

    Doubly Occupied:

       1A    -20.616675     2A    -20.553566     3A    -11.392384
       4A    -11.250652     5A     -1.462095     6A     -1.358630
       7A     -1.037741     8A     -0.819572     9A     -0.707343
      10A     -0.685306    11A     -0.651019    12A     -0.590167
      13A     -0.566763    14A     -0.554752    15A     -0.483124
      16A     -0.460444

  @DF-RHF Final Energy:  -227.90006775662465

   => Energetics <=

    Nuclear Repulsion Energy =            121.2894043009962814
    One-Electron Energy =                -551.9984771289015271
    Two-Electron Energy =                 202.8090050712805805
    Total Energy =                       -227.9000677566246509
  Basis Set: (AUG-CC-PVTZ AUX)
    Blend: AUG-CC-PVTZ-RI
    Molecular point group: c1

    Geometry (in Angstrom), charge = 0, multiplicity = 1:

       Center              X                  Y                   Z               Mass
    ------------   -----------------  -----------------  -----------------  -----------------
         C           -0.021738652807     0.102559639134    -0.000000050374    12.000000000000
         O           -0.589699652807     1.180021639134    -0.000000050374    15.994914619570
         O           -0.695504652807    -1.081959360866    -0.000000050374    15.994914619570
         H           -1.644706652807    -0.841121360866     0.000000949626     1.007825032230
         C            1.413617047193    -0.115396060866    -0.000000050374    12.000000000000
         H            1.972406347193     0.839237639134    -0.000009050374     1.007825032230
         H            1.748284347193    -0.700788360866     0.882066949626     1.007825032230
         H            1.748283347193    -0.700806360866    -0.882056050374     1.007825032230

  Basis Set: AUG-CC-PVTZ
    Blend: AUG-CC-PVTZ
  Basis Set: (AUG-CC-PVTZ AUX)
    Blend: AUG-CC-PVTZ-JKFIT
	 Reference Energy          =    -227.9000677566246509 [Eh]
	 Singles Energy            =      -0.0000000000000000 [Eh]
	 Same-Spin Energy          =      -0.2157317828532545 [Eh]
	 Opposite-Spin Energy      =      -0.6708695486554744 [Eh]
	 Correlation Energy        =      -0.8866013315087289 [Eh]
	 Total Energy              =    -228.7866690881333795 [Eh]

	 ================> DF-SCS-MP2 Energies <==================
	-----------------------------------------------------------
	 SCS Same-Spin Scale       =       0.3333333333333333 [-]
	 SCS Opposite-Spin Scale   =       1.2000000000000000 [-]
	 SCS Same-Spin Energy      =      -0.0719105942844182 [Eh]
	 SCS Opposite-Spin Energy  =      -0.8050434583865693 [Eh]
	 SCS Correlation Energy    =      -0.8769540526709875 [Eh]
	 SCS Total Energy          =    -228.7770218092956327 [Eh]
	-----------------------------------------------------------

  Dipole Moment: [D]
     X:     0.8757      Y:    -1.4860      Z:     0.0000     Total:     1.7248

*** Psi4 exiting successfully. Buy a developer a beer!
