                               Psi4 1.4a3.dev225

  ==> Input File <==

--------------------------------------------------------------------------
#psi4
#
memory 32 gb

molecule  {
0 1
  C       -0.0901920     0.1257170     0.0000000
  O       -0.6581530     1.2031790     0.0000000
  O       -0.7639580    -1.0588020     0.0000000
  H       -1.7325457    -0.8130453     0.0000010
  C        1.3945970    -0.0997450     0.0000000
  H        1.9039530     0.8623950    -0.0000090
  H        1.6798310    -0.6776310     0.8820670
  H        1.6798300    -0.6776490    -0.8820560
units angstrom
no_reorient  #important for SAPT in psi4, default
symmetry c1  #important for SAPT in psi4, default
}

set PROPERTIES_ORIGIN ["COM"]
properties('MP2/aug-cc-pvtz', properties = ['dipole'])
--------------------------------------------------------------------------

    Molecular point group: c1
  Charge       = 0
  Multiplicity = 1
  Basis Set: AUG-CC-PVTZ
    Blend: AUG-CC-PVTZ
  Basis Set: (AUG-CC-PVTZ AUX)
    Blend: AUG-CC-PVTZ-JKFIT

    Orbital Energies [Eh]
    ---------------------

    Doubly Occupied:

       1A    -20.618678     2A    -20.553941     3A    -11.394147
       4A    -11.249478     5A     -1.458624     6A     -1.356653
       7A     -1.028775     8A     -0.816576     9A     -0.704718
      10A     -0.679202    11A     -0.649483    12A     -0.584644
      13A     -0.573665    14A     -0.562474    15A     -0.483649
      16A     -0.457354

  @DF-RHF Final Energy:  -227.90148457823125

   => Energetics <=

    Nuclear Repulsion Energy =            120.4722478678550885
    One-Electron Energy =                -550.4033430662303772
    Two-Electron Energy =                 202.0296106201440125
    Total Energy =                       -227.9014845782312477
  Basis Set: (AUG-CC-PVTZ AUX)
    Blend: AUG-CC-PVTZ-RI
    Molecular point group: c1

    Geometry (in Angstrom), charge = 0, multiplicity = 1:

       Center              X                  Y                   Z               Mass
    ------------   -----------------  -----------------  -----------------  -----------------
         C           -0.031296323785     0.103977779911    -0.000000050374    12.000000000000
         O           -0.599257323785     1.181439779911    -0.000000050374    15.994914619570
         O           -0.705062323785    -1.080541220089    -0.000000050374    15.994914619570
         H           -1.673650023785    -0.834784520089     0.000000949626     1.007825032230
         C            1.453492676215    -0.121484220089    -0.000000050374    12.000000000000
         H            1.962848676215     0.840655779911    -0.000009050374     1.007825032230
         H            1.738726676215    -0.699370220089     0.882066949626     1.007825032230
         H            1.738725676215    -0.699388220089    -0.882056050374     1.007825032230

  Basis Set: AUG-CC-PVTZ
    Blend: AUG-CC-PVTZ
  Basis Set: (AUG-CC-PVTZ AUX)
    Blend: AUG-CC-PVTZ-JKFIT
	 Reference Energy          =    -227.9014845782312477 [Eh]
	 Singles Energy            =      -0.0000000000000000 [Eh]
	 Same-Spin Energy          =      -0.2155646269080822 [Eh]
	 Opposite-Spin Energy      =      -0.6710432662810348 [Eh]
	 Correlation Energy        =      -0.8866078931891170 [Eh]
	 Total Energy              =    -228.7880924714203559 [Eh]

	 ================> DF-SCS-MP2 Energies <==================
	-----------------------------------------------------------
	 SCS Same-Spin Scale       =       0.3333333333333333 [-]
	 SCS Opposite-Spin Scale   =       1.2000000000000000 [-]
	 SCS Same-Spin Energy      =      -0.0718548756360274 [Eh]
	 SCS Opposite-Spin Energy  =      -0.8052519195372417 [Eh]
	 SCS Correlation Energy    =      -0.8771067951732692 [Eh]
	 SCS Total Energy          =    -228.7785913734045096 [Eh]
	-----------------------------------------------------------

  Dipole Moment: [D]
     X:     0.7814      Y:    -1.4703      Z:     0.0000     Total:     1.6651

*** Psi4 exiting successfully. Buy a developer a beer!
