                               Psi4 1.3.2 release

  ==> Input File <==

--------------------------------------------------------------------------
#psi4
#
memory 32 gb

molecule  {
0 1
  C        0.0901110     0.1256610    -0.0006000
  O        0.7040317     1.2919817     0.0001683
  O        0.7645440    -1.0585160    -0.0000760
  H        1.7137310    -0.8171840     0.0013030
  C       -1.3945180    -0.1003110    -0.0000980
  H       -1.9040560     0.8615770    -0.0148950
  H       -1.6785790    -0.6920150    -0.8731890
  H       -1.6806310    -0.6642840     0.8906910
units angstrom
no_reorient  #important for SAPT in psi4, default
symmetry c1  #important for SAPT in psi4, default
}

set PROPERTIES_ORIGIN ["COM"]
properties('MP2/aug-cc-pvtz', properties = ['dipole'])
--------------------------------------------------------------------------

    Molecular point group: c1
  Charge       = 0
  Multiplicity = 1
  Basis Set: AUG-CC-PVTZ
    Blend: AUG-CC-PVTZ
  Basis Set: (AUG-CC-PVTZ AUX)
    Blend: AUG-CC-PVTZ-JKFIT

    Orbital Energies [Eh]
    ---------------------

    Doubly Occupied:

       1A    -20.633052     2A    -20.553783     3A    -11.415361
       4A    -11.257716     5A     -1.455156     6A     -1.313538
       7A     -1.037732     8A     -0.830586     9A     -0.706281
      10A     -0.670385    11A     -0.646950    12A     -0.581124
      13A     -0.569289    14A     -0.568834    15A     -0.461655
      16A     -0.454636

  @DF-RHF Final Energy:  -227.87898934889554

   => Energetics <=

    Nuclear Repulsion Energy =            117.9290021043509427
    One-Electron Energy =                -545.3038270166747452
    Two-Electron Energy =                 199.4958355634282441
    Total Energy =                       -227.8789893488955443
  Basis Set: (AUG-CC-PVTZ AUX)
    Blend: AUG-CC-PVTZ-RI
    Molecular point group: c1

    Geometry (in Angstrom), charge = 0, multiplicity = 1:

       Center              X                  Y                   Z               Mass
    ------------   -----------------  -----------------  -----------------  -----------------
         C            0.019143513168     0.080405399848    -0.000550699470    12.000000000000
         O            0.633064213168     1.246726099848     0.000217600530    15.994914619570
         O            0.693576513168    -1.103771600152    -0.000026699470    15.994914619570
         H            1.642763513168    -0.862439600152     0.001352300530     1.007825032230
         C           -1.465485486832    -0.145566600152    -0.000048699470    12.000000000000
         H           -1.975023486832     0.816321399848    -0.014845699470     1.007825032230
         H           -1.749546486832    -0.737270600152    -0.873139699470     1.007825032230
         H           -1.751598486832    -0.709539600152     0.890740300530     1.007825032230

  Basis Set: AUG-CC-PVTZ
    Blend: AUG-CC-PVTZ
  Basis Set: (AUG-CC-PVTZ AUX)
    Blend: AUG-CC-PVTZ-JKFIT
	 Reference Energy          =    -227.8789893488955443 [Eh]
	 Singles Energy            =      -0.0000000000000000 [Eh]
	 Same-Spin Energy          =      -0.2178928777863414 [Eh]
	 Opposite-Spin Energy      =      -0.6767977664217337 [Eh]
	 Correlation Energy        =      -0.8946906442080751 [Eh]
	 Total Energy              =    -228.7736799931036273 [Eh]

	 ================> DF-SCS-MP2 Energies <==================
	-----------------------------------------------------------
	 SCS Same-Spin Scale       =       0.3333333333333333 [-]
	 SCS Opposite-Spin Scale   =       1.2000000000000000 [-]
	 SCS Same-Spin Energy      =      -0.0726309592621138 [Eh]
	 SCS Opposite-Spin Energy  =      -0.8121573197060804 [Eh]
	 SCS Correlation Energy    =      -0.8847882789681942 [Eh]
	 SCS Total Energy          =    -228.7637776278637318 [Eh]
	-----------------------------------------------------------

  Dipole Moment: [D]
     X:    -0.9594      Y:    -1.9292      Z:     0.0031     Total:     2.1546

*** Psi4 exiting successfully. Buy a developer a beer!
