                               Psi4 1.3.2 release

  ==> Input File <==

--------------------------------------------------------------------------
#psi4
#
memory 32 gb

molecule  {
0 1
  C        0.0901110     0.1256610    -0.0006000
  O        0.7312567     1.1612907     0.0000364
  O        0.7645440    -1.0585160    -0.0000760
  H        1.7137310    -0.8171840     0.0013030
  C       -1.3945180    -0.1003110    -0.0000980
  H       -1.9040560     0.8615770    -0.0148950
  H       -1.6785790    -0.6920150    -0.8731890
  H       -1.6806310    -0.6642840     0.8906910
units angstrom
no_reorient  #important for SAPT in psi4, default
symmetry c1  #important for SAPT in psi4, default
}

set PROPERTIES_ORIGIN ["COM"]
properties('MP2/aug-cc-pvtz', properties = ['dipole'])
--------------------------------------------------------------------------

    Molecular point group: c1
  Charge       = 0
  Multiplicity = 1
  Basis Set: AUG-CC-PVTZ
    Blend: AUG-CC-PVTZ
  Basis Set: (AUG-CC-PVTZ AUX)
    Blend: AUG-CC-PVTZ-JKFIT

    Orbital Energies [Eh]
    ---------------------

    Doubly Occupied:

       1A    -20.610489     2A    -20.553053     3A    -11.394400
       4A    -11.254352     5A     -1.461642     6A     -1.352050
       7A     -1.033491     8A     -0.818257     9A     -0.703962
      10A     -0.679495    11A     -0.649614    12A     -0.585503
      13A     -0.577146    14A     -0.564124    15A     -0.481065
      16A     -0.457983

  @DF-RHF Final Energy:  -227.90202894163434

   => Energetics <=

    Nuclear Repulsion Energy =            120.7008089761181537
    One-Electron Energy =                -550.8524259376597456
    Two-Electron Energy =                 202.2495880199072644
    Total Energy =                       -227.9020289416343417
  Basis Set: (AUG-CC-PVTZ AUX)
    Blend: AUG-CC-PVTZ-RI
    Molecular point group: c1

    Geometry (in Angstrom), charge = 0, multiplicity = 1:

       Center              X                  Y                   Z               Mass
    ------------   -----------------  -----------------  -----------------  -----------------
         C            0.011888375600     0.115232991540    -0.000515549694    12.000000000000
         O            0.653034075600     1.150862691540     0.000120850306    15.994914619570
         O            0.686321375600    -1.068944008460     0.000008450306    15.994914619570
         H            1.635508375600    -0.827612008460     0.001387450306     1.007825032230
         C           -1.472740624400    -0.110739008460    -0.000013549694    12.000000000000
         H           -1.982278624400     0.851148991540    -0.014810549694     1.007825032230
         H           -1.756801624400    -0.702443008460    -0.873104549694     1.007825032230
         H           -1.758853624400    -0.674712008460     0.890775450306     1.007825032230

  Basis Set: AUG-CC-PVTZ
    Blend: AUG-CC-PVTZ
  Basis Set: (AUG-CC-PVTZ AUX)
    Blend: AUG-CC-PVTZ-JKFIT
	 Reference Energy          =    -227.9020289416343417 [Eh]
	 Singles Energy            =      -0.0000000000000000 [Eh]
	 Same-Spin Energy          =      -0.2152654260019303 [Eh]
	 Opposite-Spin Energy      =      -0.6702443562874749 [Eh]
	 Correlation Energy        =      -0.8855097822894052 [Eh]
	 Total Energy              =    -228.7875387239237455 [Eh]

	 ================> DF-SCS-MP2 Energies <==================
	-----------------------------------------------------------
	 SCS Same-Spin Scale       =       0.3333333333333333 [-]
	 SCS Opposite-Spin Scale   =       1.2000000000000000 [-]
	 SCS Same-Spin Energy      =      -0.0717551420006434 [Eh]
	 SCS Opposite-Spin Energy  =      -0.8042932275449699 [Eh]
	 SCS Correlation Energy    =      -0.8760483695456134 [Eh]
	 SCS Total Energy          =    -228.7780773111799419 [Eh]
	-----------------------------------------------------------

  Dipole Moment: [D]
     X:    -1.0453      Y:    -1.3793      Z:     0.0031     Total:     1.7307

*** Psi4 exiting successfully. Buy a developer a beer!
