                               Psi4 1.3.2 release

  ==> Input File <==

--------------------------------------------------------------------------
#psi4
#
memory 32 gb

molecule  {
0 1
  C        0.0901110     0.1256610    -0.0006000
  O        0.5416811     1.2568910     0.0000006
  O        0.7645440    -1.0585160    -0.0000760
  H        1.7137310    -0.8171840     0.0013030
  C       -1.3945180    -0.1003110    -0.0000980
  H       -1.9040560     0.8615770    -0.0148950
  H       -1.6785790    -0.6920150    -0.8731890
  H       -1.6806310    -0.6642840     0.8906910
units angstrom
no_reorient  #important for SAPT in psi4, default
symmetry c1  #important for SAPT in psi4, default
}

set PROPERTIES_ORIGIN ["COM"]
properties('MP2/aug-cc-pvtz', properties = ['dipole'])
--------------------------------------------------------------------------

    Molecular point group: c1
  Charge       = 0
  Multiplicity = 1
  Basis Set: AUG-CC-PVTZ
    Blend: AUG-CC-PVTZ
  Basis Set: (AUG-CC-PVTZ AUX)
    Blend: AUG-CC-PVTZ-JKFIT

    Orbital Energies [Eh]
    ---------------------

    Doubly Occupied:

       1A    -20.627300     2A    -20.555760     3A    -11.394879
       4A    -11.242144     5A     -1.461991     6A     -1.367250
       7A     -1.023457     8A     -0.823603     9A     -0.710298
      10A     -0.680287    11A     -0.651005    12A     -0.586705
      13A     -0.570213    14A     -0.561043    15A     -0.487891
      16A     -0.454374

  @DF-RHF Final Energy:  -227.89938086397012

   => Energetics <=

    Nuclear Repulsion Energy =            120.5177938954009704
    One-Electron Energy =                -550.4379516948495166
    Two-Electron Energy =                 202.0207769354784091
    Total Energy =                       -227.8993808639701228
  Basis Set: (AUG-CC-PVTZ AUX)
    Blend: AUG-CC-PVTZ-RI
    Molecular point group: c1

    Geometry (in Angstrom), charge = 0, multiplicity = 1:

       Center              X                  Y                   Z               Mass
    ------------   -----------------  -----------------  -----------------  -----------------
         C            0.062408010400     0.089756652587    -0.000506009421    12.000000000000
         O            0.513978110400     1.220986652587     0.000094590579    15.994914619570
         O            0.736841010400    -1.094420347413     0.000017990579    15.994914619570
         H            1.686028010400    -0.853088347413     0.001396990579     1.007825032230
         C           -1.422220989600    -0.136215347413    -0.000004009421    12.000000000000
         H           -1.931758989600     0.825672652587    -0.014801009421     1.007825032230
         H           -1.706281989600    -0.727919347413    -0.873095009421     1.007825032230
         H           -1.708333989600    -0.700188347413     0.890784990579     1.007825032230

  Basis Set: AUG-CC-PVTZ
    Blend: AUG-CC-PVTZ
  Basis Set: (AUG-CC-PVTZ AUX)
    Blend: AUG-CC-PVTZ-JKFIT
	 Reference Energy          =    -227.8993808639701228 [Eh]
	 Singles Energy            =      -0.0000000000000000 [Eh]
	 Same-Spin Energy          =      -0.2155505323791536 [Eh]
	 Opposite-Spin Energy      =      -0.6711139126279108 [Eh]
	 Correlation Energy        =      -0.8866644450070644 [Eh]
	 Total Energy              =    -228.7860453089771795 [Eh]

	 ================> DF-SCS-MP2 Energies <==================
	-----------------------------------------------------------
	 SCS Same-Spin Scale       =       0.3333333333333333 [-]
	 SCS Opposite-Spin Scale   =       1.2000000000000000 [-]
	 SCS Same-Spin Energy      =      -0.0718501774597179 [Eh]
	 SCS Opposite-Spin Energy  =      -0.8053366951534929 [Eh]
	 SCS Correlation Energy    =      -0.8771868726132108 [Eh]
	 SCS Total Energy          =    -228.7765677365833312 [Eh]
	-----------------------------------------------------------

  Dipole Moment: [D]
     X:    -0.4318      Y:    -1.5776      Z:     0.0032     Total:     1.6356

*** Psi4 exiting successfully. Buy a developer a beer!
