                               Psi4 1.3.2 release

  ==> Input File <==

--------------------------------------------------------------------------
#psi4
#
memory 32 gb

molecule  {
0 1
  C        0.2175857     0.1896714    -0.0004042
  O        0.6574530     1.2034920     0.0001100
  O        0.7645440    -1.0585160    -0.0000760
  H        1.7137310    -0.8171840     0.0013030
  C       -1.3945180    -0.1003110    -0.0000980
  H       -1.9040560     0.8615770    -0.0148950
  H       -1.6785790    -0.6920150    -0.8731890
  H       -1.6806310    -0.6642840     0.8906910
units angstrom
no_reorient  #important for SAPT in psi4, default
symmetry c1  #important for SAPT in psi4, default
}

set PROPERTIES_ORIGIN ["COM"]
properties('MP2/aug-cc-pvtz', properties = ['dipole'])
--------------------------------------------------------------------------

    Molecular point group: c1
  Charge       = 0
  Multiplicity = 1
  Basis Set: AUG-CC-PVTZ
    Blend: AUG-CC-PVTZ
  Basis Set: (AUG-CC-PVTZ AUX)
    Blend: AUG-CC-PVTZ-JKFIT

    Orbital Energies [Eh]
    ---------------------

    Doubly Occupied:

       1A    -20.617665     2A    -20.570665     3A    -11.384009
       4A    -11.236040     5A     -1.509450     6A     -1.407978
       7A     -0.983755     8A     -0.808225     9A     -0.728301
      10A     -0.699720    11A     -0.664404    12A     -0.605408
      13A     -0.553566    14A     -0.552342    15A     -0.521237
      16A     -0.438892

  @DF-RHF Final Energy:  -227.87795445690386

   => Energetics <=

    Nuclear Repulsion Energy =            121.4884272617790089
    One-Electron Energy =                -552.1694490075058184
    Two-Electron Energy =                 202.8030672888229446
    Total Energy =                       -227.8779544569038649
  Basis Set: (AUG-CC-PVTZ AUX)
    Blend: AUG-CC-PVTZ-RI
    Molecular point group: c1

    Geometry (in Angstrom), charge = 0, multiplicity = 1:

       Center              X                  Y                   Z               Mass
    ------------   -----------------  -----------------  -----------------  -----------------
         C            0.133544915836     0.155199675510    -0.000378509430    12.000000000000
         O            0.573412215836     1.169020275510     0.000135690570    15.994914619570
         O            0.680503215836    -1.092987724490    -0.000050309430    15.994914619570
         H            1.629690215836    -0.851655724490     0.001328690570     1.007825032230
         C           -1.478558784164    -0.134782724490    -0.000072309430    12.000000000000
         H           -1.988096784164     0.827105275510    -0.014869309430     1.007825032230
         H           -1.762619784164    -0.726486724490    -0.873163309430     1.007825032230
         H           -1.764671784164    -0.698755724490     0.890716690570     1.007825032230

  Basis Set: AUG-CC-PVTZ
    Blend: AUG-CC-PVTZ
  Basis Set: (AUG-CC-PVTZ AUX)
    Blend: AUG-CC-PVTZ-JKFIT
	 Reference Energy          =    -227.8779544569038649 [Eh]
	 Singles Energy            =      -0.0000000000000000 [Eh]
	 Same-Spin Energy          =      -0.2133108622663232 [Eh]
	 Opposite-Spin Energy      =      -0.6667936373428598 [Eh]
	 Correlation Energy        =      -0.8801044996091829 [Eh]
	 Total Energy              =    -228.7580589565130538 [Eh]

	 ================> DF-SCS-MP2 Energies <==================
	-----------------------------------------------------------
	 SCS Same-Spin Scale       =       0.3333333333333333 [-]
	 SCS Opposite-Spin Scale   =       1.2000000000000000 [-]
	 SCS Same-Spin Energy      =      -0.0711036207554410 [Eh]
	 SCS Opposite-Spin Energy  =      -0.8001523648114317 [Eh]
	 SCS Correlation Energy    =      -0.8712559855668728 [Eh]
	 SCS Total Energy          =    -228.7492104424707406 [Eh]
	-----------------------------------------------------------

  Dipole Moment: [D]
     X:     0.0100      Y:    -0.9267      Z:     0.0027     Total:     0.9267

*** Psi4 exiting successfully. Buy a developer a beer!
