                               Psi4 1.3.2 release

  ==> Input File <==

--------------------------------------------------------------------------
#psi4
#
memory 32 gb

molecule  {
0 1
  C        0.0901110     0.1256610    -0.0006000
  O        0.7506103     1.3804714     0.0002266
  O        0.7645440    -1.0585160    -0.0000760
  H        1.7137310    -0.8171840     0.0013030
  C       -1.3945180    -0.1003110    -0.0000980
  H       -1.9040560     0.8615770    -0.0148950
  H       -1.6785790    -0.6920150    -0.8731890
  H       -1.6806310    -0.6642840     0.8906910
units angstrom
no_reorient  #important for SAPT in psi4, default
symmetry c1  #important for SAPT in psi4, default
}

set PROPERTIES_ORIGIN ["COM"]
properties('MP2/aug-cc-pvtz', properties = ['dipole'])
--------------------------------------------------------------------------

    Molecular point group: c1
  Charge       = 0
  Multiplicity = 1
  Basis Set: AUG-CC-PVTZ
    Blend: AUG-CC-PVTZ
  Basis Set: (AUG-CC-PVTZ AUX)
    Blend: AUG-CC-PVTZ-JKFIT

    Orbital Energies [Eh]
    ---------------------

    Doubly Occupied:

       1A    -20.647184     2A    -20.551438     3A    -11.432202
       4A    -11.264831     5A     -1.459544     6A     -1.267327
       7A     -1.045612     8A     -0.840118     9A     -0.710028
      10A     -0.666585    11A     -0.648243    12A     -0.587030
      13A     -0.574974    14A     -0.547609    15A     -0.447802
      16A     -0.441166

  @DF-RHF Final Energy:  -227.84147899512615

   => Energetics <=

    Nuclear Repulsion Energy =            115.5571124190579297
    One-Electron Energy =                -540.5337937193171456
    Two-Electron Energy =                 197.1352023051330491
    Total Energy =                       -227.8414789951261525
  Basis Set: (AUG-CC-PVTZ AUX)
    Blend: AUG-CC-PVTZ-RI
    Molecular point group: c1

    Geometry (in Angstrom), charge = 0, multiplicity = 1:

       Center              X                  Y                   Z               Mass
    ------------   -----------------  -----------------  -----------------  -----------------
         C            0.006730872187     0.056823950929    -0.000566235724    12.000000000000
         O            0.667230172187     1.311634350929     0.000260364276    15.994914619570
         O            0.681163872187    -1.127353049071    -0.000042235724    15.994914619570
         H            1.630350872187    -0.886021049071     0.001336764276     1.007825032230
         C           -1.477898127813    -0.169148049071    -0.000064235724    12.000000000000
         H           -1.987436127813     0.792739950929    -0.014861235724     1.007825032230
         H           -1.761959127813    -0.760852049071    -0.873155235724     1.007825032230
         H           -1.764011127813    -0.733121049071     0.890724764276     1.007825032230

  Basis Set: AUG-CC-PVTZ
    Blend: AUG-CC-PVTZ
  Basis Set: (AUG-CC-PVTZ AUX)
    Blend: AUG-CC-PVTZ-JKFIT
	 Reference Energy          =    -227.8414789951261525 [Eh]
	 Singles Energy            =      -0.0000000000000000 [Eh]
	 Same-Spin Energy          =      -0.2201207168338958 [Eh]
	 Opposite-Spin Energy      =      -0.6825056639991687 [Eh]
	 Correlation Energy        =      -0.9026263808330646 [Eh]
	 Total Energy              =    -228.7441053759592080 [Eh]

	 ================> DF-SCS-MP2 Energies <==================
	-----------------------------------------------------------
	 SCS Same-Spin Scale       =       0.3333333333333333 [-]
	 SCS Opposite-Spin Scale   =       1.2000000000000000 [-]
	 SCS Same-Spin Energy      =      -0.0733735722779653 [Eh]
	 SCS Opposite-Spin Energy  =      -0.8190067967990023 [Eh]
	 SCS Correlation Energy    =      -0.8923803690769676 [Eh]
	 SCS Total Energy          =    -228.7338593642031128 [Eh]
	-----------------------------------------------------------

  Dipole Moment: [D]
     X:    -1.0985      Y:    -2.3390      Z:     0.0031     Total:     2.5841

*** Psi4 exiting successfully. Buy a developer a beer!
