                               Psi4 1.3.2 release

  ==> Input File <==

--------------------------------------------------------------------------
#psi4
#
memory 32 gb

molecule  {
0 1
  C        0.0901110     0.1256610    -0.0006000
  O        0.6385558     1.2132293     0.0001279
  O        0.7645440    -1.0585160    -0.0000760
  H        1.7137310    -0.8171840     0.0013030
  C       -1.3945180    -0.1003110    -0.0000980
  H       -1.9040560     0.8615770    -0.0148950
  H       -1.6785790    -0.6920150    -0.8731890
  H       -1.6806310    -0.6642840     0.8906910
units angstrom
no_reorient  #important for SAPT in psi4, default
symmetry c1  #important for SAPT in psi4, default
}

set PROPERTIES_ORIGIN ["COM"]
properties('MP2/aug-cc-pvtz', properties = ['dipole'])
--------------------------------------------------------------------------

    Molecular point group: c1
  Charge       = 0
  Multiplicity = 1
  Basis Set: AUG-CC-PVTZ
    Blend: AUG-CC-PVTZ
  Basis Set: (AUG-CC-PVTZ AUX)
    Blend: AUG-CC-PVTZ-JKFIT

    Orbital Energies [Eh]
    ---------------------

    Doubly Occupied:

       1A    -20.619179     2A    -20.554608     3A    -11.394582
       4A    -11.248342     5A     -1.461414     6A     -1.360118
       7A     -1.028612     8A     -0.820925     9A     -0.707338
      10A     -0.679785    11A     -0.650141    12A     -0.585802
      13A     -0.573945    14A     -0.562647    15A     -0.484882
      16A     -0.457408

  @DF-RHF Final Energy:  -227.90286598673174

   => Energetics <=

    Nuclear Repulsion Energy =            120.5621094001890583
    One-Electron Energy =                -550.5504978605564474
    Two-Electron Energy =                 202.0855224736356490
    Total Energy =                       -227.9028659867317401
  Basis Set: (AUG-CC-PVTZ AUX)
    Blend: AUG-CC-PVTZ-RI
    Molecular point group: c1

    Geometry (in Angstrom), charge = 0, multiplicity = 1:

       Center              X                  Y                   Z               Mass
    ------------   -----------------  -----------------  -----------------  -----------------
         C            0.036592059057     0.101391974532    -0.000539933352    12.000000000000
         O            0.585036859057     1.188960274532     0.000187966648    15.994914619570
         O            0.711025059057    -1.082785025468    -0.000015933352    15.994914619570
         H            1.660212059057    -0.841453025468     0.001363066648     1.007825032230
         C           -1.448036940943    -0.124580025468    -0.000037933352    12.000000000000
         H           -1.957574940943     0.837307974532    -0.014834933352     1.007825032230
         H           -1.732097940943    -0.716284025468    -0.873128933352     1.007825032230
         H           -1.734149940943    -0.688553025468     0.890751066648     1.007825032230

  Basis Set: AUG-CC-PVTZ
    Blend: AUG-CC-PVTZ
  Basis Set: (AUG-CC-PVTZ AUX)
    Blend: AUG-CC-PVTZ-JKFIT
	 Reference Energy          =    -227.9028659867317401 [Eh]
	 Singles Energy            =      -0.0000000000000000 [Eh]
	 Same-Spin Energy          =      -0.2153417826515896 [Eh]
	 Opposite-Spin Energy      =      -0.6705352209679820 [Eh]
	 Correlation Energy        =      -0.8858770036195716 [Eh]
	 Total Energy              =    -228.7887429903513237 [Eh]

	 ================> DF-SCS-MP2 Energies <==================
	-----------------------------------------------------------
	 SCS Same-Spin Scale       =       0.3333333333333333 [-]
	 SCS Opposite-Spin Scale   =       1.2000000000000000 [-]
	 SCS Same-Spin Energy      =      -0.0717805942171965 [Eh]
	 SCS Opposite-Spin Energy  =      -0.8046422651615784 [Eh]
	 SCS Correlation Energy    =      -0.8764228593787750 [Eh]
	 SCS Total Energy          =    -228.7792888461105179 [Eh]
	-----------------------------------------------------------

  Dipole Moment: [D]
     X:    -0.7429      Y:    -1.4907      Z:     0.0030     Total:     1.6655

*** Psi4 exiting successfully. Buy a developer a beer!
