                               Psi4 1.3.2 release

  ==> Input File <==

--------------------------------------------------------------------------
#psi4
#
memory 32 gb

molecule  {
0 1
  C        0.0901110     0.1256610    -0.0006000
  O        0.6574530     1.2034920     0.0001100
  O        0.7645440    -1.0585160    -0.0000760
  H        1.6168146    -0.8418251     0.0011622
  C       -1.3945180    -0.1003110    -0.0000980
  H       -1.9040560     0.8615770    -0.0148950
  H       -1.6785790    -0.6920150    -0.8731890
  H       -1.6806310    -0.6642840     0.8906910
units angstrom
no_reorient  #important for SAPT in psi4, default
symmetry c1  #important for SAPT in psi4, default
}

set PROPERTIES_ORIGIN ["COM"]
properties('MP2/aug-cc-pvtz', properties = ['dipole'])
--------------------------------------------------------------------------

    Molecular point group: c1
  Charge       = 0
  Multiplicity = 1
  Basis Set: AUG-CC-PVTZ
    Blend: AUG-CC-PVTZ
  Basis Set: (AUG-CC-PVTZ AUX)
    Blend: AUG-CC-PVTZ-JKFIT

    Orbital Energies [Eh]
    ---------------------

    Doubly Occupied:

       1A    -20.610109     2A    -20.556412     3A    -11.396541
       4A    -11.250144     5A     -1.479506     6A     -1.368763
       7A     -1.034377     8A     -0.841810     9A     -0.715821
      10A     -0.682285    11A     -0.652839    12A     -0.591665
      13A     -0.577799    14A     -0.565419    15A     -0.487040
      16A     -0.459637

  @DF-RHF Final Energy:  -227.89841169297614

   => Energetics <=

    Nuclear Repulsion Energy =            121.1957859634284631
    One-Electron Energy =                -551.6480573157559775
    Two-Electron Energy =                 202.5538596593513603
    Total Energy =                       -227.8984116929761399
  Basis Set: (AUG-CC-PVTZ AUX)
    Blend: AUG-CC-PVTZ-RI
    Molecular point group: c1

    Geometry (in Angstrom), charge = 0, multiplicity = 1:

       Center              X                  Y                   Z               Mass
    ------------   -----------------  -----------------  -----------------  -----------------
         C            0.033183520619     0.104400601684    -0.000532799019    12.000000000000
         O            0.600525520619     1.182231601684     0.000177200981    15.994914619570
         O            0.707616520619    -1.079776398316    -0.000008799019    15.994914619570
         H            1.559887120619    -0.863085498316     0.001229400981     1.007825032230
         C           -1.451445479381    -0.121571398316    -0.000030799019    12.000000000000
         H           -1.960983479381     0.840316601684    -0.014827799019     1.007825032230
         H           -1.735506479381    -0.713275398316    -0.873121799019     1.007825032230
         H           -1.737558479381    -0.685544398316     0.890758200981     1.007825032230

  Basis Set: AUG-CC-PVTZ
    Blend: AUG-CC-PVTZ
  Basis Set: (AUG-CC-PVTZ AUX)
    Blend: AUG-CC-PVTZ-JKFIT
	 Reference Energy          =    -227.8984116929761399 [Eh]
	 Singles Energy            =      -0.0000000000000000 [Eh]
	 Same-Spin Energy          =      -0.2140722495753553 [Eh]
	 Opposite-Spin Energy      =      -0.6676695190555986 [Eh]
	 Correlation Energy        =      -0.8817417686309539 [Eh]
	 Total Energy              =    -228.7801534616070853 [Eh]

	 ================> DF-SCS-MP2 Energies <==================
	-----------------------------------------------------------
	 SCS Same-Spin Scale       =       0.3333333333333333 [-]
	 SCS Opposite-Spin Scale   =       1.2000000000000000 [-]
	 SCS Same-Spin Energy      =      -0.0713574165251184 [Eh]
	 SCS Opposite-Spin Energy  =      -0.8012034228667183 [Eh]
	 SCS Correlation Energy    =      -0.8725608393918367 [Eh]
	 SCS Total Energy          =    -228.7709725323679777 [Eh]
	-----------------------------------------------------------

  Dipole Moment: [D]
     X:    -0.9246      Y:    -1.4625      Z:     0.0028     Total:     1.7302

*** Psi4 exiting successfully. Buy a developer a beer!
