                               Psi4 1.3.2 release

  ==> Input File <==

--------------------------------------------------------------------------
#psi4
#
memory 32 gb

molecule  {
0 1
  C        0.0901110     0.1256610    -0.0006000
  O        0.6574530     1.2034920     0.0001100
  O        0.7645440    -1.0585160    -0.0000760
  H        1.5198981    -0.8664663     0.0010214
  C       -1.3945180    -0.1003110    -0.0000980
  H       -1.9040560     0.8615770    -0.0148950
  H       -1.6785790    -0.6920150    -0.8731890
  H       -1.6806310    -0.6642840     0.8906910
units angstrom
no_reorient  #important for SAPT in psi4, default
symmetry c1  #important for SAPT in psi4, default
}

set PROPERTIES_ORIGIN ["COM"]
properties('MP2/aug-cc-pvtz', properties = ['dipole'])
--------------------------------------------------------------------------

    Molecular point group: c1
  Charge       = 0
  Multiplicity = 1
  Basis Set: AUG-CC-PVTZ
    Blend: AUG-CC-PVTZ
  Basis Set: (AUG-CC-PVTZ AUX)
    Blend: AUG-CC-PVTZ-JKFIT

    Orbital Energies [Eh]
    ---------------------

    Doubly Occupied:

       1A    -20.600518     2A    -20.558636     3A    -11.398642
       4A    -11.250852     5A     -1.506877     6A     -1.378802
       7A     -1.040508     8A     -0.865747     9A     -0.723326
      10A     -0.684901    11A     -0.655980    12A     -0.597592
      13A     -0.579741    14A     -0.568097    15A     -0.490052
      16A     -0.461629

  @DF-RHF Final Energy:  -227.85894687725721

   => Energetics <=

    Nuclear Repulsion Energy =            121.9363055875622166
    One-Electron Energy =                -552.8667076808931142
    Two-Electron Energy =                 203.0714552160736730
    Total Energy =                       -227.8589468772572104
  Basis Set: (AUG-CC-PVTZ AUX)
    Blend: AUG-CC-PVTZ-RI
    Molecular point group: c1

    Geometry (in Angstrom), charge = 0, multiplicity = 1:

       Center              X                  Y                   Z               Mass
    ------------   -----------------  -----------------  -----------------  -----------------
         C            0.034810862119     0.104814356281    -0.000530434822    12.000000000000
         O            0.602152862119     1.182645356281     0.000179565178    15.994914619570
         O            0.709243862119    -1.079362643719    -0.000006434822    15.994914619570
         H            1.464597962119    -0.887312943719     0.001090965178     1.007825032230
         C           -1.449818137881    -0.121157643719    -0.000028434822    12.000000000000
         H           -1.959356137881     0.840730356281    -0.014825434822     1.007825032230
         H           -1.733879137881    -0.712861643719    -0.873119434822     1.007825032230
         H           -1.735931137881    -0.685130643719     0.890760565178     1.007825032230

  Basis Set: AUG-CC-PVTZ
    Blend: AUG-CC-PVTZ
  Basis Set: (AUG-CC-PVTZ AUX)
    Blend: AUG-CC-PVTZ-JKFIT
	 Reference Energy          =    -227.8589468772572104 [Eh]
	 Singles Energy            =      -0.0000000000000000 [Eh]
	 Same-Spin Energy          =      -0.2129217194719384 [Eh]
	 Opposite-Spin Energy      =      -0.6652625248977007 [Eh]
	 Correlation Energy        =      -0.8781842443696390 [Eh]
	 Total Energy              =    -228.7371311216268452 [Eh]

	 ================> DF-SCS-MP2 Energies <==================
	-----------------------------------------------------------
	 SCS Same-Spin Scale       =       0.3333333333333333 [-]
	 SCS Opposite-Spin Scale   =       1.2000000000000000 [-]
	 SCS Same-Spin Energy      =      -0.0709739064906461 [Eh]
	 SCS Opposite-Spin Energy  =      -0.7983150298772408 [Eh]
	 SCS Correlation Energy    =      -0.8692889363678870 [Eh]
	 SCS Total Energy          =    -228.7282358136251048 [Eh]
	-----------------------------------------------------------

  Dipole Moment: [D]
     X:    -1.0471      Y:    -1.4441      Z:     0.0027     Total:     1.7837

*** Psi4 exiting successfully. Buy a developer a beer!
