                               Psi4 1.4a3.dev225

  ==> Input File <==

--------------------------------------------------------------------------
#psi4
#
memory 32 gb

molecule  {
1 1
  O       -1.7781010     0.0481890    -0.8899830
  N        0.7082630     0.0057180    -0.1922720
  C       -0.2685380    -0.7093740     0.7027740
  C        0.9987279     1.3829222     0.3171578
  C        1.9887930    -0.7552220    -0.3346960
  C       -1.6515690    -0.1051770     0.5221950
  H        0.2279220     0.0414410    -1.1066860
  H       -0.2728820    -1.7522560     0.3793240
  H        0.0946000    -0.6468560     1.7315660
  H        1.3625390     1.4139280     1.2413360
  H        1.6670510     1.8686130    -0.4607680
  H        0.0151050     1.9693480     0.1947690
  H        2.4631220    -0.8193040     0.6447500
  H        1.7659200    -1.7521810    -0.7136960
  H        2.6362400    -0.2249370    -1.0326780
  H       -2.3916570    -0.7986900     0.9363150
  H       -1.7508380     0.8532310     1.0447820
  H       -2.6851960     0.3180950    -1.1185210
units angstrom
no_reorient  #important for SAPT in psi4, default
symmetry c1  #important for SAPT in psi4, default
}

set PROPERTIES_ORIGIN ["COM"]
properties('MP2/aug-cc-pvtz', properties = ['dipole'])
--------------------------------------------------------------------------

    Molecular point group: c1
  Charge       = 1
  Multiplicity = 1
  Basis Set: AUG-CC-PVTZ
    Blend: AUG-CC-PVTZ
  Basis Set: (AUG-CC-PVTZ AUX)
    Blend: AUG-CC-PVTZ-JKFIT

    Orbital Energies [Eh]
    ---------------------

    Doubly Occupied:

       1A    -20.733090     2A    -15.857387     3A    -11.456708
       4A    -11.453722     5A    -11.450559     6A    -11.448939
       7A     -1.539542     8A     -1.487968     9A     -1.206566
      10A     -1.164928    11A     -1.096429    12A     -1.027450
      13A     -0.917315    14A     -0.875943    15A     -0.853182
      16A     -0.842472    17A     -0.791214    18A     -0.778020
      19A     -0.746128    20A     -0.738972    21A     -0.721204
      22A     -0.708136    23A     -0.701144    24A     -0.673077
      25A     -0.623785

  @DF-RHF Final Energy:  -287.64490062633422

   => Energetics <=

    Nuclear Repulsion Energy =            278.5553937169328265
    One-Electron Energy =                -932.6128282018797790
    Two-Electron Energy =                 366.4125338586127327
    Total Energy =                       -287.6449006263342199
  Basis Set: (AUG-CC-PVTZ AUX)
    Blend: AUG-CC-PVTZ-RI
    Molecular point group: c1

    Geometry (in Angstrom), charge = 1, multiplicity = 1:

       Center              X                  Y                   Z               Mass
    ------------   -----------------  -----------------  -----------------  -----------------
         O           -1.749715378580     0.058370248798    -0.882387209341    15.994914619570
         N            0.736648621420     0.015899248798    -0.184676209341    14.003074004430
         C           -0.240152378580    -0.699192751202     0.710369790659    12.000000000000
         C            1.027113521420     1.393103448798     0.324753590659    12.000000000000
         C            2.017178621420    -0.745040751202    -0.327100209341    12.000000000000
         C           -1.623183378580    -0.094995751202     0.529790790659    12.000000000000
         H            0.256307621420     0.051622248798    -1.099090209341     1.007825032230
         H           -0.244496378580    -1.742074751202     0.386919790659     1.007825032230
         H            0.122985621420    -0.636674751202     1.739161790659     1.007825032230
         H            1.390924621420     1.424109248798     1.248931790659     1.007825032230
         H            1.695436621420     1.878794248798    -0.453172209341     1.007825032230
         H            0.043490621420     1.979529248798     0.202364790659     1.007825032230
         H            2.491507621420    -0.809122751202     0.652345790659     1.007825032230
         H            1.794305621420    -1.741999751202    -0.706100209341     1.007825032230
         H            2.664625621420    -0.214755751202    -1.025082209341     1.007825032230
         H           -2.363271378580    -0.788508751202     0.943910790659     1.007825032230
         H           -1.722452378580     0.863412248798     1.052377790659     1.007825032230
         H           -2.656810378580     0.328276248798    -1.110925209341     1.007825032230

  Basis Set: AUG-CC-PVTZ
    Blend: AUG-CC-PVTZ
  Basis Set: (AUG-CC-PVTZ AUX)
    Blend: AUG-CC-PVTZ-JKFIT
	 Reference Energy          =    -287.6449006263342199 [Eh]
	 Singles Energy            =      -0.0000000000000000 [Eh]
	 Same-Spin Energy          =      -0.2853154794798008 [Eh]
	 Opposite-Spin Energy      =      -1.0002471930467092 [Eh]
	 Correlation Energy        =      -1.2855626725265101 [Eh]
	 Total Energy              =    -288.9304632988607295 [Eh]

	 ================> DF-SCS-MP2 Energies <==================
	-----------------------------------------------------------
	 SCS Same-Spin Scale       =       0.3333333333333333 [-]
	 SCS Opposite-Spin Scale   =       1.2000000000000000 [-]
	 SCS Same-Spin Energy      =      -0.0951051598266003 [Eh]
	 SCS Opposite-Spin Energy  =      -1.2002966316560510 [Eh]
	 SCS Correlation Energy    =      -1.2954017914826512 [Eh]
	 SCS Total Energy          =    -288.9403024178168948 [Eh]
	-----------------------------------------------------------

  Dipole Moment: [D]
     X:     1.3581      Y:     0.3247      Z:     0.6487     Total:     1.5397

*** Psi4 exiting successfully. Buy a developer a beer!
