                               Psi4 1.4a3.dev225

  ==> Input File <==

--------------------------------------------------------------------------
#psi4
#
memory 32 gb

molecule  {
1 1
  O       -1.7781010     0.0481890    -0.8899830
  N        0.8100604    -0.0125290    -0.1774325
  C       -0.2685380    -0.7093740     0.7027740
  C        0.9538210     1.4204460     0.2306060
  C        1.9887930    -0.7552220    -0.3346960
  C       -1.6515690    -0.1051770     0.5221950
  H        0.2279220     0.0414410    -1.1066860
  H       -0.2728820    -1.7522560     0.3793240
  H        0.0946000    -0.6468560     1.7315660
  H        1.3625390     1.4139280     1.2413360
  H        1.6670510     1.8686130    -0.4607680
  H        0.0151050     1.9693480     0.1947690
  H        2.4631220    -0.8193040     0.6447500
  H        1.7659200    -1.7521810    -0.7136960
  H        2.6362400    -0.2249370    -1.0326780
  H       -2.3916570    -0.7986900     0.9363150
  H       -1.7508380     0.8532310     1.0447820
  H       -2.6851960     0.3180950    -1.1185210
units angstrom
no_reorient  #important for SAPT in psi4, default
symmetry c1  #important for SAPT in psi4, default
}

set PROPERTIES_ORIGIN ["COM"]
properties('MP2/aug-cc-pvtz', properties = ['dipole'])
--------------------------------------------------------------------------

    Molecular point group: c1
  Charge       = 1
  Multiplicity = 1
  Basis Set: AUG-CC-PVTZ
    Blend: AUG-CC-PVTZ
  Basis Set: (AUG-CC-PVTZ AUX)
    Blend: AUG-CC-PVTZ-JKFIT

    Orbital Energies [Eh]
    ---------------------

    Doubly Occupied:

       1A    -20.736115     2A    -15.858188     3A    -11.462157
       4A    -11.458617     5A    -11.449697     6A    -11.440605
       7A     -1.540431     8A     -1.492976     9A     -1.210049
      10A     -1.175610    11A     -1.083290    12A     -1.018339
      13A     -0.921788    14A     -0.874788    15A     -0.859706
      16A     -0.844055    17A     -0.799797    18A     -0.757983
      19A     -0.745409    20A     -0.737440    21A     -0.730224
      22A     -0.705912    23A     -0.702928    24A     -0.673720
      25A     -0.626745

  @DF-RHF Final Energy:  -287.64445336057213

   => Energetics <=

    Nuclear Repulsion Energy =            278.1388166727940074
    One-Electron Energy =                -931.7534015370516727
    Two-Electron Energy =                 365.9701315036855931
    Total Energy =                       -287.6444533605721290
  Basis Set: (AUG-CC-PVTZ AUX)
    Blend: AUG-CC-PVTZ-RI
    Molecular point group: c1

    Geometry (in Angstrom), charge = 1, multiplicity = 1:

       Center              X                  Y                   Z               Mass
    ------------   -----------------  -----------------  -----------------  -----------------
         O           -1.759556372430     0.056208328221    -0.873165258370    15.994914619570
         N            0.828605027570    -0.004509671779    -0.160614758370    14.003074004430
         C           -0.249993372430    -0.701354671779     0.719591741630    12.000000000000
         C            0.972365627570     1.428465328221     0.247423741630    12.000000000000
         C            2.007337627570    -0.747202671779    -0.317878258370    12.000000000000
         C           -1.633024372430    -0.097157671779     0.539012741630    12.000000000000
         H            0.246466627570     0.049460328221    -1.089868258370     1.007825032230
         H           -0.254337372430    -1.744236671779     0.396141741630     1.007825032230
         H            0.113144627570    -0.638836671779     1.748383741630     1.007825032230
         H            1.381083627570     1.421947328221     1.258153741630     1.007825032230
         H            1.685595627570     1.876632328221    -0.443950258370     1.007825032230
         H            0.033649627570     1.977367328221     0.211586741630     1.007825032230
         H            2.481666627570    -0.811284671779     0.661567741630     1.007825032230
         H            1.784464627570    -1.744161671779    -0.696878258370     1.007825032230
         H            2.654784627570    -0.216917671779    -1.015860258370     1.007825032230
         H           -2.373112372430    -0.790670671779     0.953132741630     1.007825032230
         H           -1.732293372430     0.861250328221     1.061599741630     1.007825032230
         H           -2.666651372430     0.326114328221    -1.101703258370     1.007825032230

  Basis Set: AUG-CC-PVTZ
    Blend: AUG-CC-PVTZ
  Basis Set: (AUG-CC-PVTZ AUX)
    Blend: AUG-CC-PVTZ-JKFIT
	 Reference Energy          =    -287.6444533605721290 [Eh]
	 Singles Energy            =      -0.0000000000000000 [Eh]
	 Same-Spin Energy          =      -0.2861752146795543 [Eh]
	 Opposite-Spin Energy      =      -1.0011775349714385 [Eh]
	 Correlation Energy        =      -1.2873527496509927 [Eh]
	 Total Energy              =    -288.9318061102231354 [Eh]

	 ================> DF-SCS-MP2 Energies <==================
	-----------------------------------------------------------
	 SCS Same-Spin Scale       =       0.3333333333333333 [-]
	 SCS Opposite-Spin Scale   =       1.2000000000000000 [-]
	 SCS Same-Spin Energy      =      -0.0953917382265181 [Eh]
	 SCS Opposite-Spin Energy  =      -1.2014130419657261 [Eh]
	 SCS Correlation Energy    =      -1.2968047801922442 [Eh]
	 SCS Total Energy          =    -288.9412581407643756 [Eh]
	-----------------------------------------------------------

  Dipole Moment: [D]
     X:     1.0792      Y:     0.3507      Z:     0.6439     Total:     1.3047

*** Psi4 exiting successfully. Buy a developer a beer!
