                               Psi4 1.4a3.dev225

  ==> Input File <==

--------------------------------------------------------------------------
#psi4
#
memory 32 gb

molecule  {
1 1
  O       -1.7781010     0.0481890    -0.8899830
  N        0.7082630     0.0057180    -0.1922720
  C       -0.2685380    -0.7093740     0.7027740
  C        0.9538210     1.4204460     0.2306060
  C        1.9887930    -0.7552220    -0.3346960
  C       -1.6515690    -0.1051770     0.5221950
  H        0.2279220     0.0414410    -1.1066860
  H       -0.2732798    -1.8477669     0.3497013
  H        0.0946000    -0.6468560     1.7315660
  H        1.3625390     1.4139280     1.2413360
  H        1.6670510     1.8686130    -0.4607680
  H        0.0151050     1.9693480     0.1947690
  H        2.4631220    -0.8193040     0.6447500
  H        1.7659200    -1.7521810    -0.7136960
  H        2.6362400    -0.2249370    -1.0326780
  H       -2.3916570    -0.7986900     0.9363150
  H       -1.7508380     0.8532310     1.0447820
  H       -2.6851960     0.3180950    -1.1185210
units angstrom
no_reorient  #important for SAPT in psi4, default
symmetry c1  #important for SAPT in psi4, default
}

set PROPERTIES_ORIGIN ["COM"]
properties('MP2/aug-cc-pvtz', properties = ['dipole'])
--------------------------------------------------------------------------

    Molecular point group: c1
  Charge       = 1
  Multiplicity = 1
  Basis Set: AUG-CC-PVTZ
    Blend: AUG-CC-PVTZ
  Basis Set: (AUG-CC-PVTZ AUX)
    Blend: AUG-CC-PVTZ-JKFIT

    Orbital Energies [Eh]
    ---------------------

    Doubly Occupied:

       1A    -20.733092     2A    -15.856868     3A    -11.467124
       4A    -11.454783     5A    -11.449557     6A    -11.449252
       7A     -1.539500     8A     -1.487047     9A     -1.202414
      10A     -1.165673    11A     -1.093143    12A     -1.021116
      13A     -0.916430    14A     -0.873294    15A     -0.851500
      16A     -0.837271    17A     -0.792153    18A     -0.756374
      19A     -0.746041    20A     -0.738161    21A     -0.723887
      22A     -0.716743    23A     -0.701342    24A     -0.673088
      25A     -0.623478

  @DF-RHF Final Energy:  -287.65241192065520

   => Energetics <=

    Nuclear Repulsion Energy =            278.0500716945470003
    One-Electron Energy =                -931.6663052819145605
    Two-Electron Energy =                 365.9638216667123629
    Total Energy =                       -287.6524119206551973
  Basis Set: (AUG-CC-PVTZ AUX)
    Blend: AUG-CC-PVTZ-RI
    Molecular point group: c1

    Geometry (in Angstrom), charge = 1, multiplicity = 1:

       Center              X                  Y                   Z               Mass
    ------------   -----------------  -----------------  -----------------  -----------------
         O           -1.743729448895     0.054440623967    -0.870527361464    15.994914619570
         N            0.742634551105     0.011969623967    -0.172816361464    14.003074004430
         C           -0.234166448895    -0.703122376033     0.722229638536    12.000000000000
         C            0.988192551105     1.426697623967     0.250061638536    12.000000000000
         C            2.023164551105    -0.748970376033    -0.315240361464    12.000000000000
         C           -1.617197448895    -0.098925376033     0.541650638536    12.000000000000
         H            0.262293551105     0.047692623967    -1.087230361464     1.007825032230
         H           -0.238908248895    -1.841515276033     0.369156938536     1.007825032230
         H            0.128971551105    -0.640604376033     1.751021638536     1.007825032230
         H            1.396910551105     1.420179623967     1.260791638536     1.007825032230
         H            1.701422551105     1.874864623967    -0.441312361464     1.007825032230
         H            0.049476551105     1.975599623967     0.214224638536     1.007825032230
         H            2.497493551105    -0.813052376033     0.664205638536     1.007825032230
         H            1.800291551105    -1.745929376033    -0.694240361464     1.007825032230
         H            2.670611551105    -0.218685376033    -1.013222361464     1.007825032230
         H           -2.357285448895    -0.792438376033     0.955770638536     1.007825032230
         H           -1.716466448895     0.859482623967     1.064237638536     1.007825032230
         H           -2.650824448895     0.324346623967    -1.099065361464     1.007825032230

  Basis Set: AUG-CC-PVTZ
    Blend: AUG-CC-PVTZ
  Basis Set: (AUG-CC-PVTZ AUX)
    Blend: AUG-CC-PVTZ-JKFIT
	 Reference Energy          =    -287.6524119206551973 [Eh]
	 Singles Energy            =      -0.0000000000000000 [Eh]
	 Same-Spin Energy          =      -0.2852294148881185 [Eh]
	 Opposite-Spin Energy      =      -1.0003398786370004 [Eh]
	 Correlation Energy        =      -1.2855692935251188 [Eh]
	 Total Energy              =    -288.9379812141802972 [Eh]

	 ================> DF-SCS-MP2 Energies <==================
	-----------------------------------------------------------
	 SCS Same-Spin Scale       =       0.3333333333333333 [-]
	 SCS Opposite-Spin Scale   =       1.2000000000000000 [-]
	 SCS Same-Spin Energy      =      -0.0950764716293728 [Eh]
	 SCS Opposite-Spin Energy  =      -1.2004078543644003 [Eh]
	 SCS Correlation Energy    =      -1.2954843259937732 [Eh]
	 SCS Total Energy          =    -288.9478962466489520 [Eh]
	-----------------------------------------------------------

  Dipole Moment: [D]
     X:     1.3598      Y:     0.3190      Z:     0.6626     Total:     1.5459

*** Psi4 exiting successfully. Buy a developer a beer!
