                               Psi4 1.4a3.dev225

  ==> Input File <==

--------------------------------------------------------------------------
#psi4
#
memory 32 gb

molecule  {
1 1
  O       -1.7781010     0.0481890    -0.8899830
  N        0.7082630     0.0057180    -0.1922720
  C       -0.2685380    -0.7093740     0.7027740
  C        0.9538210     1.4204460     0.2306060
  C        1.9887930    -0.7552220    -0.3346960
  C       -1.6515690    -0.1051770     0.5221950
  H        0.2279220     0.0414410    -1.1066860
  H       -0.2728820    -1.7522560     0.3793240
  H        0.0946000    -0.6468560     1.7315660
  H        1.2651082     1.3642752     1.2739723
  H        1.6670510     1.8686130    -0.4607680
  H        0.0151050     1.9693480     0.1947690
  H        2.4631220    -0.8193040     0.6447500
  H        1.7659200    -1.7521810    -0.7136960
  H        2.6362400    -0.2249370    -1.0326780
  H       -2.3916570    -0.7986900     0.9363150
  H       -1.7508380     0.8532310     1.0447820
  H       -2.6851960     0.3180950    -1.1185210
units angstrom
no_reorient  #important for SAPT in psi4, default
symmetry c1  #important for SAPT in psi4, default
}

set PROPERTIES_ORIGIN ["COM"]
properties('MP2/aug-cc-pvtz', properties = ['dipole'])
--------------------------------------------------------------------------

    Molecular point group: c1
  Charge       = 1
  Multiplicity = 1
  Basis Set: AUG-CC-PVTZ
    Blend: AUG-CC-PVTZ
  Basis Set: (AUG-CC-PVTZ AUX)
    Blend: AUG-CC-PVTZ-JKFIT

    Orbital Energies [Eh]
    ---------------------

    Doubly Occupied:

       1A    -20.733124     2A    -15.855321     3A    -11.457304
       4A    -11.454374     5A    -11.449694     6A    -11.449316
       7A     -1.539623     8A     -1.487125     9A     -1.206652
      10A     -1.166667    11A     -1.092467    12A     -1.025365
      13A     -0.919106    14A     -0.877892    15A     -0.852830
      16A     -0.836596    17A     -0.791960    18A     -0.761331
      19A     -0.743999    20A     -0.738322    21A     -0.726808
      22A     -0.716344    23A     -0.711674    24A     -0.674300
      25A     -0.624443

  @DF-RHF Final Energy:  -287.65798456763821

   => Energetics <=

    Nuclear Repulsion Energy =            278.6479004111714630
    One-Electron Energy =                -932.8264920207159321
    Two-Electron Energy =                 366.5206070419062598
    Total Energy =                       -287.6579845676382092
  Basis Set: (AUG-CC-PVTZ AUX)
    Blend: AUG-CC-PVTZ-RI
    Molecular point group: c1

    Geometry (in Angstrom), charge = 1, multiplicity = 1:

       Center              X                  Y                   Z               Mass
    ------------   -----------------  -----------------  -----------------  -----------------
         O           -1.742643976191     0.053927626164    -0.871223830140    15.994914619570
         N            0.743720023809     0.011456626164    -0.173512830140    14.003074004430
         C           -0.233080976191    -0.703635373836     0.721533169860    12.000000000000
         C            0.989278023809     1.426184626164     0.249365169860    12.000000000000
         C            2.024250023809    -0.749483373836    -0.315936830140    12.000000000000
         C           -1.616111976191    -0.099438373836     0.540954169860    12.000000000000
         H            0.263379023809     0.047179626164    -1.087926830140     1.007825032230
         H           -0.237424976191    -1.746517373836     0.398083169860     1.007825032230
         H            0.130057023809    -0.641117373836     1.750325169860     1.007825032230
         H            1.300565223809     1.370013826164     1.292731469860     1.007825032230
         H            1.702508023809     1.874351626164    -0.442008830140     1.007825032230
         H            0.050562023809     1.975086626164     0.213528169860     1.007825032230
         H            2.498579023809    -0.813565373836     0.663509169860     1.007825032230
         H            1.801377023809    -1.746442373836    -0.694936830140     1.007825032230
         H            2.671697023809    -0.219198373836    -1.013918830140     1.007825032230
         H           -2.356199976191    -0.792951373836     0.955074169860     1.007825032230
         H           -1.715380976191     0.858969626164     1.063541169860     1.007825032230
         H           -2.649738976191     0.323833626164    -1.099761830140     1.007825032230

  Basis Set: AUG-CC-PVTZ
    Blend: AUG-CC-PVTZ
  Basis Set: (AUG-CC-PVTZ AUX)
    Blend: AUG-CC-PVTZ-JKFIT
	 Reference Energy          =    -287.6579845676382092 [Eh]
	 Singles Energy            =      -0.0000000000000000 [Eh]
	 Same-Spin Energy          =      -0.2851283757434805 [Eh]
	 Opposite-Spin Energy      =      -0.9996084361933368 [Eh]
	 Correlation Energy        =      -1.2847368119368174 [Eh]
	 Total Energy              =    -288.9427213795750049 [Eh]

	 ================> DF-SCS-MP2 Energies <==================
	-----------------------------------------------------------
	 SCS Same-Spin Scale       =       0.3333333333333333 [-]
	 SCS Opposite-Spin Scale   =       1.2000000000000000 [-]
	 SCS Same-Spin Energy      =      -0.0950427919144935 [Eh]
	 SCS Opposite-Spin Energy  =      -1.1995301234320042 [Eh]
	 SCS Correlation Energy    =      -1.2945729153464975 [Eh]
	 SCS Total Energy          =    -288.9525574829847301 [Eh]
	-----------------------------------------------------------

  Dipole Moment: [D]
     X:     1.3242      Y:     0.3029      Z:     0.6537     Total:     1.5075

*** Psi4 exiting successfully. Buy a developer a beer!
