                               Psi4 1.4a3.dev225

  ==> Input File <==

--------------------------------------------------------------------------
#psi4
#
memory 32 gb

molecule  {
1 1
  O       -1.7781010     0.0481890    -0.8899830
  N        0.6829813     0.0113609    -0.1956626
  C       -0.2685380    -0.7093740     0.7027740
  C        0.9538210     1.4204460     0.2306060
  C        1.9887930    -0.7552220    -0.3346960
  C       -1.6515690    -0.1051770     0.5221950
  H        0.2279220     0.0414410    -1.1066860
  H       -0.2728820    -1.7522560     0.3793240
  H        0.0946000    -0.6468560     1.7315660
  H        1.3625390     1.4139280     1.2413360
  H        1.6670510     1.8686130    -0.4607680
  H        0.0151050     1.9693480     0.1947690
  H        2.4631220    -0.8193040     0.6447500
  H        1.7659200    -1.7521810    -0.7136960
  H        2.6362400    -0.2249370    -1.0326780
  H       -2.3916570    -0.7986900     0.9363150
  H       -1.7508380     0.8532310     1.0447820
  H       -2.6851960     0.3180950    -1.1185210
units angstrom
no_reorient  #important for SAPT in psi4, default
symmetry c1  #important for SAPT in psi4, default
}

set PROPERTIES_ORIGIN ["COM"]
properties('MP2/aug-cc-pvtz', properties = ['dipole'])
--------------------------------------------------------------------------

    Molecular point group: c1
  Charge       = 1
  Multiplicity = 1
  Basis Set: AUG-CC-PVTZ
    Blend: AUG-CC-PVTZ
  Basis Set: (AUG-CC-PVTZ AUX)
    Blend: AUG-CC-PVTZ-JKFIT

    Orbital Energies [Eh]
    ---------------------

    Doubly Occupied:

       1A    -20.732408     2A    -15.855404     3A    -11.455909
       4A    -11.453076     5A    -11.451738     6A    -11.449067
       7A     -1.539605     8A     -1.486252     9A     -1.206219
      10A     -1.163654    11A     -1.095362    12A     -1.026509
      13A     -0.918466    14A     -0.878080    15A     -0.852011
      16A     -0.835768    17A     -0.790507    18A     -0.757904
      19A     -0.747884    20A     -0.741440    21A     -0.724976
      22A     -0.716941    23A     -0.711911    24A     -0.672601
      25A     -0.623716

  @DF-RHF Final Energy:  -287.65893356561588

   => Energetics <=

    Nuclear Repulsion Energy =            278.6192756458526105
    One-Electron Energy =                -932.7816072622186994
    Two-Electron Energy =                 366.5033980507502633
    Total Energy =                       -287.6589335656158823
  Basis Set: (AUG-CC-PVTZ AUX)
    Blend: AUG-CC-PVTZ-RI
    Molecular point group: c1

    Geometry (in Angstrom), charge = 1, multiplicity = 1:

       Center              X                  Y                   Z               Mass
    ------------   -----------------  -----------------  -----------------  -----------------
         O           -1.739804338576     0.052495096749    -0.870331735372    15.994914619570
         N            0.721277961424     0.015666996749    -0.176011335372    14.003074004430
         C           -0.230241338576    -0.705067903251     0.722425264628    12.000000000000
         C            0.992117661424     1.424752096749     0.250257264628    12.000000000000
         C            2.027089661424    -0.750915903251    -0.315044735372    12.000000000000
         C           -1.613272338576    -0.100870903251     0.541846264628    12.000000000000
         H            0.266218661424     0.045747096749    -1.087034735372     1.007825032230
         H           -0.234585338576    -1.747949903251     0.398975264628     1.007825032230
         H            0.132896661424    -0.642549903251     1.751217264628     1.007825032230
         H            1.400835661424     1.418234096749     1.260987264628     1.007825032230
         H            1.705347661424     1.872919096749    -0.441116735372     1.007825032230
         H            0.053401661424     1.973654096749     0.214420264628     1.007825032230
         H            2.501418661424    -0.814997903251     0.664401264628     1.007825032230
         H            1.804216661424    -1.747874903251    -0.694044735372     1.007825032230
         H            2.674536661424    -0.220630903251    -1.013026735372     1.007825032230
         H           -2.353360338576    -0.794383903251     0.955966264628     1.007825032230
         H           -1.712541338576     0.857537096749     1.064433264628     1.007825032230
         H           -2.646899338576     0.322401096749    -1.098869735372     1.007825032230

  Basis Set: AUG-CC-PVTZ
    Blend: AUG-CC-PVTZ
  Basis Set: (AUG-CC-PVTZ AUX)
    Blend: AUG-CC-PVTZ-JKFIT
	 Reference Energy          =    -287.6589335656158823 [Eh]
	 Singles Energy            =      -0.0000000000000000 [Eh]
	 Same-Spin Energy          =      -0.2848841368668199 [Eh]
	 Opposite-Spin Energy      =      -0.9992959675790984 [Eh]
	 Correlation Energy        =      -1.2841801044459182 [Eh]
	 Total Energy              =    -288.9431136700617913 [Eh]

	 ================> DF-SCS-MP2 Energies <==================
	-----------------------------------------------------------
	 SCS Same-Spin Scale       =       0.3333333333333333 [-]
	 SCS Opposite-Spin Scale   =       1.2000000000000000 [-]
	 SCS Same-Spin Energy      =      -0.0949613789556066 [Eh]
	 SCS Opposite-Spin Energy  =      -1.1991551610949180 [Eh]
	 SCS Correlation Energy    =      -1.2941165400505246 [Eh]
	 SCS Total Energy          =    -288.9530501056664207 [Eh]
	-----------------------------------------------------------

  Dipole Moment: [D]
     X:     1.4399      Y:     0.2960      Z:     0.6671     Total:     1.6143

*** Psi4 exiting successfully. Buy a developer a beer!
