                               Psi4 1.4a3.dev225

  ==> Input File <==

--------------------------------------------------------------------------
#psi4
#
memory 32 gb

molecule  {
1 1
  O       -1.7781010     0.0481890    -0.8899830
  N        0.6933280    -0.0073914    -0.2948079
  C       -0.2685380    -0.7093740     0.7027740
  C        0.9538210     1.4204460     0.2306060
  C        1.9887930    -0.7552220    -0.3346960
  C       -1.6515690    -0.1051770     0.5221950
  H        0.2279220     0.0414410    -1.1066860
  H       -0.2728820    -1.7522560     0.3793240
  H        0.0946000    -0.6468560     1.7315660
  H        1.3625390     1.4139280     1.2413360
  H        1.6670510     1.8686130    -0.4607680
  H        0.0151050     1.9693480     0.1947690
  H        2.4631220    -0.8193040     0.6447500
  H        1.7659200    -1.7521810    -0.7136960
  H        2.6362400    -0.2249370    -1.0326780
  H       -2.3916570    -0.7986900     0.9363150
  H       -1.7508380     0.8532310     1.0447820
  H       -2.6851960     0.3180950    -1.1185210
units angstrom
no_reorient  #important for SAPT in psi4, default
symmetry c1  #important for SAPT in psi4, default
}

set PROPERTIES_ORIGIN ["COM"]
properties('MP2/aug-cc-pvtz', properties = ['dipole'])
--------------------------------------------------------------------------

    Molecular point group: c1
  Charge       = 1
  Multiplicity = 1
  Basis Set: AUG-CC-PVTZ
    Blend: AUG-CC-PVTZ
  Basis Set: (AUG-CC-PVTZ AUX)
    Blend: AUG-CC-PVTZ-JKFIT

    Orbital Energies [Eh]
    ---------------------

    Doubly Occupied:

       1A    -20.732324     2A    -15.849443     3A    -11.460555
       4A    -11.453834     5A    -11.452775     6A    -11.449160
       7A     -1.539017     8A     -1.483243     9A     -1.202538
      10A     -1.159042    11A     -1.108140    12A     -1.029159
      13A     -0.915663    14A     -0.877488    15A     -0.851659
      16A     -0.833993    17A     -0.791294    18A     -0.761316
      19A     -0.750342    20A     -0.736945    21A     -0.732387
      22A     -0.721348    23A     -0.698896    24A     -0.671612
      25A     -0.623323

  @DF-RHF Final Energy:  -287.64641319063315

   => Energetics <=

    Nuclear Repulsion Energy =            277.9145159685777458
    One-Electron Energy =                -931.3508645379123436
    Two-Electron Energy =                 365.7899353787013865
    Total Energy =                       -287.6464131906331545
  Basis Set: (AUG-CC-PVTZ AUX)
    Blend: AUG-CC-PVTZ-RI
    Molecular point group: c1

    Geometry (in Angstrom), charge = 1, multiplicity = 1:

       Center              X                  Y                   Z               Mass
    ------------   -----------------  -----------------  -----------------  -----------------
         O           -1.741412536687     0.055409785824    -0.854921480483    15.994914619570
         N            0.730016463313    -0.000170614176    -0.259746380483    14.003074004430
         C           -0.231849536687    -0.702153214176     0.737835519517    12.000000000000
         C            0.990509463313     1.427666785824     0.265667519517    12.000000000000
         C            2.025481463313    -0.748001214176    -0.299634480483    12.000000000000
         C           -1.614880536687    -0.097956214176     0.557256519517    12.000000000000
         H            0.264610463313     0.048661785824    -1.071624480483     1.007825032230
         H           -0.236193536687    -1.745035214176     0.414385519517     1.007825032230
         H            0.131288463313    -0.639635214176     1.766627519517     1.007825032230
         H            1.399227463313     1.421148785824     1.276397519517     1.007825032230
         H            1.703739463313     1.875833785824    -0.425706480483     1.007825032230
         H            0.051793463313     1.976568785824     0.229830519517     1.007825032230
         H            2.499810463313    -0.812083214176     0.679811519517     1.007825032230
         H            1.802608463313    -1.744960214176    -0.678634480483     1.007825032230
         H            2.672928463313    -0.217716214176    -0.997616480483     1.007825032230
         H           -2.354968536687    -0.791469214176     0.971376519517     1.007825032230
         H           -1.714149536687     0.860451785824     1.079843519517     1.007825032230
         H           -2.648507536687     0.325315785824    -1.083459480483     1.007825032230

  Basis Set: AUG-CC-PVTZ
    Blend: AUG-CC-PVTZ
  Basis Set: (AUG-CC-PVTZ AUX)
    Blend: AUG-CC-PVTZ-JKFIT
	 Reference Energy          =    -287.6464131906331545 [Eh]
	 Singles Energy            =      -0.0000000000000000 [Eh]
	 Same-Spin Energy          =      -0.2841482232331745 [Eh]
	 Opposite-Spin Energy      =      -0.9990085916256980 [Eh]
	 Correlation Energy        =      -1.2831568148588723 [Eh]
	 Total Energy              =    -288.9295700054920530 [Eh]

	 ================> DF-SCS-MP2 Energies <==================
	-----------------------------------------------------------
	 SCS Same-Spin Scale       =       0.3333333333333333 [-]
	 SCS Opposite-Spin Scale   =       1.2000000000000000 [-]
	 SCS Same-Spin Energy      =      -0.0947160744110581 [Eh]
	 SCS Opposite-Spin Energy  =      -1.1988103099508376 [Eh]
	 SCS Correlation Energy    =      -1.2935263843618958 [Eh]
	 SCS Total Energy          =    -288.9399395749950372 [Eh]
	-----------------------------------------------------------

  Dipole Moment: [D]
     X:     1.4143      Y:     0.3365      Z:     0.8565     Total:     1.6873

*** Psi4 exiting successfully. Buy a developer a beer!
