                               Psi4 1.4a3.dev225

  ==> Input File <==

--------------------------------------------------------------------------
#psi4
#
memory 32 gb

molecule  {
1 1
  O       -1.7781010     0.0481890    -0.8899830
  N        0.7082630     0.0057180    -0.1922720
  C       -0.2685380    -0.7093740     0.7027740
  C        0.9538210     1.4204460     0.2306060
  C        1.9887930    -0.7552220    -0.3346960
  C       -1.6515690    -0.1051770     0.5221950
  H        0.1814456     0.0448975    -1.1951620
  H       -0.2728820    -1.7522560     0.3793240
  H        0.0946000    -0.6468560     1.7315660
  H        1.3625390     1.4139280     1.2413360
  H        1.6670510     1.8686130    -0.4607680
  H        0.0151050     1.9693480     0.1947690
  H        2.4631220    -0.8193040     0.6447500
  H        1.7659200    -1.7521810    -0.7136960
  H        2.6362400    -0.2249370    -1.0326780
  H       -2.3916570    -0.7986900     0.9363150
  H       -1.7508380     0.8532310     1.0447820
  H       -2.6851960     0.3180950    -1.1185210
units angstrom
no_reorient  #important for SAPT in psi4, default
symmetry c1  #important for SAPT in psi4, default
}

set PROPERTIES_ORIGIN ["COM"]
properties('MP2/aug-cc-pvtz', properties = ['dipole'])
--------------------------------------------------------------------------

    Molecular point group: c1
  Charge       = 1
  Multiplicity = 1
  Basis Set: AUG-CC-PVTZ
    Blend: AUG-CC-PVTZ
  Basis Set: (AUG-CC-PVTZ AUX)
    Blend: AUG-CC-PVTZ-JKFIT

    Orbital Energies [Eh]
    ---------------------

    Doubly Occupied:

       1A    -20.734851     2A    -15.860289     3A    -11.456085
       4A    -11.454271     5A    -11.447766     6A    -11.447574
       7A     -1.539802     8A     -1.475997     9A     -1.205426
      10A     -1.163855    11A     -1.084376    12A     -1.015391
      13A     -0.914496    14A     -0.873537    15A     -0.850685
      16A     -0.835353    17A     -0.791231    18A     -0.756273
      19A     -0.745004    20A     -0.738592    21A     -0.723601
      22A     -0.712635    23A     -0.704750    24A     -0.672934
      25A     -0.625283

  @DF-RHF Final Energy:  -287.64926919538618

   => Energetics <=

    Nuclear Repulsion Energy =            278.0247324600864545
    One-Electron Energy =                -931.6878918330759234
    Two-Electron Energy =                 366.0138901776032299
    Total Energy =                       -287.6492691953861822
  Basis Set: (AUG-CC-PVTZ AUX)
    Blend: AUG-CC-PVTZ-RI
    Molecular point group: c1

    Geometry (in Angstrom), charge = 1, multiplicity = 1:

       Center              X                  Y                   Z               Mass
    ------------   -----------------  -----------------  -----------------  -----------------
         O           -1.743213984439     0.053333511837    -0.869868991109    15.994914619570
         N            0.743150015561     0.010862511837    -0.172157991109    14.003074004430
         C           -0.233650984439    -0.704229488163     0.722888008891    12.000000000000
         C            0.988708015561     1.425590511837     0.250720008891    12.000000000000
         C            2.023680015561    -0.750077488163    -0.314581991109    12.000000000000
         C           -1.616681984439    -0.100032488163     0.542309008891    12.000000000000
         H            0.216332615561     0.050042011837    -1.175047991109     1.007825032230
         H           -0.237994984439    -1.747111488163     0.399438008891     1.007825032230
         H            0.129487015561    -0.641711488163     1.751680008891     1.007825032230
         H            1.397426015561     1.419072511837     1.261450008891     1.007825032230
         H            1.701938015561     1.873757511837    -0.440653991109     1.007825032230
         H            0.049992015561     1.974492511837     0.214883008891     1.007825032230
         H            2.498009015561    -0.814159488163     0.664864008891     1.007825032230
         H            1.800807015561    -1.747036488163    -0.693581991109     1.007825032230
         H            2.671127015561    -0.219792488163    -1.012563991109     1.007825032230
         H           -2.356769984439    -0.793545488163     0.956429008891     1.007825032230
         H           -1.715950984439     0.858375511837     1.064896008891     1.007825032230
         H           -2.650308984439     0.323239511837    -1.098406991109     1.007825032230

  Basis Set: AUG-CC-PVTZ
    Blend: AUG-CC-PVTZ
  Basis Set: (AUG-CC-PVTZ AUX)
    Blend: AUG-CC-PVTZ-JKFIT
	 Reference Energy          =    -287.6492691953861822 [Eh]
	 Singles Energy            =      -0.0000000000000000 [Eh]
	 Same-Spin Energy          =      -0.2860322815030062 [Eh]
	 Opposite-Spin Energy      =      -1.0017110621523433 [Eh]
	 Correlation Energy        =      -1.2877433436553496 [Eh]
	 Total Energy              =    -288.9370125390415183 [Eh]

	 ================> DF-SCS-MP2 Energies <==================
	-----------------------------------------------------------
	 SCS Same-Spin Scale       =       0.3333333333333333 [-]
	 SCS Opposite-Spin Scale   =       1.2000000000000000 [-]
	 SCS Same-Spin Energy      =      -0.0953440938343354 [Eh]
	 SCS Opposite-Spin Energy  =      -1.2020532745828119 [Eh]
	 SCS Correlation Energy    =      -1.2973973684171474 [Eh]
	 SCS Total Energy          =    -288.9466665638033191 [Eh]
	-----------------------------------------------------------

  Dipole Moment: [D]
     X:     1.2478      Y:     0.3123      Z:     0.5445     Total:     1.3968

*** Psi4 exiting successfully. Buy a developer a beer!
