                               Psi4 1.4a3.dev225

  ==> Input File <==

--------------------------------------------------------------------------
#psi4
#
memory 32 gb

molecule  {
1 1
  O       -1.7781010     0.0481890    -0.8899830
  N        0.7082630     0.0057180    -0.1922720
  C       -0.2685380    -0.7093740     0.7027740
  C        0.9538210     1.4204460     0.2306060
  C        1.9887930    -0.7552220    -0.3346960
  C       -1.6506700    -0.1114041     0.4964230
  H        0.2279220     0.0414410    -1.1066860
  H       -0.2728820    -1.7522560     0.3793240
  H        0.0946000    -0.6468560     1.7315660
  H        1.3625390     1.4139280     1.2413360
  H        1.6670510     1.8686130    -0.4607680
  H        0.0151050     1.9693480     0.1947690
  H        2.4631220    -0.8193040     0.6447500
  H        1.7659200    -1.7521810    -0.7136960
  H        2.6362400    -0.2249370    -1.0326780
  H       -2.3916570    -0.7986900     0.9363150
  H       -1.7508380     0.8532310     1.0447820
  H       -2.6851960     0.3180950    -1.1185210
units angstrom
no_reorient  #important for SAPT in psi4, default
symmetry c1  #important for SAPT in psi4, default
}

set PROPERTIES_ORIGIN ["COM"]
properties('MP2/aug-cc-pvtz', properties = ['dipole'])
--------------------------------------------------------------------------

    Molecular point group: c1
  Charge       = 1
  Multiplicity = 1
  Basis Set: AUG-CC-PVTZ
    Blend: AUG-CC-PVTZ
  Basis Set: (AUG-CC-PVTZ AUX)
    Blend: AUG-CC-PVTZ-JKFIT

    Orbital Energies [Eh]
    ---------------------

    Doubly Occupied:

       1A    -20.735502     2A    -15.856032     3A    -11.456423
       4A    -11.454584     5A    -11.449373     6A    -11.448861
       7A     -1.548648     8A     -1.488126     9A     -1.205933
      10A     -1.165855    11A     -1.091947    12A     -1.024253
      13A     -0.919338    14A     -0.880318    15A     -0.855609
      16A     -0.836916    17A     -0.792076    18A     -0.758843
      19A     -0.749237    20A     -0.740158    21A     -0.724938
      22A     -0.719037    23A     -0.712922    24A     -0.671278
      25A     -0.619578

  @DF-RHF Final Energy:  -287.65903277281507

   => Energetics <=

    Nuclear Repulsion Energy =            278.8256810763905378
    One-Electron Energy =                -933.1578516724800920
    Two-Electron Energy =                 366.6731378232744873
    Total Energy =                       -287.6590327728150669
  Basis Set: (AUG-CC-PVTZ AUX)
    Blend: AUG-CC-PVTZ-RI
    Molecular point group: c1

    Geometry (in Angstrom), charge = 1, multiplicity = 1:

       Center              X                  Y                   Z               Mass
    ------------   -----------------  -----------------  -----------------  -----------------
         O           -1.743853643347     0.054201611597    -0.867425977927    15.994914619570
         N            0.742510356653     0.011730611597    -0.169714977927    14.003074004430
         C           -0.234290643347    -0.703361388403     0.725331022073    12.000000000000
         C            0.988068356653     1.426458611597     0.253163022073    12.000000000000
         C            2.023040356653    -0.749209388403    -0.312138977927    12.000000000000
         C           -1.616422643347    -0.105391488403     0.518980022073    12.000000000000
         H            0.262169356653     0.047453611597    -1.084128977927     1.007825032230
         H           -0.238634643347    -1.746243388403     0.401881022073     1.007825032230
         H            0.128847356653    -0.640843388403     1.754123022073     1.007825032230
         H            1.396786356653     1.419940611597     1.263893022073     1.007825032230
         H            1.701298356653     1.874625611597    -0.438210977927     1.007825032230
         H            0.049352356653     1.975360611597     0.217326022073     1.007825032230
         H            2.497369356653    -0.813291388403     0.667307022073     1.007825032230
         H            1.800167356653    -1.746168388403    -0.691138977927     1.007825032230
         H            2.670487356653    -0.218924388403    -1.010120977927     1.007825032230
         H           -2.357409643347    -0.792677388403     0.958872022073     1.007825032230
         H           -1.716590643347     0.859243611597     1.067339022073     1.007825032230
         H           -2.650948643347     0.324107611597    -1.095963977927     1.007825032230

  Basis Set: AUG-CC-PVTZ
    Blend: AUG-CC-PVTZ
  Basis Set: (AUG-CC-PVTZ AUX)
    Blend: AUG-CC-PVTZ-JKFIT
	 Reference Energy          =    -287.6590327728150669 [Eh]
	 Singles Energy            =      -0.0000000000000000 [Eh]
	 Same-Spin Energy          =      -0.2850359393283826 [Eh]
	 Opposite-Spin Energy      =      -0.9990882536412297 [Eh]
	 Correlation Energy        =      -1.2841241929696121 [Eh]
	 Total Energy              =    -288.9431569657846808 [Eh]

	 ================> DF-SCS-MP2 Energies <==================
	-----------------------------------------------------------
	 SCS Same-Spin Scale       =       0.3333333333333333 [-]
	 SCS Opposite-Spin Scale   =       1.2000000000000000 [-]
	 SCS Same-Spin Energy      =      -0.0950119797761275 [Eh]
	 SCS Opposite-Spin Energy  =      -1.1989059043694756 [Eh]
	 SCS Correlation Energy    =      -1.2939178841456032 [Eh]
	 SCS Total Energy          =    -288.9529506569606951 [Eh]
	-----------------------------------------------------------

  Dipole Moment: [D]
     X:     1.3488      Y:     0.3073      Z:     0.5981     Total:     1.5071

*** Psi4 exiting successfully. Buy a developer a beer!
