                               Psi4 1.4a3.dev225

  ==> Input File <==

--------------------------------------------------------------------------
#psi4
#
memory 32 gb

molecule  {
1 1
  O       -1.7781010     0.0481890    -0.8899830
  N        0.7082630     0.0057180    -0.1922720
  C       -0.2685380    -0.7093740     0.7027740
  C        0.9538210     1.4204460     0.2306060
  C        1.9887930    -0.7552220    -0.3346960
  C       -1.6515690    -0.1051770     0.5221950
  H        0.2279220     0.0414410    -1.1066860
  H       -0.2728820    -1.7522560     0.3793240
  H        0.0946000    -0.6468560     1.7315660
  H        1.3625390     1.4139280     1.2413360
  H        1.6670510     1.8686130    -0.4607680
  H        0.0151050     1.9693480     0.1947690
  H        2.4848774    -0.8222432     0.6896729
  H        1.7659200    -1.7521810    -0.7136960
  H        2.6362400    -0.2249370    -1.0326780
  H       -2.3916570    -0.7986900     0.9363150
  H       -1.7508380     0.8532310     1.0447820
  H       -2.6851960     0.3180950    -1.1185210
units angstrom
no_reorient  #important for SAPT in psi4, default
symmetry c1  #important for SAPT in psi4, default
}

set PROPERTIES_ORIGIN ["COM"]
properties('MP2/aug-cc-pvtz', properties = ['dipole'])
--------------------------------------------------------------------------

    Molecular point group: c1
  Charge       = 1
  Multiplicity = 1
  Basis Set: AUG-CC-PVTZ
    Blend: AUG-CC-PVTZ
  Basis Set: (AUG-CC-PVTZ AUX)
    Blend: AUG-CC-PVTZ-JKFIT

    Orbital Energies [Eh]
    ---------------------

    Doubly Occupied:

       1A    -20.733163     2A    -15.856602     3A    -11.457004
       4A    -11.454768     5A    -11.454151     6A    -11.449052
       7A     -1.539658     8A     -1.487064     9A     -1.206263
      10A     -1.164116    11A     -1.090388    12A     -1.024665
      13A     -0.919156    14A     -0.875884    15A     -0.853519
      16A     -0.837217    17A     -0.790874    18A     -0.755829
      19A     -0.740441    20A     -0.739508    21A     -0.724903
      22A     -0.715934    23A     -0.711216    24A     -0.673818
      25A     -0.624360

  @DF-RHF Final Energy:  -287.65716550392318

   => Energetics <=

    Nuclear Repulsion Energy =            278.3038583306060332
    One-Electron Energy =                -932.1629409834530406
    Two-Electron Energy =                 366.2019171489238829
    Total Energy =                       -287.6571655039231814
  Basis Set: (AUG-CC-PVTZ AUX)
    Blend: AUG-CC-PVTZ-RI
    Molecular point group: c1

    Geometry (in Angstrom), charge = 1, multiplicity = 1:

       Center              X                  Y                   Z               Mass
    ------------   -----------------  -----------------  -----------------  -----------------
         O           -1.743977268646     0.053405058195    -0.871361275844    15.994914619570
         N            0.742386731354     0.010934058195    -0.173650275844    14.003074004430
         C           -0.234414268646    -0.704157941805     0.721395724156    12.000000000000
         C            0.987944731354     1.425662058195     0.249227724156    12.000000000000
         C            2.022916731354    -0.750005941805    -0.316074275844    12.000000000000
         C           -1.617445268646    -0.099960941805     0.540816724156    12.000000000000
         H            0.262045731354     0.046657058195    -1.088064275844     1.007825032230
         H           -0.238758268646    -1.747039941805     0.397945724156     1.007825032230
         H            0.128723731354    -0.641639941805     1.750187724156     1.007825032230
         H            1.396662731354     1.419144058195     1.259957724156     1.007825032230
         H            1.701174731354     1.873829058195    -0.442146275844     1.007825032230
         H            0.049228731354     1.974564058195     0.213390724156     1.007825032230
         H            2.519001131354    -0.817027141805     0.708294624156     1.007825032230
         H            1.800043731354    -1.746964941805    -0.695074275844     1.007825032230
         H            2.670363731354    -0.219720941805    -1.014056275844     1.007825032230
         H           -2.357533268646    -0.793473941805     0.954936724156     1.007825032230
         H           -1.716714268646     0.858447058195     1.063403724156     1.007825032230
         H           -2.651072268646     0.323311058195    -1.099899275844     1.007825032230

  Basis Set: AUG-CC-PVTZ
    Blend: AUG-CC-PVTZ
  Basis Set: (AUG-CC-PVTZ AUX)
    Blend: AUG-CC-PVTZ-JKFIT
	 Reference Energy          =    -287.6571655039231814 [Eh]
	 Singles Energy            =      -0.0000000000000000 [Eh]
	 Same-Spin Energy          =      -0.2850691397281670 [Eh]
	 Opposite-Spin Energy      =      -0.9997860070417768 [Eh]
	 Correlation Energy        =      -1.2848551467699438 [Eh]
	 Total Energy              =    -288.9420206506931095 [Eh]

	 ================> DF-SCS-MP2 Energies <==================
	-----------------------------------------------------------
	 SCS Same-Spin Scale       =       0.3333333333333333 [-]
	 SCS Opposite-Spin Scale   =       1.2000000000000000 [-]
	 SCS Same-Spin Energy      =      -0.0950230465760557 [Eh]
	 SCS Opposite-Spin Energy  =      -1.1997432084501320 [Eh]
	 SCS Correlation Energy    =      -1.2947662550261878 [Eh]
	 SCS Total Energy          =    -288.9519317589493426 [Eh]
	-----------------------------------------------------------

  Dipole Moment: [D]
     X:     1.3705      Y:     0.3073      Z:     0.6625     Total:     1.5530

*** Psi4 exiting successfully. Buy a developer a beer!
