                               Psi4 1.4a3.dev225

  ==> Input File <==

--------------------------------------------------------------------------
#psi4
#
memory 32 gb

molecule  {
1 1
  O       -1.7781010     0.0481890    -0.8899830
  N        0.7082630     0.0057180    -0.1922720
  C       -0.2555618    -0.6998744     0.6908838
  C        0.9538210     1.4204460     0.2306060
  C        1.9887930    -0.7552220    -0.3346960
  C       -1.6515690    -0.1051770     0.5221950
  H        0.2279220     0.0414410    -1.1066860
  H       -0.2728820    -1.7522560     0.3793240
  H        0.0946000    -0.6468560     1.7315660
  H        1.3625390     1.4139280     1.2413360
  H        1.6670510     1.8686130    -0.4607680
  H        0.0151050     1.9693480     0.1947690
  H        2.4631220    -0.8193040     0.6447500
  H        1.7659200    -1.7521810    -0.7136960
  H        2.6362400    -0.2249370    -1.0326780
  H       -2.3916570    -0.7986900     0.9363150
  H       -1.7508380     0.8532310     1.0447820
  H       -2.6851960     0.3180950    -1.1185210
units angstrom
no_reorient  #important for SAPT in psi4, default
symmetry c1  #important for SAPT in psi4, default
}

set PROPERTIES_ORIGIN ["COM"]
properties('MP2/aug-cc-pvtz', properties = ['dipole'])
--------------------------------------------------------------------------

    Molecular point group: c1
  Charge       = 1
  Multiplicity = 1
  Basis Set: AUG-CC-PVTZ
    Blend: AUG-CC-PVTZ
  Basis Set: (AUG-CC-PVTZ AUX)
    Blend: AUG-CC-PVTZ-JKFIT

    Orbital Energies [Eh]
    ---------------------

    Doubly Occupied:

       1A    -20.732699     2A    -15.857562     3A    -11.456143
       4A    -11.454037     5A    -11.450233     6A    -11.449818
       7A     -1.539972     8A     -1.491024     9A     -1.205292
      10A     -1.167217    11A     -1.094371    12A     -1.025090
      13A     -0.920345    14A     -0.877839    15A     -0.853514
      16A     -0.838930    17A     -0.791811    18A     -0.757763
      19A     -0.746071    20A     -0.740582    21A     -0.725890
      22A     -0.716775    23A     -0.709238    24A     -0.673439
      25A     -0.623779

  @DF-RHF Final Energy:  -287.65904942134301

   => Energetics <=

    Nuclear Repulsion Energy =            278.7720236580407231
    One-Electron Energy =                -933.0632793237822398
    Two-Electron Energy =                 366.6322062443985601
    Total Energy =                       -287.6590494213430134
  Basis Set: (AUG-CC-PVTZ AUX)
    Blend: AUG-CC-PVTZ-RI
    Molecular point group: c1

    Geometry (in Angstrom), charge = 1, multiplicity = 1:

       Center              X                  Y                   Z               Mass
    ------------   -----------------  -----------------  -----------------  -----------------
         O           -1.745462294266     0.052106856985    -0.869274996766    15.994914619570
         N            0.740901705734     0.009635856985    -0.171563996766    14.003074004430
         C           -0.222923094266    -0.695956543015     0.711591803234    12.000000000000
         C            0.986459705734     1.424363856985     0.251314003234    12.000000000000
         C            2.021431705734    -0.751304143015    -0.313987996766    12.000000000000
         C           -1.618930294266    -0.101259143015     0.542903003234    12.000000000000
         H            0.260560705734     0.045358856985    -1.085977996766     1.007825032230
         H           -0.240243294266    -1.748338143015     0.400032003234     1.007825032230
         H            0.127238705734    -0.642938143015     1.752274003234     1.007825032230
         H            1.395177705734     1.417845856985     1.262044003234     1.007825032230
         H            1.699689705734     1.872530856985    -0.440059996766     1.007825032230
         H            0.047743705734     1.973265856985     0.215477003234     1.007825032230
         H            2.495760705734    -0.815386143015     0.665458003234     1.007825032230
         H            1.798558705734    -1.748263143015    -0.692987996766     1.007825032230
         H            2.668878705734    -0.221019143015    -1.011969996766     1.007825032230
         H           -2.359018294266    -0.794772143015     0.957023003234     1.007825032230
         H           -1.718199294266     0.857148856985     1.065490003234     1.007825032230
         H           -2.652557294266     0.322012856985    -1.097812996766     1.007825032230

  Basis Set: AUG-CC-PVTZ
    Blend: AUG-CC-PVTZ
  Basis Set: (AUG-CC-PVTZ AUX)
    Blend: AUG-CC-PVTZ-JKFIT
	 Reference Energy          =    -287.6590494213430134 [Eh]
	 Singles Energy            =      -0.0000000000000000 [Eh]
	 Same-Spin Energy          =      -0.2851064860961612 [Eh]
	 Opposite-Spin Energy      =      -0.9994103228116590 [Eh]
	 Correlation Energy        =      -1.2845168089078203 [Eh]
	 Total Energy              =    -288.9435662302508376 [Eh]

	 ================> DF-SCS-MP2 Energies <==================
	-----------------------------------------------------------
	 SCS Same-Spin Scale       =       0.3333333333333333 [-]
	 SCS Opposite-Spin Scale   =       1.2000000000000000 [-]
	 SCS Same-Spin Energy      =      -0.0950354953653871 [Eh]
	 SCS Opposite-Spin Energy  =      -1.1992923873739907 [Eh]
	 SCS Correlation Energy    =      -1.2943278827393778 [Eh]
	 SCS Total Energy          =    -288.9533773040823803 [Eh]
	-----------------------------------------------------------

  Dipole Moment: [D]
     X:     1.3938      Y:     0.3225      Z:     0.6480     Total:     1.5706

*** Psi4 exiting successfully. Buy a developer a beer!
