                               Psi4 1.4a3.dev225

  ==> Input File <==

--------------------------------------------------------------------------
#psi4
#
memory 32 gb

molecule  {
1 1
  O       -1.7781010     0.0481890    -0.8899830
  N        0.7082630     0.0057180    -0.1922720
  C       -0.2685380    -0.7093740     0.7027740
  C        0.9538210     1.4204460     0.2306060
  C        1.9887930    -0.7552220    -0.3346960
  C       -1.6515690    -0.1051770     0.5221950
  H        0.2279220     0.0414410    -1.1066860
  H       -0.2996249    -1.7284887     0.3120305
  H        0.0946000    -0.6468560     1.7315660
  H        1.3625390     1.4139280     1.2413360
  H        1.6670510     1.8686130    -0.4607680
  H        0.0151050     1.9693480     0.1947690
  H        2.4631220    -0.8193040     0.6447500
  H        1.7659200    -1.7521810    -0.7136960
  H        2.6362400    -0.2249370    -1.0326780
  H       -2.3916570    -0.7986900     0.9363150
  H       -1.7508380     0.8532310     1.0447820
  H       -2.6851960     0.3180950    -1.1185210
units angstrom
no_reorient  #important for SAPT in psi4, default
symmetry c1  #important for SAPT in psi4, default
}

set PROPERTIES_ORIGIN ["COM"]
properties('MP2/aug-cc-pvtz', properties = ['dipole'])
--------------------------------------------------------------------------

    Molecular point group: c1
  Charge       = 1
  Multiplicity = 1
  Basis Set: AUG-CC-PVTZ
    Blend: AUG-CC-PVTZ
  Basis Set: (AUG-CC-PVTZ AUX)
    Blend: AUG-CC-PVTZ-JKFIT

    Orbital Energies [Eh]
    ---------------------

    Doubly Occupied:

       1A    -20.733436     2A    -15.855720     3A    -11.457464
       4A    -11.453935     5A    -11.449416     6A    -11.448843
       7A     -1.539961     8A     -1.487135     9A     -1.207271
      10A     -1.165934    11A     -1.092987    12A     -1.023652
      13A     -0.920273    14A     -0.875921    15A     -0.854318
      16A     -0.837631    17A     -0.792440    18A     -0.757029
      19A     -0.745846    20A     -0.741241    21A     -0.724808
      22A     -0.716256    23A     -0.712813    24A     -0.673512
      25A     -0.624526

  @DF-RHF Final Energy:  -287.65868385151640

   => Energetics <=

    Nuclear Repulsion Energy =            278.6027488523603779
    One-Electron Energy =                -932.7381307740887451
    Two-Electron Energy =                 366.4766980702119668
    Total Energy =                       -287.6586838515164004
  Basis Set: (AUG-CC-PVTZ AUX)
    Blend: AUG-CC-PVTZ-RI
    Molecular point group: c1

    Geometry (in Angstrom), charge = 1, multiplicity = 1:

       Center              X                  Y                   Z               Mass
    ------------   -----------------  -----------------  -----------------  -----------------
         O           -1.743434735891     0.053106302342    -0.870105951994    15.994914619570
         N            0.742929264109     0.010635302342    -0.172394951994    14.003074004430
         C           -0.233871735891    -0.704456697658     0.722651048006    12.000000000000
         C            0.988487264109     1.425363302342     0.250483048006    12.000000000000
         C            2.023459264109    -0.750304697658    -0.314818951994    12.000000000000
         C           -1.616902735891    -0.100259697658     0.542072048006    12.000000000000
         H            0.262588264109     0.046358302342    -1.086808951994     1.007825032230
         H           -0.264958635891    -1.723571397658     0.331907548006     1.007825032230
         H            0.129266264109    -0.641938697658     1.751443048006     1.007825032230
         H            1.397205264109     1.418845302342     1.261213048006     1.007825032230
         H            1.701717264109     1.873530302342    -0.440890951994     1.007825032230
         H            0.049771264109     1.974265302342     0.214646048006     1.007825032230
         H            2.497788264109    -0.814386697658     0.664627048006     1.007825032230
         H            1.800586264109    -1.747263697658    -0.693818951994     1.007825032230
         H            2.670906264109    -0.220019697658    -1.012800951994     1.007825032230
         H           -2.356990735891    -0.793772697658     0.956192048006     1.007825032230
         H           -1.716171735891     0.858148302342     1.064659048006     1.007825032230
         H           -2.650529735891     0.323012302342    -1.098643951994     1.007825032230

  Basis Set: AUG-CC-PVTZ
    Blend: AUG-CC-PVTZ
  Basis Set: (AUG-CC-PVTZ AUX)
    Blend: AUG-CC-PVTZ-JKFIT
	 Reference Energy          =    -287.6586838515164004 [Eh]
	 Singles Energy            =      -0.0000000000000000 [Eh]
	 Same-Spin Energy          =      -0.2850974384865539 [Eh]
	 Opposite-Spin Energy      =      -0.9995544779799893 [Eh]
	 Correlation Energy        =      -1.2846519164665433 [Eh]
	 Total Energy              =    -288.9433357679829442 [Eh]

	 ================> DF-SCS-MP2 Energies <==================
	-----------------------------------------------------------
	 SCS Same-Spin Scale       =       0.3333333333333333 [-]
	 SCS Opposite-Spin Scale   =       1.2000000000000000 [-]
	 SCS Same-Spin Energy      =      -0.0950324794955180 [Eh]
	 SCS Opposite-Spin Energy  =      -1.1994653735759870 [Eh]
	 SCS Correlation Energy    =      -1.2944978530715050 [Eh]
	 SCS Total Energy          =    -288.9531817045879052 [Eh]
	-----------------------------------------------------------

  Dipole Moment: [D]
     X:     1.3519      Y:     0.3222      Z:     0.6467     Total:     1.5329

*** Psi4 exiting successfully. Buy a developer a beer!
