                               Psi4 1.4a3.dev225

  ==> Input File <==

--------------------------------------------------------------------------
#psi4
#
memory 32 gb

molecule  {
1 1
  O       -1.7781010     0.0481890    -0.8899830
  N        0.7590431    -0.0042734    -0.1851055
  C       -0.2685380    -0.7093740     0.7027740
  C        0.9538210     1.4204460     0.2306060
  C        1.9887930    -0.7552220    -0.3346960
  C       -1.6515690    -0.1051770     0.5221950
  H        0.2279220     0.0414410    -1.1066860
  H       -0.2728820    -1.7522560     0.3793240
  H        0.0946000    -0.6468560     1.7315660
  H        1.3625390     1.4139280     1.2413360
  H        1.6670510     1.8686130    -0.4607680
  H        0.0151050     1.9693480     0.1947690
  H        2.4631220    -0.8193040     0.6447500
  H        1.7659200    -1.7521810    -0.7136960
  H        2.6362400    -0.2249370    -1.0326780
  H       -2.3916570    -0.7986900     0.9363150
  H       -1.7508380     0.8532310     1.0447820
  H       -2.6851960     0.3180950    -1.1185210
units angstrom
no_reorient  #important for SAPT in psi4, default
symmetry c1  #important for SAPT in psi4, default
}

set PROPERTIES_ORIGIN ["COM"]
properties('MP2/aug-cc-pvtz', properties = ['dipole'])
--------------------------------------------------------------------------

    Molecular point group: c1
  Charge       = 1
  Multiplicity = 1
  Basis Set: AUG-CC-PVTZ
    Blend: AUG-CC-PVTZ
  Basis Set: (AUG-CC-PVTZ AUX)
    Blend: AUG-CC-PVTZ-JKFIT

    Orbital Energies [Eh]
    ---------------------

    Doubly Occupied:

       1A    -20.734616     2A    -15.857519     3A    -11.459495
       4A    -11.456391     5A    -11.449300     6A    -11.445078
       7A     -1.539899     8A     -1.489478     9A     -1.207995
      10A     -1.170895    11A     -1.088196    12A     -1.021658
      13A     -0.920432    14A     -0.875650    15A     -0.856654
      16A     -0.840509    17A     -0.795583    18A     -0.757661
      19A     -0.744138    20A     -0.737137    21A     -0.729030
      22A     -0.711516    23A     -0.709344    24A     -0.675451
      25A     -0.625603

  @DF-RHF Final Energy:  -287.65534945711664

   => Energetics <=

    Nuclear Repulsion Energy =            278.3146971999707375
    One-Electron Energy =                -932.1416392395076400
    Two-Electron Energy =                 366.1715925824202600
    Total Energy =                       -287.6553494571166425
  Basis Set: (AUG-CC-PVTZ AUX)
    Blend: AUG-CC-PVTZ-RI
    Molecular point group: c1

    Geometry (in Angstrom), charge = 1, multiplicity = 1:

       Center              X                  Y                   Z               Mass
    ------------   -----------------  -----------------  -----------------  -----------------
         O           -1.751626701565     0.054925151911    -0.871972636170    15.994914619570
         N            0.785517398435     0.002462751911    -0.167095136170    14.003074004430
         C           -0.242063701565    -0.702637848089     0.720784363830    12.000000000000
         C            0.980295298435     1.427182151911     0.248616363830    12.000000000000
         C            2.015267298435    -0.748485848089    -0.316685636170    12.000000000000
         C           -1.625094701565    -0.098440848089     0.540205363830    12.000000000000
         H            0.254396298435     0.048177151911    -1.088675636170     1.007825032230
         H           -0.246407701565    -1.745519848089     0.397334363830     1.007825032230
         H            0.121074298435    -0.640119848089     1.749576363830     1.007825032230
         H            1.389013298435     1.420664151911     1.259346363830     1.007825032230
         H            1.693525298435     1.875349151911    -0.442757636170     1.007825032230
         H            0.041579298435     1.976084151911     0.212779363830     1.007825032230
         H            2.489596298435    -0.812567848089     0.662760363830     1.007825032230
         H            1.792394298435    -1.745444848089    -0.695685636170     1.007825032230
         H            2.662714298435    -0.218200848089    -1.014667636170     1.007825032230
         H           -2.365182701565    -0.791953848089     0.954325363830     1.007825032230
         H           -1.724363701565     0.859967151911     1.062792363830     1.007825032230
         H           -2.658721701565     0.324831151911    -1.100510636170     1.007825032230

  Basis Set: AUG-CC-PVTZ
    Blend: AUG-CC-PVTZ
  Basis Set: (AUG-CC-PVTZ AUX)
    Blend: AUG-CC-PVTZ-JKFIT
	 Reference Energy          =    -287.6553494571166425 [Eh]
	 Singles Energy            =      -0.0000000000000000 [Eh]
	 Same-Spin Energy          =      -0.2854677553092659 [Eh]
	 Opposite-Spin Energy      =      -1.0000352541338109 [Eh]
	 Correlation Energy        =      -1.2855030094430768 [Eh]
	 Total Energy              =    -288.9408524665597042 [Eh]

	 ================> DF-SCS-MP2 Energies <==================
	-----------------------------------------------------------
	 SCS Same-Spin Scale       =       0.3333333333333333 [-]
	 SCS Opposite-Spin Scale   =       1.2000000000000000 [-]
	 SCS Same-Spin Energy      =      -0.0951559184364220 [Eh]
	 SCS Opposite-Spin Energy  =      -1.2000423049605731 [Eh]
	 SCS Correlation Energy    =      -1.2951982233969950 [Eh]
	 SCS Total Energy          =    -288.9505476805136368 [Eh]
	-----------------------------------------------------------

  Dipole Moment: [D]
     X:     1.2244      Y:     0.3312      Z:     0.6529     Total:     1.4265

*** Psi4 exiting successfully. Buy a developer a beer!
