                               Psi4 1.4a3.dev225

  ==> Input File <==

--------------------------------------------------------------------------
#psi4
#
memory 32 gb

molecule  {
1 1
  O       -1.7781010     0.0481890    -0.8899830
  N        0.7082630     0.0057180    -0.1922720
  C       -0.2685380    -0.7093740     0.7027740
  C        0.9538210     1.4204460     0.2306060
  C        1.9887930    -0.7552220    -0.3346960
  C       -1.6515690    -0.1051770     0.5221950
  H        0.2279220     0.0414410    -1.1066860
  H       -0.2728820    -1.7522560     0.3793240
  H        0.0946000    -0.6468560     1.7315660
  H        1.3625390     1.4139280     1.2413360
  H        1.6670510     1.8686130    -0.4607680
  H        0.0151050     1.9693480     0.1947690
  H        2.4631220    -0.8193040     0.6447500
  H        1.7659200    -1.7521810    -0.7136960
  H        2.6659460    -0.2006066    -1.0647027
  H       -2.3916570    -0.7986900     0.9363150
  H       -1.7508380     0.8532310     1.0447820
  H       -2.6851960     0.3180950    -1.1185210
units angstrom
no_reorient  #important for SAPT in psi4, default
symmetry c1  #important for SAPT in psi4, default
}

set PROPERTIES_ORIGIN ["COM"]
properties('MP2/aug-cc-pvtz', properties = ['dipole'])
--------------------------------------------------------------------------

    Molecular point group: c1
  Charge       = 1
  Multiplicity = 1
  Basis Set: AUG-CC-PVTZ
    Blend: AUG-CC-PVTZ
  Basis Set: (AUG-CC-PVTZ AUX)
    Blend: AUG-CC-PVTZ-JKFIT

    Orbital Energies [Eh]
    ---------------------

    Doubly Occupied:

       1A    -20.733206     2A    -15.856500     3A    -11.457240
       4A    -11.454673     5A    -11.454315     6A    -11.448972
       7A     -1.539702     8A     -1.487038     9A     -1.206096
      10A     -1.164231    11A     -1.090635    12A     -1.024988
      13A     -0.918487    14A     -0.877222    15A     -0.853284
      16A     -0.834431    17A     -0.792125    18A     -0.756774
      19A     -0.745547    20A     -0.734728    21A     -0.724187
      22A     -0.716814    23A     -0.711290    24A     -0.673212
      25A     -0.624436

  @DF-RHF Final Energy:  -287.65712823743138

   => Energetics <=

    Nuclear Repulsion Energy =            278.2988587995715193
    One-Electron Energy =                -932.1517094416933560
    Two-Electron Energy =                 366.1957224046905139
    Total Energy =                       -287.6571282374313796
  Basis Set: (AUG-CC-PVTZ AUX)
    Blend: AUG-CC-PVTZ-RI
    Molecular point group: c1

    Geometry (in Angstrom), charge = 1, multiplicity = 1:

       Center              X                  Y                   Z               Mass
    ------------   -----------------  -----------------  -----------------  -----------------
         O           -1.744066209102     0.053100003148    -0.870500491168    15.994914619570
         N            0.742297790898     0.010629003148    -0.172789491168    14.003074004430
         C           -0.234503209102    -0.704462996852     0.722256508832    12.000000000000
         C            0.987855790898     1.425357003148     0.250088508832    12.000000000000
         C            2.022827790898    -0.750310996852    -0.315213491168    12.000000000000
         C           -1.617534209102    -0.100265996852     0.541677508832    12.000000000000
         H            0.261956790898     0.046352003148    -1.087203491168     1.007825032230
         H           -0.238847209102    -1.747344996852     0.398806508832     1.007825032230
         H            0.128634790898    -0.641944996852     1.751048508832     1.007825032230
         H            1.396573790898     1.418839003148     1.260818508832     1.007825032230
         H            1.701085790898     1.873524003148    -0.441285491168     1.007825032230
         H            0.049139790898     1.974259003148     0.214251508832     1.007825032230
         H            2.497156790898    -0.814392996852     0.664232508832     1.007825032230
         H            1.799954790898    -1.747269996852    -0.694213491168     1.007825032230
         H            2.699980790898    -0.195695596852    -1.045220191168     1.007825032230
         H           -2.357622209102    -0.793778996852     0.955797508832     1.007825032230
         H           -1.716803209102     0.858142003148     1.064264508832     1.007825032230
         H           -2.651161209102     0.323006003148    -1.099038491168     1.007825032230

  Basis Set: AUG-CC-PVTZ
    Blend: AUG-CC-PVTZ
  Basis Set: (AUG-CC-PVTZ AUX)
    Blend: AUG-CC-PVTZ-JKFIT
	 Reference Energy          =    -287.6571282374313796 [Eh]
	 Singles Energy            =      -0.0000000000000000 [Eh]
	 Same-Spin Energy          =      -0.2850744470452469 [Eh]
	 Opposite-Spin Energy      =      -0.9998101611957602 [Eh]
	 Correlation Energy        =      -1.2848846082410070 [Eh]
	 Total Energy              =    -288.9420128456723660 [Eh]

	 ================> DF-SCS-MP2 Energies <==================
	-----------------------------------------------------------
	 SCS Same-Spin Scale       =       0.3333333333333333 [-]
	 SCS Opposite-Spin Scale   =       1.2000000000000000 [-]
	 SCS Same-Spin Energy      =      -0.0950248156817490 [Eh]
	 SCS Opposite-Spin Energy  =      -1.1997721934349121 [Eh]
	 SCS Correlation Energy    =      -1.2947970091166612 [Eh]
	 SCS Total Energy          =    -288.9519252465480577 [Eh]
	-----------------------------------------------------------

  Dipole Moment: [D]
     X:     1.3672      Y:     0.3082      Z:     0.6613     Total:     1.5497

*** Psi4 exiting successfully. Buy a developer a beer!
