                               Psi4 1.4a3.dev225

  ==> Input File <==

--------------------------------------------------------------------------
#psi4
#
memory 32 gb

molecule  {
1 1
  O       -1.7781010     0.0481890    -0.8899830
  N        0.7082630     0.0057180    -0.1922720
  C       -0.2685380    -0.7093740     0.7027740
  C        0.9538210     1.4204460     0.2306060
  C        1.9887930    -0.7552220    -0.3346960
  C       -1.6515690    -0.1051770     0.5221950
  H        0.2279220     0.0414410    -1.1066860
  H       -0.2728820    -1.7522560     0.3793240
  H        0.0946000    -0.6468560     1.7315660
  H        1.3625390     1.4139280     1.2413360
  H        1.6670510     1.8686130    -0.4607680
  H        0.0151050     1.9693480     0.1947690
  H        2.4631220    -0.8193040     0.6447500
  H        1.8306715    -1.7258708    -0.8038219
  H        2.6362400    -0.2249370    -1.0326780
  H       -2.3916570    -0.7986900     0.9363150
  H       -1.7508380     0.8532310     1.0447820
  H       -2.6851960     0.3180950    -1.1185210
units angstrom
no_reorient  #important for SAPT in psi4, default
symmetry c1  #important for SAPT in psi4, default
}

set PROPERTIES_ORIGIN ["COM"]
properties('MP2/aug-cc-pvtz', properties = ['dipole'])
--------------------------------------------------------------------------

    Molecular point group: c1
  Charge       = 1
  Multiplicity = 1
  Basis Set: AUG-CC-PVTZ
    Blend: AUG-CC-PVTZ
  Basis Set: (AUG-CC-PVTZ AUX)
    Blend: AUG-CC-PVTZ-JKFIT

    Orbital Energies [Eh]
    ---------------------

    Doubly Occupied:

       1A    -20.733082     2A    -15.857039     3A    -11.456768
       4A    -11.454017     5A    -11.449329     6A    -11.448949
       7A     -1.539574     8A     -1.487065     9A     -1.206625
      10A     -1.165525    11A     -1.093452    12A     -1.024738
      13A     -0.920534    14A     -0.876918    15A     -0.855036
      16A     -0.834484    17A     -0.791937    18A     -0.759715
      19A     -0.749017    20A     -0.736227    21A     -0.723595
      22A     -0.716805    23A     -0.709964    24A     -0.673908
      25A     -0.624260

  @DF-RHF Final Energy:  -287.65809066505062

   => Energetics <=

    Nuclear Repulsion Energy =            278.4014529343981508
    One-Electron Energy =                -932.3419621235428849
    Two-Electron Energy =                 366.2824185240940551
    Total Energy =                       -287.6580906650506222
  Basis Set: (AUG-CC-PVTZ AUX)
    Blend: AUG-CC-PVTZ-RI
    Molecular point group: c1

    Geometry (in Angstrom), charge = 1, multiplicity = 1:

       Center              X                  Y                   Z               Mass
    ------------   -----------------  -----------------  -----------------  -----------------
         O           -1.744458250301     0.053077855849    -0.869850534281    15.994914619570
         N            0.741905749699     0.010606855849    -0.172139534281    14.003074004430
         C           -0.234895250301    -0.704485144151     0.722906465719    12.000000000000
         C            0.987463749699     1.425334855849     0.250738465719    12.000000000000
         C            2.022435749699    -0.750333144151    -0.314563534281    12.000000000000
         C           -1.617926250301    -0.100288144151     0.542327465719    12.000000000000
         H            0.261564749699     0.046329855849    -1.086553534281     1.007825032230
         H           -0.239239250301    -1.747367144151     0.399456465719     1.007825032230
         H            0.128242749699    -0.641967144151     1.751698465719     1.007825032230
         H            1.396181749699     1.418816855849     1.261468465719     1.007825032230
         H            1.700693749699     1.873501855849    -0.440635534281     1.007825032230
         H            0.048747749699     1.974236855849     0.214901465719     1.007825032230
         H            2.496764749699    -0.814415144151     0.664882465719     1.007825032230
         H            1.864314249699    -1.720981944151    -0.783689434281     1.007825032230
         H            2.669882749699    -0.220048144151    -1.012545534281     1.007825032230
         H           -2.358014250301    -0.793801144151     0.956447465719     1.007825032230
         H           -1.717195250301     0.858119855849     1.064914465719     1.007825032230
         H           -2.651553250301     0.322983855849    -1.098388534281     1.007825032230

  Basis Set: AUG-CC-PVTZ
    Blend: AUG-CC-PVTZ
  Basis Set: (AUG-CC-PVTZ AUX)
    Blend: AUG-CC-PVTZ-JKFIT
	 Reference Energy          =    -287.6580906650506222 [Eh]
	 Singles Energy            =      -0.0000000000000000 [Eh]
	 Same-Spin Energy          =      -0.2850238795014399 [Eh]
	 Opposite-Spin Energy      =      -0.9994113876792926 [Eh]
	 Correlation Energy        =      -1.2844352671807324 [Eh]
	 Total Energy              =    -288.9425259322313764 [Eh]

	 ================> DF-SCS-MP2 Energies <==================
	-----------------------------------------------------------
	 SCS Same-Spin Scale       =       0.3333333333333333 [-]
	 SCS Opposite-Spin Scale   =       1.2000000000000000 [-]
	 SCS Same-Spin Energy      =      -0.0950079598338133 [Eh]
	 SCS Opposite-Spin Energy  =      -1.1992936652151511 [Eh]
	 SCS Correlation Energy    =      -1.2943016250489645 [Eh]
	 SCS Total Energy          =    -288.9523922900995672 [Eh]
	-----------------------------------------------------------

  Dipole Moment: [D]
     X:     1.3840      Y:     0.3108      Z:     0.6148     Total:     1.5459

*** Psi4 exiting successfully. Buy a developer a beer!
