                               Psi4 1.4a3.dev225

  ==> Input File <==

--------------------------------------------------------------------------
#psi4
#
memory 32 gb

molecule  {
1 1
  O       -1.7781010     0.0481890    -0.8899830
  N        0.7082630     0.0057180    -0.1922720
  C       -0.2685380    -0.7093740     0.7027740
  C        0.9538210     1.4204460     0.2306060
  C        1.9887930    -0.7552220    -0.3346960
  C       -1.6533435    -0.1030262     0.5023903
  H        0.2279220     0.0414410    -1.1066860
  H       -0.2728820    -1.7522560     0.3793240
  H        0.0946000    -0.6468560     1.7315660
  H        1.3625390     1.4139280     1.2413360
  H        1.6670510     1.8686130    -0.4607680
  H        0.0151050     1.9693480     0.1947690
  H        2.4631220    -0.8193040     0.6447500
  H        1.7659200    -1.7521810    -0.7136960
  H        2.6362400    -0.2249370    -1.0326780
  H       -2.3916570    -0.7986900     0.9363150
  H       -1.7508380     0.8532310     1.0447820
  H       -2.6851960     0.3180950    -1.1185210
units angstrom
no_reorient  #important for SAPT in psi4, default
symmetry c1  #important for SAPT in psi4, default
}

set PROPERTIES_ORIGIN ["COM"]
properties('MP2/aug-cc-pvtz', properties = ['dipole'])
--------------------------------------------------------------------------

    Molecular point group: c1
  Charge       = 1
  Multiplicity = 1
  Basis Set: AUG-CC-PVTZ
    Blend: AUG-CC-PVTZ
  Basis Set: (AUG-CC-PVTZ AUX)
    Blend: AUG-CC-PVTZ-JKFIT

    Orbital Energies [Eh]
    ---------------------

    Doubly Occupied:

       1A    -20.735184     2A    -15.855931     3A    -11.456570
       4A    -11.454401     5A    -11.449319     6A    -11.448917
       7A     -1.546896     8A     -1.487847     9A     -1.205095
      10A     -1.165854    11A     -1.092093    12A     -1.024613
      13A     -0.919306    14A     -0.879171    15A     -0.855515
      16A     -0.836815    17A     -0.792255    18A     -0.758491
      19A     -0.748655    20A     -0.739966    21A     -0.724966
      22A     -0.718408    23A     -0.712622    24A     -0.671011
      25A     -0.621615

  @DF-RHF Final Energy:  -287.65927738522112

   => Energetics <=

    Nuclear Repulsion Energy =            278.7188834102645387
    One-Electron Energy =                -932.9532853952329106
    Two-Electron Energy =                 366.5751245997472552
    Total Energy =                       -287.6592773852211167
  Basis Set: (AUG-CC-PVTZ AUX)
    Blend: AUG-CC-PVTZ-RI
    Molecular point group: c1

    Geometry (in Angstrom), charge = 1, multiplicity = 1:

       Center              X                  Y                   Z               Mass
    ------------   -----------------  -----------------  -----------------  -----------------
         O           -1.743497540258     0.053085697600    -0.868220806416    15.994914619570
         N            0.742866459742     0.010614697600    -0.170509806416    14.003074004430
         C           -0.233934540258    -0.704477302400     0.724536193584    12.000000000000
         C            0.988424459742     1.425342697600     0.252368193584    12.000000000000
         C            2.023396459742    -0.750325302400    -0.312933806416    12.000000000000
         C           -1.618740040258    -0.098129502400     0.524152493584    12.000000000000
         H            0.262525459742     0.046337697600    -1.084923806416     1.007825032230
         H           -0.238278540258    -1.747359302400     0.401086193584     1.007825032230
         H            0.129203459742    -0.641959302400     1.753328193584     1.007825032230
         H            1.397142459742     1.418824697600     1.263098193584     1.007825032230
         H            1.701654459742     1.873509697600    -0.439005806416     1.007825032230
         H            0.049708459742     1.974244697600     0.216531193584     1.007825032230
         H            2.497725459742    -0.814407302400     0.666512193584     1.007825032230
         H            1.800523459742    -1.747284302400    -0.691933806416     1.007825032230
         H            2.670843459742    -0.220040302400    -1.010915806416     1.007825032230
         H           -2.357053540258    -0.793793302400     0.958077193584     1.007825032230
         H           -1.716234540258     0.858127697600     1.066544193584     1.007825032230
         H           -2.650592540258     0.322991697600    -1.096758806416     1.007825032230

  Basis Set: AUG-CC-PVTZ
    Blend: AUG-CC-PVTZ
  Basis Set: (AUG-CC-PVTZ AUX)
    Blend: AUG-CC-PVTZ-JKFIT
	 Reference Energy          =    -287.6592773852211167 [Eh]
	 Singles Energy            =      -0.0000000000000000 [Eh]
	 Same-Spin Energy          =      -0.2850133713706486 [Eh]
	 Opposite-Spin Energy      =      -0.9991514560000853 [Eh]
	 Correlation Energy        =      -1.2841648273707338 [Eh]
	 Total Energy              =    -288.9434422125918331 [Eh]

	 ================> DF-SCS-MP2 Energies <==================
	-----------------------------------------------------------
	 SCS Same-Spin Scale       =       0.3333333333333333 [-]
	 SCS Opposite-Spin Scale   =       1.2000000000000000 [-]
	 SCS Same-Spin Energy      =      -0.0950044571235495 [Eh]
	 SCS Opposite-Spin Energy  =      -1.1989817472001023 [Eh]
	 SCS Correlation Energy    =      -1.2939862043236519 [Eh]
	 SCS Total Energy          =    -288.9532635895447470 [Eh]
	-----------------------------------------------------------

  Dipole Moment: [D]
     X:     1.3505      Y:     0.3130      Z:     0.6113     Total:     1.5151

*** Psi4 exiting successfully. Buy a developer a beer!
