                               Psi4 1.4a3.dev225

  ==> Input File <==

--------------------------------------------------------------------------
#psi4
#
memory 32 gb

molecule  {
1 1
  O       -1.7781010     0.0481890    -0.8899830
  N        0.7082630     0.0057180    -0.1922720
  C       -0.2685380    -0.7093740     0.7027740
  C        0.9538210     1.4204460     0.2306060
  C        1.9887930    -0.7552220    -0.3346960
  C       -1.6493499    -0.1178133     0.4707138
  H        0.2279220     0.0414410    -1.1066860
  H       -0.2728820    -1.7522560     0.3793240
  H        0.0946000    -0.6468560     1.7315660
  H        1.3625390     1.4139280     1.2413360
  H        1.6670510     1.8686130    -0.4607680
  H        0.0151050     1.9693480     0.1947690
  H        2.4631220    -0.8193040     0.6447500
  H        1.7659200    -1.7521810    -0.7136960
  H        2.6362400    -0.2249370    -1.0326780
  H       -2.3916570    -0.7986900     0.9363150
  H       -1.7508380     0.8532310     1.0447820
  H       -2.6851960     0.3180950    -1.1185210
units angstrom
no_reorient  #important for SAPT in psi4, default
symmetry c1  #important for SAPT in psi4, default
}

set PROPERTIES_ORIGIN ["COM"]
properties('MP2/aug-cc-pvtz', properties = ['dipole'])
--------------------------------------------------------------------------

    Molecular point group: c1
  Charge       = 1
  Multiplicity = 1
  Basis Set: AUG-CC-PVTZ
    Blend: AUG-CC-PVTZ
  Basis Set: (AUG-CC-PVTZ AUX)
    Blend: AUG-CC-PVTZ-JKFIT

    Orbital Energies [Eh]
    ---------------------

    Doubly Occupied:

       1A    -20.737884     2A    -15.855839     3A    -11.455978
       4A    -11.455179     5A    -11.449222     6A    -11.448618
       7A     -1.558468     8A     -1.488939     9A     -1.205318
      10A     -1.165675    11A     -1.090940    12A     -1.023864
      13A     -0.919684    14A     -0.884221    15A     -0.857268
      16A     -0.836703    17A     -0.792579    18A     -0.761340
      19A     -0.751715    20A     -0.740786    21A     -0.724723
      22A     -0.720586    23A     -0.713974    24A     -0.668168
      25A     -0.613921

  @DF-RHF Final Energy:  -287.65722667352952

   => Energetics <=

    Nuclear Repulsion Energy =            279.1473281839881224
    One-Electron Energy =                -933.7659237925869320
    Two-Electron Energy =                 366.9613689350692312
    Total Energy =                       -287.6572266735295216
  Basis Set: (AUG-CC-PVTZ AUX)
    Blend: AUG-CC-PVTZ-RI
    Molecular point group: c1

    Geometry (in Angstrom), charge = 1, multiplicity = 1:

       Center              X                  Y                   Z               Mass
    ------------   -----------------  -----------------  -----------------  -----------------
         O           -1.744029477156     0.055055299991    -0.864001580865    15.994914619570
         N            0.742334522844     0.012584299991    -0.166290580865    14.003074004430
         C           -0.234466477156    -0.702507700009     0.728755419135    12.000000000000
         C            0.987892522844     1.427312299991     0.256587419135    12.000000000000
         C            2.022864522844    -0.748355700009    -0.308714580865    12.000000000000
         C           -1.615278377156    -0.110947000009     0.496695219135    12.000000000000
         H            0.261993522844     0.048307299991    -1.080704580865     1.007825032230
         H           -0.238810477156    -1.745389700009     0.405305419135     1.007825032230
         H            0.128671522844    -0.639989700009     1.757547419135     1.007825032230
         H            1.396610522844     1.420794299991     1.267317419135     1.007825032230
         H            1.701122522844     1.875479299991    -0.434786580865     1.007825032230
         H            0.049176522844     1.976214299991     0.220750419135     1.007825032230
         H            2.497193522844    -0.812437700009     0.670731419135     1.007825032230
         H            1.799991522844    -1.745314700009    -0.687714580865     1.007825032230
         H            2.670311522844    -0.218070700009    -1.006696580865     1.007825032230
         H           -2.357585477156    -0.791823700009     0.962296419135     1.007825032230
         H           -1.716766477156     0.860097299991     1.070763419135     1.007825032230
         H           -2.651124477156     0.324961299991    -1.092539580865     1.007825032230

  Basis Set: AUG-CC-PVTZ
    Blend: AUG-CC-PVTZ
  Basis Set: (AUG-CC-PVTZ AUX)
    Blend: AUG-CC-PVTZ-JKFIT
	 Reference Energy          =    -287.6572266735295216 [Eh]
	 Singles Energy            =      -0.0000000000000000 [Eh]
	 Same-Spin Energy          =      -0.2850931023132953 [Eh]
	 Opposite-Spin Energy      =      -0.9988423386972611 [Eh]
	 Correlation Energy        =      -1.2839354410105566 [Eh]
	 Total Energy              =    -288.9411621145400773 [Eh]

	 ================> DF-SCS-MP2 Energies <==================
	-----------------------------------------------------------
	 SCS Same-Spin Scale       =       0.3333333333333333 [-]
	 SCS Opposite-Spin Scale   =       1.2000000000000000 [-]
	 SCS Same-Spin Energy      =      -0.0950310341044318 [Eh]
	 SCS Opposite-Spin Energy  =      -1.1986108064367134 [Eh]
	 SCS Correlation Energy    =      -1.2936418405411452 [Eh]
	 SCS Total Energy          =    -288.9508685140706916 [Eh]
	-----------------------------------------------------------

  Dipole Moment: [D]
     X:     1.3291      Y:     0.3045      Z:     0.5295     Total:     1.4627

*** Psi4 exiting successfully. Buy a developer a beer!
