                               Psi4 1.4a3.dev225

  ==> Input File <==

--------------------------------------------------------------------------
#psi4
#
memory 32 gb

molecule  {
1 1
  O       -1.7781010     0.0481890    -0.8899830
  N        0.7082630     0.0057180    -0.1922720
  C       -0.2685380    -0.7093740     0.7027740
  C        0.7983960     1.4398693     0.2268534
  C        1.9887930    -0.7552220    -0.3346960
  C       -1.6515690    -0.1051770     0.5221950
  H        0.2279220     0.0414410    -1.1066860
  H       -0.2728820    -1.7522560     0.3793240
  H        0.0946000    -0.6468560     1.7315660
  H        1.3625390     1.4139280     1.2413360
  H        1.6670510     1.8686130    -0.4607680
  H        0.0151050     1.9693480     0.1947690
  H        2.4631220    -0.8193040     0.6447500
  H        1.7659200    -1.7521810    -0.7136960
  H        2.6362400    -0.2249370    -1.0326780
  H       -2.3916570    -0.7986900     0.9363150
  H       -1.7508380     0.8532310     1.0447820
  H       -2.6851960     0.3180950    -1.1185210
units angstrom
no_reorient  #important for SAPT in psi4, default
symmetry c1  #important for SAPT in psi4, default
}

set PROPERTIES_ORIGIN ["COM"]
properties('MP2/aug-cc-pvtz', properties = ['dipole'])
--------------------------------------------------------------------------

    Molecular point group: c1
  Charge       = 1
  Multiplicity = 1
  Basis Set: AUG-CC-PVTZ
    Blend: AUG-CC-PVTZ
  Basis Set: (AUG-CC-PVTZ AUX)
    Blend: AUG-CC-PVTZ-JKFIT

    Orbital Energies [Eh]
    ---------------------

    Doubly Occupied:

       1A    -20.734064     2A    -15.857820     3A    -11.455860
       4A    -11.454831     5A    -11.453099     6A    -11.452750
       7A     -1.540917     8A     -1.487924     9A     -1.204990
      10A     -1.174610    11A     -1.091990    12A     -1.024723
      13A     -0.928804    14A     -0.875481    15A     -0.861684
      16A     -0.842557    17A     -0.791798    18A     -0.760106
      19A     -0.745850    20A     -0.741343    21A     -0.736248
      22A     -0.708341    23A     -0.688759    24A     -0.672083
      25A     -0.625431

  @DF-RHF Final Energy:  -287.62539500116281

   => Energetics <=

    Nuclear Repulsion Energy =            279.0659892475901529
    One-Electron Energy =                -933.5586420570914470
    Two-Electron Energy =                 366.8672578083385361
    Total Energy =                       -287.6253950011628149
  Basis Set: (AUG-CC-PVTZ AUX)
    Blend: AUG-CC-PVTZ-RI
    Molecular point group: c1

    Geometry (in Angstrom), charge = 1, multiplicity = 1:

       Center              X                  Y                   Z               Mass
    ------------   -----------------  -----------------  -----------------  -----------------
         O           -1.723031702320     0.050785046539    -0.870358903442    15.994914619570
         N            0.763332297680     0.008314046539    -0.172647903442    14.003074004430
         C           -0.213468702320    -0.706777953461     0.722398096558    12.000000000000
         C            0.853465297680     1.442465346539     0.246477496558    12.000000000000
         C            2.043862297680    -0.752625953461    -0.315071903442    12.000000000000
         C           -1.596499702320    -0.102580953461     0.541819096558    12.000000000000
         H            0.282991297680     0.044037046539    -1.087061903442     1.007825032230
         H           -0.217812702320    -1.749659953461     0.398948096558     1.007825032230
         H            0.149669297680    -0.644259953461     1.751190096558     1.007825032230
         H            1.417608297680     1.416524046539     1.260960096558     1.007825032230
         H            1.722120297680     1.871209046539    -0.441143903442     1.007825032230
         H            0.070174297680     1.971944046539     0.214393096558     1.007825032230
         H            2.518191297680    -0.816707953461     0.664374096558     1.007825032230
         H            1.820989297680    -1.749584953461    -0.694071903442     1.007825032230
         H            2.691309297680    -0.222340953461    -1.013053903442     1.007825032230
         H           -2.336587702320    -0.796093953461     0.955939096558     1.007825032230
         H           -1.695768702320     0.855827046539     1.064406096558     1.007825032230
         H           -2.630126702320     0.320691046539    -1.098896903442     1.007825032230

  Basis Set: AUG-CC-PVTZ
    Blend: AUG-CC-PVTZ
  Basis Set: (AUG-CC-PVTZ AUX)
    Blend: AUG-CC-PVTZ-JKFIT
	 Reference Energy          =    -287.6253950011628149 [Eh]
	 Singles Energy            =      -0.0000000000000000 [Eh]
	 Same-Spin Energy          =      -0.2856881881968875 [Eh]
	 Opposite-Spin Energy      =      -1.0011059194994214 [Eh]
	 Correlation Energy        =      -1.2867941076963090 [Eh]
	 Total Energy              =    -288.9121891088591383 [Eh]

	 ================> DF-SCS-MP2 Energies <==================
	-----------------------------------------------------------
	 SCS Same-Spin Scale       =       0.3333333333333333 [-]
	 SCS Opposite-Spin Scale   =       1.2000000000000000 [-]
	 SCS Same-Spin Energy      =      -0.0952293960656292 [Eh]
	 SCS Opposite-Spin Energy  =      -1.2013271033993056 [Eh]
	 SCS Correlation Energy    =      -1.2965564994649348 [Eh]
	 SCS Total Energy          =    -288.9219515006277561 [Eh]
	-----------------------------------------------------------

  Dipole Moment: [D]
     X:     1.4405      Y:     0.2283      Z:     0.6332     Total:     1.5900

*** Psi4 exiting successfully. Buy a developer a beer!
