                               Psi4 1.4a3.dev225

  ==> Input File <==

--------------------------------------------------------------------------
#psi4
#
memory 32 gb

molecule  {
1 1
  O       -1.7781010     0.0481890    -0.8899830
  N        0.7082630     0.0057180    -0.1922720
  C       -0.2685380    -0.7093740     0.7027740
  C        0.9538210     1.4204460     0.2306060
  C        1.9887930    -0.7552220    -0.3346960
  C       -1.6515690    -0.1051770     0.5221950
  H        0.2279220     0.0414410    -1.1066860
  H       -0.2728820    -1.7522560     0.3793240
  H        0.0946000    -0.6468560     1.7315660
  H        1.3625390     1.4139280     1.2413360
  H        1.6670510     1.8686130    -0.4607680
  H        0.0151050     1.9693480     0.1947690
  H        2.4631220    -0.8193040     0.6447500
  H        1.7659200    -1.7521810    -0.7136960
  H        2.6956521    -0.1762761    -1.0967274
  H       -2.3916570    -0.7986900     0.9363150
  H       -1.7508380     0.8532310     1.0447820
  H       -2.6851960     0.3180950    -1.1185210
units angstrom
no_reorient  #important for SAPT in psi4, default
symmetry c1  #important for SAPT in psi4, default
}

set PROPERTIES_ORIGIN ["COM"]
properties('MP2/aug-cc-pvtz', properties = ['dipole'])
--------------------------------------------------------------------------

    Molecular point group: c1
  Charge       = 1
  Multiplicity = 1
  Basis Set: AUG-CC-PVTZ
    Blend: AUG-CC-PVTZ
  Basis Set: (AUG-CC-PVTZ AUX)
    Blend: AUG-CC-PVTZ-JKFIT

    Orbital Energies [Eh]
    ---------------------

    Doubly Occupied:

       1A    -20.733292     2A    -15.856794     3A    -11.459579
       4A    -11.457471     5A    -11.454478     6A    -11.448847
       7A     -1.539794     8A     -1.487027     9A     -1.205716
      10A     -1.162784    11A     -1.088558    12A     -1.025074
      13A     -0.918023    14A     -0.877330    15A     -0.853167
      16A     -0.832011    17A     -0.792257    18A     -0.756299
      19A     -0.745497    20A     -0.730999    21A     -0.722376
      22A     -0.716075    23A     -0.710151    24A     -0.671921
      25A     -0.624527

  @DF-RHF Final Energy:  -287.65247406516710

   => Energetics <=

    Nuclear Repulsion Energy =            278.0967021763242997
    One-Electron Energy =                -931.7582594883283491
    Two-Electron Energy =                 366.0090832468370081
    Total Energy =                       -287.6524740651670982
  Basis Set: (AUG-CC-PVTZ AUX)
    Blend: AUG-CC-PVTZ-RI
    Molecular point group: c1

    Geometry (in Angstrom), charge = 1, multiplicity = 1:

       Center              X                  Y                   Z               Mass
    ------------   -----------------  -----------------  -----------------  -----------------
         O           -1.744398520385     0.052827826737    -0.870142242555    15.994914619570
         N            0.741965479615     0.010356826737    -0.172431242555    14.003074004430
         C           -0.234835520385    -0.704735173263     0.722614757445    12.000000000000
         C            0.987523479615     1.425084826737     0.250446757445    12.000000000000
         C            2.022495479615    -0.750583173263    -0.314855242555    12.000000000000
         C           -1.617866520385    -0.100538173263     0.542035757445    12.000000000000
         H            0.261624479615     0.046079826737    -1.086845242555     1.007825032230
         H           -0.239179520385    -1.747617173263     0.399164757445     1.007825032230
         H            0.128302479615    -0.642217173263     1.751406757445     1.007825032230
         H            1.396241479615     1.418566826737     1.261176757445     1.007825032230
         H            1.700753479615     1.873251826737    -0.440927242555     1.007825032230
         H            0.048807479615     1.973986826737     0.214609757445     1.007825032230
         H            2.496824479615    -0.814665173263     0.664590757445     1.007825032230
         H            1.799622479615    -1.747542173263    -0.693855242555     1.007825032230
         H            2.729354579615    -0.171637273263    -1.076886642555     1.007825032230
         H           -2.357954520385    -0.794051173263     0.956155757445     1.007825032230
         H           -1.717135520385     0.857869826737     1.064622757445     1.007825032230
         H           -2.651493520385     0.322733826737    -1.098680242555     1.007825032230

  Basis Set: AUG-CC-PVTZ
    Blend: AUG-CC-PVTZ
  Basis Set: (AUG-CC-PVTZ AUX)
    Blend: AUG-CC-PVTZ-JKFIT
	 Reference Energy          =    -287.6524740651670982 [Eh]
	 Singles Energy            =      -0.0000000000000000 [Eh]
	 Same-Spin Energy          =      -0.2851427447299631 [Eh]
	 Opposite-Spin Energy      =      -1.0002647518129151 [Eh]
	 Correlation Energy        =      -1.2854074965428781 [Eh]
	 Total Energy              =    -288.9378815617099576 [Eh]

	 ================> DF-SCS-MP2 Energies <==================
	-----------------------------------------------------------
	 SCS Same-Spin Scale       =       0.3333333333333333 [-]
	 SCS Opposite-Spin Scale   =       1.2000000000000000 [-]
	 SCS Same-Spin Energy      =      -0.0950475815766544 [Eh]
	 SCS Opposite-Spin Energy  =      -1.2003177021754980 [Eh]
	 SCS Correlation Energy    =      -1.2953652837521523 [Eh]
	 SCS Total Energy          =    -288.9478393489192740 [Eh]
	-----------------------------------------------------------

  Dipole Moment: [D]
     X:     1.3642      Y:     0.3079      Z:     0.6610     Total:     1.5469

*** Psi4 exiting successfully. Buy a developer a beer!
