                               Psi4 1.4a3.dev225

  ==> Input File <==

--------------------------------------------------------------------------
#psi4
#
memory 32 gb

molecule  {
1 1
  O       -1.7781010     0.0481890    -0.8899830
  N        0.7082630     0.0057180    -0.1922720
  C       -0.2685380    -0.7093740     0.7027740
  C        0.9538210     1.4204460     0.2306060
  C        1.9716776    -0.7450514    -0.3327924
  C       -1.6515690    -0.1051770     0.5221950
  H        0.2279220     0.0414410    -1.1066860
  H       -0.2728820    -1.7522560     0.3793240
  H        0.0946000    -0.6468560     1.7315660
  H        1.3625390     1.4139280     1.2413360
  H        1.6670510     1.8686130    -0.4607680
  H        0.0151050     1.9693480     0.1947690
  H        2.4631220    -0.8193040     0.6447500
  H        1.7659200    -1.7521810    -0.7136960
  H        2.6362400    -0.2249370    -1.0326780
  H       -2.3916570    -0.7986900     0.9363150
  H       -1.7508380     0.8532310     1.0447820
  H       -2.6851960     0.3180950    -1.1185210
units angstrom
no_reorient  #important for SAPT in psi4, default
symmetry c1  #important for SAPT in psi4, default
}

set PROPERTIES_ORIGIN ["COM"]
properties('MP2/aug-cc-pvtz', properties = ['dipole'])
--------------------------------------------------------------------------

    Molecular point group: c1
  Charge       = 1
  Multiplicity = 1
  Basis Set: AUG-CC-PVTZ
    Blend: AUG-CC-PVTZ
  Basis Set: (AUG-CC-PVTZ AUX)
    Blend: AUG-CC-PVTZ-JKFIT

    Orbital Energies [Eh]
    ---------------------

    Doubly Occupied:

       1A    -20.733551     2A    -15.857311     3A    -11.457617
       4A    -11.454606     5A    -11.449694     6A    -11.448935
       7A     -1.540463     8A     -1.491185     9A     -1.207762
      10A     -1.166892    11A     -1.092337    12A     -1.026042
      13A     -0.920886    14A     -0.878188    15A     -0.855141
      16A     -0.838629    17A     -0.793583    18A     -0.757372
      19A     -0.743854    20A     -0.738376    21A     -0.724250
      22A     -0.717810    23A     -0.711065    24A     -0.674357
      25A     -0.624786

  @DF-RHF Final Energy:  -287.65901213399286

   => Energetics <=

    Nuclear Repulsion Energy =            278.8687649243087776
    One-Electron Energy =                -933.2461723956218975
    Two-Electron Energy =                 366.7183953373202030
    Total Energy =                       -287.6590121339928601
  Basis Set: (AUG-CC-PVTZ AUX)
    Blend: AUG-CC-PVTZ-RI
    Molecular point group: c1

    Geometry (in Angstrom), charge = 1, multiplicity = 1:

       Center              X                  Y                   Z               Mass
    ------------   -----------------  -----------------  -----------------  -----------------
         O           -1.741454173180     0.052017481570    -0.871112294238    15.994914619570
         N            0.744909826820     0.009546481570    -0.173401294238    14.003074004430
         C           -0.231891173180    -0.705545518430     0.721644705762    12.000000000000
         C            0.990467826820     1.424274481570     0.249476705762    12.000000000000
         C            2.008324426820    -0.741222918430    -0.313921694238    12.000000000000
         C           -1.614922173180    -0.101348518430     0.541065705762    12.000000000000
         H            0.264568826820     0.045269481570    -1.087815294238     1.007825032230
         H           -0.236235173180    -1.748427518430     0.398194705762     1.007825032230
         H            0.131246826820    -0.643027518430     1.750436705762     1.007825032230
         H            1.399185826820     1.417756481570     1.260206705762     1.007825032230
         H            1.703697826820     1.872441481570    -0.441897294238     1.007825032230
         H            0.051751826820     1.973176481570     0.213639705762     1.007825032230
         H            2.499768826820    -0.815475518430     0.663620705762     1.007825032230
         H            1.802566826820    -1.748352518430    -0.694825294238     1.007825032230
         H            2.672886826820    -0.221108518430    -1.013807294238     1.007825032230
         H           -2.355010173180    -0.794861518430     0.955185705762     1.007825032230
         H           -1.714191173180     0.857059481570     1.063652705762     1.007825032230
         H           -2.648549173180     0.321923481570    -1.099650294238     1.007825032230

  Basis Set: AUG-CC-PVTZ
    Blend: AUG-CC-PVTZ
  Basis Set: (AUG-CC-PVTZ AUX)
    Blend: AUG-CC-PVTZ-JKFIT
	 Reference Energy          =    -287.6590121339928601 [Eh]
	 Singles Energy            =      -0.0000000000000000 [Eh]
	 Same-Spin Energy          =      -0.2851599990103020 [Eh]
	 Opposite-Spin Energy      =      -0.9994085349759118 [Eh]
	 Correlation Energy        =      -1.2845685339862136 [Eh]
	 Total Energy              =    -288.9435806679790630 [Eh]

	 ================> DF-SCS-MP2 Energies <==================
	-----------------------------------------------------------
	 SCS Same-Spin Scale       =       0.3333333333333333 [-]
	 SCS Opposite-Spin Scale   =       1.2000000000000000 [-]
	 SCS Same-Spin Energy      =      -0.0950533330034340 [Eh]
	 SCS Opposite-Spin Energy  =      -1.1992902419710940 [Eh]
	 SCS Correlation Energy    =      -1.2943435749745280 [Eh]
	 SCS Total Energy          =    -288.9533557089673650 [Eh]
	-----------------------------------------------------------

  Dipole Moment: [D]
     X:     1.3412      Y:     0.3233      Z:     0.6683     Total:     1.5330

*** Psi4 exiting successfully. Buy a developer a beer!
