                               Psi4 1.4a3.dev225

  ==> Input File <==

--------------------------------------------------------------------------
#psi4
#
memory 32 gb

molecule  {
1 1
  O       -1.7781010     0.0481890    -0.8899830
  N        0.7082630     0.0057180    -0.1922720
  C       -0.2685380    -0.7093740     0.7027740
  C        0.9538210     1.4204460     0.2306060
  C        1.9887930    -0.7552220    -0.3346960
  C       -1.6515690    -0.1051770     0.5221950
  H        0.2279220     0.0414410    -1.1066860
  H       -0.2728820    -1.7522560     0.3793240
  H        0.0946000    -0.6468560     1.7315660
  H        1.3625390     1.4139280     1.2413360
  H        1.6670510     1.8686130    -0.4607680
  H        0.0151050     1.9693480     0.1947690
  H        2.4631220    -0.8193040     0.6447500
  H        1.7448445    -1.7585346    -0.6826811
  H        2.6362400    -0.2249370    -1.0326780
  H       -2.3916570    -0.7986900     0.9363150
  H       -1.7508380     0.8532310     1.0447820
  H       -2.6851960     0.3180950    -1.1185210
units angstrom
no_reorient  #important for SAPT in psi4, default
symmetry c1  #important for SAPT in psi4, default
}

set PROPERTIES_ORIGIN ["COM"]
properties('MP2/aug-cc-pvtz', properties = ['dipole'])
--------------------------------------------------------------------------

    Molecular point group: c1
  Charge       = 1
  Multiplicity = 1
  Basis Set: AUG-CC-PVTZ
    Blend: AUG-CC-PVTZ
  Basis Set: (AUG-CC-PVTZ AUX)
    Blend: AUG-CC-PVTZ-JKFIT

    Orbital Energies [Eh]
    ---------------------

    Doubly Occupied:

       1A    -20.733155     2A    -15.855985     3A    -11.457144
       4A    -11.454232     5A    -11.449735     6A    -11.449009
       7A     -1.539652     8A     -1.487139     9A     -1.206677
      10A     -1.166266    11A     -1.092892    12A     -1.025009
      13A     -0.918658    14A     -0.877219    15A     -0.853096
      16A     -0.838326    17A     -0.792058    18A     -0.757405
      19A     -0.745015    20A     -0.741060    21A     -0.724872
      22A     -0.717265    23A     -0.711978    24A     -0.674135
      25A     -0.624395

  @DF-RHF Final Energy:  -287.65921286885839

   => Energetics <=

    Nuclear Repulsion Energy =            278.5535569847197053
    One-Electron Energy =                -932.6407833494156421
    Two-Electron Energy =                 366.4280134958374902
    Total Energy =                       -287.6592128688583898
  Basis Set: (AUG-CC-PVTZ AUX)
    Blend: AUG-CC-PVTZ-RI
    Molecular point group: c1

    Geometry (in Angstrom), charge = 1, multiplicity = 1:

       Center              X                  Y                   Z               Mass
    ------------   -----------------  -----------------  -----------------  -----------------
         O           -1.743498135023     0.053443253840    -0.871205692131    15.994914619570
         N            0.742865864977     0.010972253840    -0.173494692131    14.003074004430
         C           -0.233935135023    -0.704119746160     0.721551307869    12.000000000000
         C            0.988423864977     1.425700253840     0.249383307869    12.000000000000
         C            2.023395864977    -0.749967746160    -0.315918692131    12.000000000000
         C           -1.616966135023    -0.099922746160     0.540972307869    12.000000000000
         H            0.262524864977     0.046695253840    -1.087908692131     1.007825032230
         H           -0.238279135023    -1.747001746160     0.398101307869     1.007825032230
         H            0.129202864977    -0.641601746160     1.750343307869     1.007825032230
         H            1.397141864977     1.419182253840     1.260113307869     1.007825032230
         H            1.701653864977     1.873867253840    -0.441990692131     1.007825032230
         H            0.049707864977     1.974602253840     0.213546307869     1.007825032230
         H            2.497724864977    -0.814049746160     0.663527307869     1.007825032230
         H            1.779447364977    -1.753280346160    -0.663903792131     1.007825032230
         H            2.670842864977    -0.219682746160    -1.013900692131     1.007825032230
         H           -2.357054135023    -0.793435746160     0.955092307869     1.007825032230
         H           -1.716235135023     0.858485253840     1.063559307869     1.007825032230
         H           -2.650593135023     0.323349253840    -1.099743692131     1.007825032230

  Basis Set: AUG-CC-PVTZ
    Blend: AUG-CC-PVTZ
  Basis Set: (AUG-CC-PVTZ AUX)
    Blend: AUG-CC-PVTZ-JKFIT
	 Reference Energy          =    -287.6592128688583898 [Eh]
	 Singles Energy            =      -0.0000000000000000 [Eh]
	 Same-Spin Energy          =      -0.2850403335730792 [Eh]
	 Opposite-Spin Energy      =      -0.9994530699008366 [Eh]
	 Correlation Energy        =      -1.2844934034739159 [Eh]
	 Total Energy              =    -288.9437062723322924 [Eh]

	 ================> DF-SCS-MP2 Energies <==================
	-----------------------------------------------------------
	 SCS Same-Spin Scale       =       0.3333333333333333 [-]
	 SCS Opposite-Spin Scale   =       1.2000000000000000 [-]
	 SCS Same-Spin Energy      =      -0.0950134445243597 [Eh]
	 SCS Opposite-Spin Energy  =      -1.1993436838810039 [Eh]
	 SCS Correlation Energy    =      -1.2943571284053637 [Eh]
	 SCS Total Energy          =    -288.9535699972637417 [Eh]
	-----------------------------------------------------------

  Dipole Moment: [D]
     X:     1.3647      Y:     0.3094      Z:     0.6777     Total:     1.5548

*** Psi4 exiting successfully. Buy a developer a beer!
