                               Psi4 1.4a3.dev225

  ==> Input File <==

--------------------------------------------------------------------------
#psi4
#
memory 32 gb

molecule  {
1 1
  O       -1.7781010     0.0481890    -0.8899830
  N        0.7082630     0.0057180    -0.1922720
  C       -0.2685380    -0.7093740     0.7027740
  C        0.9538210     1.4204460     0.2306060
  C        1.9887930    -0.7552220    -0.3346960
  C       -1.6515690    -0.1051770     0.5221950
  H        0.2279220     0.0414410    -1.1066860
  H       -0.2728820    -1.7522560     0.3793240
  H        0.0946000    -0.6468560     1.7315660
  H        1.3625390     1.4139280     1.2413360
  H        1.6670510     1.8686130    -0.4607680
  H        0.0151050     1.9693480     0.1947690
  H        2.4413666    -0.8163648     0.5998271
  H        1.7659200    -1.7521810    -0.7136960
  H        2.6362400    -0.2249370    -1.0326780
  H       -2.3916570    -0.7986900     0.9363150
  H       -1.7508380     0.8532310     1.0447820
  H       -2.6851960     0.3180950    -1.1185210
units angstrom
no_reorient  #important for SAPT in psi4, default
symmetry c1  #important for SAPT in psi4, default
}

set PROPERTIES_ORIGIN ["COM"]
properties('MP2/aug-cc-pvtz', properties = ['dipole'])
--------------------------------------------------------------------------

    Molecular point group: c1
  Charge       = 1
  Multiplicity = 1
  Basis Set: AUG-CC-PVTZ
    Blend: AUG-CC-PVTZ
  Basis Set: (AUG-CC-PVTZ AUX)
    Blend: AUG-CC-PVTZ-JKFIT

    Orbital Energies [Eh]
    ---------------------

    Doubly Occupied:

       1A    -20.733119     2A    -15.855935     3A    -11.457084
       4A    -11.454202     5A    -11.449156     6A    -11.444112
       7A     -1.539617     8A     -1.487223     9A     -1.207201
      10A     -1.168476    11A     -1.095908    12A     -1.025196
      13A     -0.919069    14A     -0.878688    15A     -0.853649
      16A     -0.837429    17A     -0.793772    18A     -0.761668
      19A     -0.749863    20A     -0.739439    21A     -0.725350
      22A     -0.717920    23A     -0.711883    24A     -0.674326
      25A     -0.624364

  @DF-RHF Final Energy:  -287.65838932489640

   => Energetics <=

    Nuclear Repulsion Energy =            278.7349326916914833
    One-Electron Energy =                -932.9773432917443188
    Two-Electron Energy =                 366.5840212751564309
    Total Energy =                       -287.6583893248964046
  Basis Set: (AUG-CC-PVTZ AUX)
    Blend: AUG-CC-PVTZ-RI
    Molecular point group: c1

    Geometry (in Angstrom), charge = 1, multiplicity = 1:

       Center              X                  Y                   Z               Mass
    ------------   -----------------  -----------------  -----------------  -----------------
         O           -1.743490529230     0.053339298683    -0.870356203719    15.994914619570
         N            0.742873470770     0.010868298683    -0.172645203719    14.003074004430
         C           -0.233927529230    -0.704223701317     0.722400796281    12.000000000000
         C            0.988431470770     1.425596298683     0.250232796281    12.000000000000
         C            2.023403470770    -0.750071701317    -0.315069203719    12.000000000000
         C           -1.616958529230    -0.100026701317     0.541821796281    12.000000000000
         H            0.262532470770     0.046591298683    -1.087059203719     1.007825032230
         H           -0.238271529230    -1.747105701317     0.398950796281     1.007825032230
         H            0.129210470770    -0.641705701317     1.751192796281     1.007825032230
         H            1.397149470770     1.419078298683     1.260962796281     1.007825032230
         H            1.701661470770     1.873763298683    -0.441141203719     1.007825032230
         H            0.049715470770     1.974498298683     0.214395796281     1.007825032230
         H            2.475977070770    -0.811214501317     0.619453896281     1.007825032230
         H            1.800530470770    -1.747030701317    -0.694069203719     1.007825032230
         H            2.670850470770    -0.219786701317    -1.013051203719     1.007825032230
         H           -2.357046529230    -0.793539701317     0.955941796281     1.007825032230
         H           -1.716227529230     0.858381298683     1.064408796281     1.007825032230
         H           -2.650585529230     0.323245298683    -1.098894203719     1.007825032230

  Basis Set: AUG-CC-PVTZ
    Blend: AUG-CC-PVTZ
  Basis Set: (AUG-CC-PVTZ AUX)
    Blend: AUG-CC-PVTZ-JKFIT
	 Reference Energy          =    -287.6583893248964046 [Eh]
	 Singles Energy            =      -0.0000000000000000 [Eh]
	 Same-Spin Energy          =      -0.2849736352856001 [Eh]
	 Opposite-Spin Energy      =      -0.9991039053136066 [Eh]
	 Correlation Energy        =      -1.2840775405992066 [Eh]
	 Total Energy              =    -288.9424668654955894 [Eh]

	 ================> DF-SCS-MP2 Energies <==================
	-----------------------------------------------------------
	 SCS Same-Spin Scale       =       0.3333333333333333 [-]
	 SCS Opposite-Spin Scale   =       1.2000000000000000 [-]
	 SCS Same-Spin Energy      =      -0.0949912117618667 [Eh]
	 SCS Opposite-Spin Energy  =      -1.1989246863763279 [Eh]
	 SCS Correlation Energy    =      -1.2939158981381946 [Eh]
	 SCS Total Energy          =    -288.9523052230346138 [Eh]
	-----------------------------------------------------------

  Dipole Moment: [D]
     X:     1.3664      Y:     0.3100      Z:     0.6615     Total:     1.5494

*** Psi4 exiting successfully. Buy a developer a beer!
