                               Psi4 1.4a3.dev225

  ==> Input File <==

--------------------------------------------------------------------------
#psi4
#
memory 32 gb

molecule  {
1 1
  O       -1.7781010     0.0481890    -0.8899830
  N        0.7082630     0.0057180    -0.1922720
  C       -0.2685380    -0.7093740     0.7027740
  C        0.9538210     1.4204460     0.2306060
  C        1.9887930    -0.7552220    -0.3346960
  C       -1.6515690    -0.1051770     0.5221950
  H        0.2279220     0.0414410    -1.1066860
  H       -0.2728820    -1.7522560     0.3793240
  H        0.0946000    -0.6468560     1.7315660
  H        1.3919829     1.3934688     1.2285812
  H        1.6670510     1.8686130    -0.4607680
  H        0.0151050     1.9693480     0.1947690
  H        2.4631220    -0.8193040     0.6447500
  H        1.7659200    -1.7521810    -0.7136960
  H        2.6362400    -0.2249370    -1.0326780
  H       -2.3916570    -0.7986900     0.9363150
  H       -1.7508380     0.8532310     1.0447820
  H       -2.6851960     0.3180950    -1.1185210
units angstrom
no_reorient  #important for SAPT in psi4, default
symmetry c1  #important for SAPT in psi4, default
}

set PROPERTIES_ORIGIN ["COM"]
properties('MP2/aug-cc-pvtz', properties = ['dipole'])
--------------------------------------------------------------------------

    Molecular point group: c1
  Charge       = 1
  Multiplicity = 1
  Basis Set: AUG-CC-PVTZ
    Blend: AUG-CC-PVTZ
  Basis Set: (AUG-CC-PVTZ AUX)
    Blend: AUG-CC-PVTZ-JKFIT

    Orbital Energies [Eh]
    ---------------------

    Doubly Occupied:

       1A    -20.733149     2A    -15.855933     3A    -11.456959
       4A    -11.454137     5A    -11.449603     6A    -11.449295
       7A     -1.539636     8A     -1.487107     9A     -1.206681
      10A     -1.166007    11A     -1.093109    12A     -1.024844
      13A     -0.919068    14A     -0.877056    15A     -0.854040
      16A     -0.836527    17A     -0.792077    18A     -0.757520
      19A     -0.746578    20A     -0.739706    21A     -0.724950
      22A     -0.717590    23A     -0.711678    24A     -0.673967
      25A     -0.624357

  @DF-RHF Final Energy:  -287.65920037482476

   => Energetics <=

    Nuclear Repulsion Energy =            278.5331841630133454
    One-Electron Energy =                -932.6016144311068956
    Two-Electron Energy =                 366.4092298932688436
    Total Energy =                       -287.6592003748247635
  Basis Set: (AUG-CC-PVTZ AUX)
    Blend: AUG-CC-PVTZ-RI
    Molecular point group: c1

    Geometry (in Angstrom), charge = 1, multiplicity = 1:

       Center              X                  Y                   Z               Mass
    ------------   -----------------  -----------------  -----------------  -----------------
         O           -1.744063277085     0.053601048032    -0.870716056496    15.994914619570
         N            0.742300722915     0.011130048032    -0.173005056496    14.003074004430
         C           -0.234500277085    -0.703961951968     0.722040943504    12.000000000000
         C            0.987858722915     1.425858048032     0.249872943504    12.000000000000
         C            2.022830722915    -0.749809951968    -0.315429056496    12.000000000000
         C           -1.617531277085    -0.099764951968     0.541461943504    12.000000000000
         H            0.261959722915     0.046853048032    -1.087419056496     1.007825032230
         H           -0.238844277085    -1.746843951968     0.398590943504     1.007825032230
         H            0.128637722915    -0.641443951968     1.750832943504     1.007825032230
         H            1.426020622915     1.398880848032     1.247848143504     1.007825032230
         H            1.701088722915     1.874025048032    -0.441501056496     1.007825032230
         H            0.049142722915     1.974760048032     0.214035943504     1.007825032230
         H            2.497159722915    -0.813891951968     0.664016943504     1.007825032230
         H            1.799957722915    -1.746768951968    -0.694429056496     1.007825032230
         H            2.670277722915    -0.219524951968    -1.013411056496     1.007825032230
         H           -2.357619277085    -0.793277951968     0.955581943504     1.007825032230
         H           -1.716800277085     0.858643048032     1.064048943504     1.007825032230
         H           -2.651158277085     0.323507048032    -1.099254056496     1.007825032230

  Basis Set: AUG-CC-PVTZ
    Blend: AUG-CC-PVTZ
  Basis Set: (AUG-CC-PVTZ AUX)
    Blend: AUG-CC-PVTZ-JKFIT
	 Reference Energy          =    -287.6592003748247635 [Eh]
	 Singles Energy            =      -0.0000000000000000 [Eh]
	 Same-Spin Energy          =      -0.2850405389091947 [Eh]
	 Opposite-Spin Energy      =      -0.9994480506943973 [Eh]
	 Correlation Energy        =      -1.2844885896035920 [Eh]
	 Total Energy              =    -288.9436889644283610 [Eh]

	 ================> DF-SCS-MP2 Energies <==================
	-----------------------------------------------------------
	 SCS Same-Spin Scale       =       0.3333333333333333 [-]
	 SCS Opposite-Spin Scale   =       1.2000000000000000 [-]
	 SCS Same-Spin Energy      =      -0.0950135129697316 [Eh]
	 SCS Opposite-Spin Energy  =      -1.1993376608332769 [Eh]
	 SCS Correlation Energy    =      -1.2943511738030085 [Eh]
	 SCS Total Energy          =    -288.9535515486277859 [Eh]
	-----------------------------------------------------------

  Dipole Moment: [D]
     X:     1.3791      Y:     0.3048      Z:     0.6523     Total:     1.5558

*** Psi4 exiting successfully. Buy a developer a beer!
