                               Psi4 1.4a3.dev225

  ==> Input File <==

--------------------------------------------------------------------------
#psi4
#
memory 32 gb

molecule  {
1 1
  O       -1.7781010     0.0481890    -0.8899830
  N        0.7082630     0.0057180    -0.1922720
  C       -0.2685380    -0.7093740     0.7027740
  C        0.9538210     1.4204460     0.2306060
  C        1.9887930    -0.7552220    -0.3346960
  C       -1.6515690    -0.1051770     0.5221950
  H        0.2279220     0.0414410    -1.1066860
  H       -0.2728820    -1.7522560     0.3793240
  H        0.0946000    -0.6468560     1.7315660
  H        1.3625390     1.4139280     1.2413360
  H        1.6670510     1.8686130    -0.4607680
  H        0.0151050     1.9693480     0.1947690
  H        2.4631220    -0.8193040     0.6447500
  H        1.7863745    -1.6606838    -0.6789128
  H        2.6362400    -0.2249370    -1.0326780
  H       -2.3916570    -0.7986900     0.9363150
  H       -1.7508380     0.8532310     1.0447820
  H       -2.6851960     0.3180950    -1.1185210
units angstrom
no_reorient  #important for SAPT in psi4, default
symmetry c1  #important for SAPT in psi4, default
}

set PROPERTIES_ORIGIN ["COM"]
properties('MP2/aug-cc-pvtz', properties = ['dipole'])
--------------------------------------------------------------------------

    Molecular point group: c1
  Charge       = 1
  Multiplicity = 1
  Basis Set: AUG-CC-PVTZ
    Blend: AUG-CC-PVTZ
  Basis Set: (AUG-CC-PVTZ AUX)
    Blend: AUG-CC-PVTZ-JKFIT

    Orbital Energies [Eh]
    ---------------------

    Doubly Occupied:

       1A    -20.733212     2A    -15.855844     3A    -11.457308
       4A    -11.454308     5A    -11.448756     6A    -11.438726
       7A     -1.539729     8A     -1.487444     9A     -1.207793
      10A     -1.173008    11A     -1.096597    12A     -1.025046
      13A     -0.922852    14A     -0.877636    15A     -0.857459
      16A     -0.839229    17A     -0.792654    18A     -0.758752
      19A     -0.751970    20A     -0.742348    21A     -0.730521
      22A     -0.717090    23A     -0.712770    24A     -0.674146
      25A     -0.624447

  @DF-RHF Final Energy:  -287.65324455302232

   => Energetics <=

    Nuclear Repulsion Energy =            278.9695517579538091
    One-Electron Energy =                -933.4063030450877250
    Two-Electron Energy =                 366.7835067341115973
    Total Energy =                       -287.6532445530223185
  Basis Set: (AUG-CC-PVTZ AUX)
    Blend: AUG-CC-PVTZ-RI
    Molecular point group: c1

    Geometry (in Angstrom), charge = 1, multiplicity = 1:

       Center              X                  Y                   Z               Mass
    ------------   -----------------  -----------------  -----------------  -----------------
         O           -1.743962715953     0.052348632707    -0.871247846726    15.994914619570
         N            0.742401284047     0.009877632707    -0.173536846726    14.003074004430
         C           -0.234399715953    -0.705214367293     0.721509153274    12.000000000000
         C            0.987959284047     1.424605632707     0.249341153274    12.000000000000
         C            2.022931284047    -0.751062367293    -0.315960846726    12.000000000000
         C           -1.617430715953    -0.101017367293     0.540930153274    12.000000000000
         H            0.262060284047     0.045600632707    -1.087950846726     1.007825032230
         H           -0.238743715953    -1.748096367293     0.398059153274     1.007825032230
         H            0.128738284047    -0.642696367293     1.750301153274     1.007825032230
         H            1.396677284047     1.418087632707     1.260071153274     1.007825032230
         H            1.701189284047     1.872772632707    -0.442032846726     1.007825032230
         H            0.049243284047     1.973507632707     0.213504153274     1.007825032230
         H            2.497260284047    -0.815144367293     0.663485153274     1.007825032230
         H            1.820512784047    -1.656524167293    -0.660177646726     1.007825032230
         H            2.670378284047    -0.220777367293    -1.013942846726     1.007825032230
         H           -2.357518715953    -0.794530367293     0.955050153274     1.007825032230
         H           -1.716699715953     0.857390632707     1.063517153274     1.007825032230
         H           -2.651057715953     0.322254632707    -1.099785846726     1.007825032230

  Basis Set: AUG-CC-PVTZ
    Blend: AUG-CC-PVTZ
  Basis Set: (AUG-CC-PVTZ AUX)
    Blend: AUG-CC-PVTZ-JKFIT
	 Reference Energy          =    -287.6532445530223185 [Eh]
	 Singles Energy            =      -0.0000000000000000 [Eh]
	 Same-Spin Energy          =      -0.2849362506683721 [Eh]
	 Opposite-Spin Energy      =      -0.9988302552402818 [Eh]
	 Correlation Energy        =      -1.2837665059086538 [Eh]
	 Total Energy              =    -288.9370110589309775 [Eh]

	 ================> DF-SCS-MP2 Energies <==================
	-----------------------------------------------------------
	 SCS Same-Spin Scale       =       0.3333333333333333 [-]
	 SCS Opposite-Spin Scale   =       1.2000000000000000 [-]
	 SCS Same-Spin Energy      =      -0.0949787502227907 [Eh]
	 SCS Opposite-Spin Energy  =      -1.1985963062883380 [Eh]
	 SCS Correlation Energy    =      -1.2935750565111288 [Eh]
	 SCS Total Energy          =    -288.9468196095334633 [Eh]
	-----------------------------------------------------------

  Dipole Moment: [D]
     X:     1.3660      Y:     0.3126      Z:     0.6663     Total:     1.5516

*** Psi4 exiting successfully. Buy a developer a beer!
