                               Psi4 1.4a3.dev225

  ==> Input File <==

--------------------------------------------------------------------------
#psi4
#
memory 32 gb

molecule  {
1 1
  O       -1.7781010     0.0481890    -0.8899830
  N        0.7082630     0.0057180    -0.1922720
  C       -0.2795520    -0.7305339     0.7143814
  C        0.9538210     1.4204460     0.2306060
  C        1.9887930    -0.7552220    -0.3346960
  C       -1.6515690    -0.1051770     0.5221950
  H        0.2279220     0.0414410    -1.1066860
  H       -0.2728820    -1.7522560     0.3793240
  H        0.0946000    -0.6468560     1.7315660
  H        1.3625390     1.4139280     1.2413360
  H        1.6670510     1.8686130    -0.4607680
  H        0.0151050     1.9693480     0.1947690
  H        2.4631220    -0.8193040     0.6447500
  H        1.7659200    -1.7521810    -0.7136960
  H        2.6362400    -0.2249370    -1.0326780
  H       -2.3916570    -0.7986900     0.9363150
  H       -1.7508380     0.8532310     1.0447820
  H       -2.6851960     0.3180950    -1.1185210
units angstrom
no_reorient  #important for SAPT in psi4, default
symmetry c1  #important for SAPT in psi4, default
}

set PROPERTIES_ORIGIN ["COM"]
properties('MP2/aug-cc-pvtz', properties = ['dipole'])
--------------------------------------------------------------------------

    Molecular point group: c1
  Charge       = 1
  Multiplicity = 1
  Basis Set: AUG-CC-PVTZ
    Blend: AUG-CC-PVTZ
  Basis Set: (AUG-CC-PVTZ AUX)
    Blend: AUG-CC-PVTZ-JKFIT

    Orbital Energies [Eh]
    ---------------------

    Doubly Occupied:

       1A    -20.733531     2A    -15.854439     3A    -11.457991
       4A    -11.454696     5A    -11.448512     6A    -11.448338
       7A     -1.539099     8A     -1.482436     9A     -1.207324
      10A     -1.164711    11A     -1.090938    12A     -1.025206
      13A     -0.917970    14A     -0.876379    15A     -0.853515
      16A     -0.835331    17A     -0.791990    18A     -0.758125
      19A     -0.745822    20A     -0.739103    21A     -0.724445
      22A     -0.717536    23A     -0.714703    24A     -0.673005
      25A     -0.625145

  @DF-RHF Final Energy:  -287.65879396885845

   => Energetics <=

    Nuclear Repulsion Energy =            278.1308404156557685
    One-Electron Energy =                -931.8186880003579518
    Two-Electron Energy =                 366.0290536158437931
    Total Energy =                       -287.6587939688584470
  Basis Set: (AUG-CC-PVTZ AUX)
    Blend: AUG-CC-PVTZ-RI
    Molecular point group: c1

    Geometry (in Angstrom), charge = 1, multiplicity = 1:

       Center              X                  Y                   Z               Mass
    ------------   -----------------  -----------------  -----------------  -----------------
         O           -1.742266863432     0.056190620841    -0.872404814589    15.994914619570
         N            0.744097136568     0.013719620841    -0.174693814589    14.003074004430
         C           -0.243717863432    -0.722532279159     0.731959585411    12.000000000000
         C            0.989655136568     1.428447620841     0.248184185411    12.000000000000
         C            2.024627136568    -0.747220379159    -0.317117814589    12.000000000000
         C           -1.615734863432    -0.097175379159     0.539773185411    12.000000000000
         H            0.263756136568     0.049442620841    -1.089107814589     1.007825032230
         H           -0.237047863432    -1.744254379159     0.396902185411     1.007825032230
         H            0.130434136568    -0.638854379159     1.749144185411     1.007825032230
         H            1.398373136568     1.421929620841     1.258914185411     1.007825032230
         H            1.702885136568     1.876614620841    -0.443189814589     1.007825032230
         H            0.050939136568     1.977349620841     0.212347185411     1.007825032230
         H            2.498956136568    -0.811302379159     0.662328185411     1.007825032230
         H            1.801754136568    -1.744179379159    -0.696117814589     1.007825032230
         H            2.672074136568    -0.216935379159    -1.015099814589     1.007825032230
         H           -2.355822863432    -0.790688379159     0.953893185411     1.007825032230
         H           -1.715003863432     0.861232620841     1.062360185411     1.007825032230
         H           -2.649361863432     0.326096620841    -1.100942814589     1.007825032230

  Basis Set: AUG-CC-PVTZ
    Blend: AUG-CC-PVTZ
  Basis Set: (AUG-CC-PVTZ AUX)
    Blend: AUG-CC-PVTZ-JKFIT
	 Reference Energy          =    -287.6587939688584470 [Eh]
	 Singles Energy            =      -0.0000000000000000 [Eh]
	 Same-Spin Energy          =      -0.2848826140863059 [Eh]
	 Opposite-Spin Energy      =      -0.9994281118879853 [Eh]
	 Correlation Energy        =      -1.2843107259742912 [Eh]
	 Total Energy              =    -288.9431046948327548 [Eh]

	 ================> DF-SCS-MP2 Energies <==================
	-----------------------------------------------------------
	 SCS Same-Spin Scale       =       0.3333333333333333 [-]
	 SCS Opposite-Spin Scale   =       1.2000000000000000 [-]
	 SCS Same-Spin Energy      =      -0.0949608713621020 [Eh]
	 SCS Opposite-Spin Energy  =      -1.1993137342655824 [Eh]
	 SCS Correlation Energy    =      -1.2942746056276844 [Eh]
	 SCS Total Energy          =    -288.9530685744861103 [Eh]
	-----------------------------------------------------------

  Dipole Moment: [D]
     X:     1.3344      Y:     0.2944      Z:     0.6804     Total:     1.5265

*** Psi4 exiting successfully. Buy a developer a beer!
