                               Psi4 1.4a3.dev225

  ==> Input File <==

--------------------------------------------------------------------------
#psi4
#
memory 32 gb

molecule  {
1 1
  O       -1.7781010     0.0481890    -0.8899830
  N        0.7082630     0.0057180    -0.1922720
  C       -0.2685380    -0.7093740     0.7027740
  C        0.9538210     1.4204460     0.2306060
  C        1.9887930    -0.7552220    -0.3346960
  C       -1.6515690    -0.1051770     0.5221950
  H        0.2279220     0.0414410    -1.1066860
  H       -0.2728820    -1.7522560     0.3793240
  H        0.0946000    -0.6468560     1.7315660
  H        1.3625390     1.4139280     1.2413360
  H        1.6670510     1.8686130    -0.4607680
  H        0.0151050     1.9693480     0.1947690
  H        2.4631220    -0.8193040     0.6447500
  H        1.7659200    -1.7521810    -0.7136960
  H        2.7550642    -0.1276152    -1.1607767
  H       -2.3916570    -0.7986900     0.9363150
  H       -1.7508380     0.8532310     1.0447820
  H       -2.6851960     0.3180950    -1.1185210
units angstrom
no_reorient  #important for SAPT in psi4, default
symmetry c1  #important for SAPT in psi4, default
}

set PROPERTIES_ORIGIN ["COM"]
properties('MP2/aug-cc-pvtz', properties = ['dipole'])
--------------------------------------------------------------------------

    Molecular point group: c1
  Charge       = 1
  Multiplicity = 1
  Basis Set: AUG-CC-PVTZ
    Blend: AUG-CC-PVTZ
  Basis Set: (AUG-CC-PVTZ AUX)
    Blend: AUG-CC-PVTZ-JKFIT

    Orbital Energies [Eh]
    ---------------------

    Doubly Occupied:

       1A    -20.733501     2A    -15.857487     3A    -11.468646
       4A    -11.458022     5A    -11.454855     6A    -11.448610
       7A     -1.540027     8A     -1.487168     9A     -1.205320
      10A     -1.160756    11A     -1.085254    12A     -1.025311
      13A     -0.917453    14A     -0.877604    15A     -0.853203
      16A     -0.828380    17A     -0.792596    18A     -0.755911
      19A     -0.745829    20A     -0.728579    21A     -0.719869
      22A     -0.714573    23A     -0.702503    24A     -0.667156
      25A     -0.624742

  @DF-RHF Final Energy:  -287.63822798374292

   => Energetics <=

    Nuclear Repulsion Energy =            277.7232277516044405
    One-Electron Energy =                -931.0161976047962753
    Two-Electron Energy =                 365.6547418694489124
    Total Energy =                       -287.6382279837429223
  Basis Set: (AUG-CC-PVTZ AUX)
    Blend: AUG-CC-PVTZ-RI
    Molecular point group: c1

    Geometry (in Angstrom), charge = 1, multiplicity = 1:

       Center              X                  Y                   Z               Mass
    ------------   -----------------  -----------------  -----------------  -----------------
         O           -1.745063141831     0.052283475036    -0.869425746447    15.994914619570
         N            0.741300858169     0.009812475036    -0.171714746447    14.003074004430
         C           -0.235500141831    -0.705279524964     0.723331253553    12.000000000000
         C            0.986858858169     1.424540475036     0.251163253553    12.000000000000
         C            2.021830858169    -0.751127524964    -0.314138746447    12.000000000000
         C           -1.618531141831    -0.101082524964     0.542752253553    12.000000000000
         H            0.260959858169     0.045535475036    -1.086128746447     1.007825032230
         H           -0.239844141831    -1.748161524964     0.399881253553     1.007825032230
         H            0.127637858169    -0.642761524964     1.752123253553     1.007825032230
         H            1.395576858169     1.418022475036     1.261893253553     1.007825032230
         H            1.700088858169     1.872707475036    -0.440210746447     1.007825032230
         H            0.048142858169     1.973442475036     0.215326253553     1.007825032230
         H            2.496159858169    -0.815209524964     0.665307253553     1.007825032230
         H            1.798957858169    -1.748086524964    -0.693138746447     1.007825032230
         H            2.788102058169    -0.123520724964    -1.140219446447     1.007825032230
         H           -2.358619141831    -0.794595524964     0.956872253553     1.007825032230
         H           -1.717800141831     0.857325475036     1.065339253553     1.007825032230
         H           -2.652158141831     0.322189475036    -1.097963746447     1.007825032230

  Basis Set: AUG-CC-PVTZ
    Blend: AUG-CC-PVTZ
  Basis Set: (AUG-CC-PVTZ AUX)
    Blend: AUG-CC-PVTZ-JKFIT
	 Reference Energy          =    -287.6382279837429223 [Eh]
	 Singles Energy            =      -0.0000000000000000 [Eh]
	 Same-Spin Energy          =      -0.2852957721848664 [Eh]
	 Opposite-Spin Energy      =      -1.0013125243861545 [Eh]
	 Correlation Energy        =      -1.2866082965710208 [Eh]
	 Total Energy              =    -288.9248362803139685 [Eh]

	 ================> DF-SCS-MP2 Energies <==================
	-----------------------------------------------------------
	 SCS Same-Spin Scale       =       0.3333333333333333 [-]
	 SCS Opposite-Spin Scale   =       1.2000000000000000 [-]
	 SCS Same-Spin Energy      =      -0.0950985907282888 [Eh]
	 SCS Opposite-Spin Energy  =      -1.2015750292633853 [Eh]
	 SCS Correlation Energy    =      -1.2966736199916742 [Eh]
	 SCS Total Energy          =    -288.9349016037346018 [Eh]
	-----------------------------------------------------------

  Dipole Moment: [D]
     X:     1.3556      Y:     0.3072      Z:     0.6618     Total:     1.5395

*** Psi4 exiting successfully. Buy a developer a beer!
