                               Psi4 1.4a3.dev225

  ==> Input File <==

--------------------------------------------------------------------------
#psi4
#
memory 32 gb

molecule  {
1 1
  O       -1.7781010     0.0481890    -0.8899830
  N        0.7082630     0.0057180    -0.1922720
  C       -0.2685380    -0.7093740     0.7027740
  C        0.9538210     1.4204460     0.2306060
  C        1.9887930    -0.7552220    -0.3346960
  C       -1.6515690    -0.1051770     0.5221950
  H        0.2279220     0.0414410    -1.1066860
  H       -0.2720863    -1.5612342     0.4385695
  H        0.0946000    -0.6468560     1.7315660
  H        1.3625390     1.4139280     1.2413360
  H        1.6670510     1.8686130    -0.4607680
  H        0.0151050     1.9693480     0.1947690
  H        2.4631220    -0.8193040     0.6447500
  H        1.7659200    -1.7521810    -0.7136960
  H        2.6362400    -0.2249370    -1.0326780
  H       -2.3916570    -0.7986900     0.9363150
  H       -1.7508380     0.8532310     1.0447820
  H       -2.6851960     0.3180950    -1.1185210
units angstrom
no_reorient  #important for SAPT in psi4, default
symmetry c1  #important for SAPT in psi4, default
}

set PROPERTIES_ORIGIN ["COM"]
properties('MP2/aug-cc-pvtz', properties = ['dipole'])
--------------------------------------------------------------------------

    Molecular point group: c1
  Charge       = 1
  Multiplicity = 1
  Basis Set: AUG-CC-PVTZ
    Blend: AUG-CC-PVTZ
  Basis Set: (AUG-CC-PVTZ AUX)
    Blend: AUG-CC-PVTZ-JKFIT

    Orbital Energies [Eh]
    ---------------------

    Doubly Occupied:

       1A    -20.733352     2A    -15.855558     3A    -11.453593
       4A    -11.450078     5A    -11.448620     6A    -11.435082
       7A     -1.540263     8A     -1.488021     9A     -1.222818
      10A     -1.166989    11A     -1.092963    12A     -1.038373
      13A     -0.928969    14A     -0.887019    15A     -0.856426
      16A     -0.837402    17A     -0.792022    18A     -0.765573
      19A     -0.747605    20A     -0.744731    21A     -0.730510
      22A     -0.720834    23A     -0.715364    24A     -0.674847
      25A     -0.625448

  @DF-RHF Final Energy:  -287.62542757702096

   => Energetics <=

    Nuclear Repulsion Energy =            279.6147621966771908
    One-Electron Energy =                -934.5754582314568779
    Two-Electron Energy =                 367.3352684577586729
    Total Energy =                       -287.6254275770209574
  Basis Set: (AUG-CC-PVTZ AUX)
    Blend: AUG-CC-PVTZ-RI
    Molecular point group: c1

    Geometry (in Angstrom), charge = 1, multiplicity = 1:

       Center              X                  Y                   Z               Mass
    ------------   -----------------  -----------------  -----------------  -----------------
         O           -1.743742800143     0.051235287384    -0.871521497535    15.994914619570
         N            0.742621199857     0.008764287384    -0.173810497535    14.003074004430
         C           -0.234179800143    -0.706327712616     0.721235502465    12.000000000000
         C            0.988179199857     1.423492287384     0.249067502465    12.000000000000
         C            2.023151199857    -0.752175712616    -0.316234497535    12.000000000000
         C           -1.617210800143    -0.102130712616     0.540656502465    12.000000000000
         H            0.262280199857     0.044487287384    -1.088224497535     1.007825032230
         H           -0.237728100143    -1.558187912616     0.457031002465     1.007825032230
         H            0.128958199857    -0.643809712616     1.750027502465     1.007825032230
         H            1.396897199857     1.416974287384     1.259797502465     1.007825032230
         H            1.701409199857     1.871659287384    -0.442306497535     1.007825032230
         H            0.049463199857     1.972394287384     0.213230502465     1.007825032230
         H            2.497480199857    -0.816257712616     0.663211502465     1.007825032230
         H            1.800278199857    -1.749134712616    -0.695234497535     1.007825032230
         H            2.670598199857    -0.221890712616    -1.014216497535     1.007825032230
         H           -2.357298800143    -0.795643712616     0.954776502465     1.007825032230
         H           -1.716479800143     0.856277287384     1.063243502465     1.007825032230
         H           -2.650837800143     0.321141287384    -1.100059497535     1.007825032230

  Basis Set: AUG-CC-PVTZ
    Blend: AUG-CC-PVTZ
  Basis Set: (AUG-CC-PVTZ AUX)
    Blend: AUG-CC-PVTZ-JKFIT
	 Reference Energy          =    -287.6254275770209574 [Eh]
	 Singles Energy            =      -0.0000000000000000 [Eh]
	 Same-Spin Energy          =      -0.2847837648757822 [Eh]
	 Opposite-Spin Energy      =      -0.9985068557560849 [Eh]
	 Correlation Energy        =      -1.2832906206318671 [Eh]
	 Total Energy              =    -288.9087181976528313 [Eh]

	 ================> DF-SCS-MP2 Energies <==================
	-----------------------------------------------------------
	 SCS Same-Spin Scale       =       0.3333333333333333 [-]
	 SCS Opposite-Spin Scale   =       1.2000000000000000 [-]
	 SCS Same-Spin Energy      =      -0.0949279216252607 [Eh]
	 SCS Opposite-Spin Energy  =      -1.1982082269073018 [Eh]
	 SCS Correlation Energy    =      -1.2931361485325625 [Eh]
	 SCS Total Energy          =    -288.9185637255534971 [Eh]
	-----------------------------------------------------------

  Dipole Moment: [D]
     X:     1.3871      Y:     0.3111      Z:     0.6624     Total:     1.5683

*** Psi4 exiting successfully. Buy a developer a beer!
