                               Psi4 1.4a3.dev225

  ==> Input File <==

--------------------------------------------------------------------------
#psi4
#
memory 32 gb

molecule  {
1 1
  O       -1.7781010     0.0481890    -0.8899830
  N        0.7082630     0.0057180    -0.1922720
  C       -0.2685380    -0.7093740     0.7027740
  C        0.9538210     1.4204460     0.2306060
  C        2.0315814    -0.7806485    -0.3394550
  C       -1.6515690    -0.1051770     0.5221950
  H        0.2279220     0.0414410    -1.1066860
  H       -0.2728820    -1.7522560     0.3793240
  H        0.0946000    -0.6468560     1.7315660
  H        1.3625390     1.4139280     1.2413360
  H        1.6670510     1.8686130    -0.4607680
  H        0.0151050     1.9693480     0.1947690
  H        2.4631220    -0.8193040     0.6447500
  H        1.7659200    -1.7521810    -0.7136960
  H        2.6362400    -0.2249370    -1.0326780
  H       -2.3916570    -0.7986900     0.9363150
  H       -1.7508380     0.8532310     1.0447820
  H       -2.6851960     0.3180950    -1.1185210
units angstrom
no_reorient  #important for SAPT in psi4, default
symmetry c1  #important for SAPT in psi4, default
}

set PROPERTIES_ORIGIN ["COM"]
properties('MP2/aug-cc-pvtz', properties = ['dipole'])
--------------------------------------------------------------------------

    Molecular point group: c1
  Charge       = 1
  Multiplicity = 1
  Basis Set: AUG-CC-PVTZ
    Blend: AUG-CC-PVTZ
  Basis Set: (AUG-CC-PVTZ AUX)
    Blend: AUG-CC-PVTZ-JKFIT

    Orbital Energies [Eh]
    ---------------------

    Doubly Occupied:

       1A    -20.732032     2A    -15.853069     3A    -11.455523
       4A    -11.453011     5A    -11.451713     6A    -11.447540
       7A     -1.537746     8A     -1.477484     9A     -1.203991
      10A     -1.164454    11A     -1.094371    12A     -1.022171
      13A     -0.914881    14A     -0.874622    15A     -0.849844
      16A     -0.834407    17A     -0.788243    18A     -0.761826
      19A     -0.749961    20A     -0.745307    21A     -0.725150
      22A     -0.713770    23A     -0.711152    24A     -0.672493
      25A     -0.623205

  @DF-RHF Final Energy:  -287.65740080531384

   => Energetics <=

    Nuclear Repulsion Energy =            277.6451684783351084
    One-Electron Energy =                -930.8892074800030514
    Two-Electron Energy =                 365.5866381963541016
    Total Energy =                       -287.6574008053138414
  Basis Set: (AUG-CC-PVTZ AUX)
    Blend: AUG-CC-PVTZ-RI
    Molecular point group: c1

    Geometry (in Angstrom), charge = 1, multiplicity = 1:

       Center              X                  Y                   Z               Mass
    ------------   -----------------  -----------------  -----------------  -----------------
         O           -1.749433200014     0.056758920613    -0.870224853639    15.994914619570
         N            0.736930799986     0.014287920613    -0.172513853639    14.003074004430
         C           -0.239870200014    -0.700804079387     0.722532146361    12.000000000000
         C            0.982488799986     1.429015920613     0.250364146361    12.000000000000
         C            2.060249199986    -0.772078579387    -0.319696853639    12.000000000000
         C           -1.622901200014    -0.096607079387     0.541953146361    12.000000000000
         H            0.256589799986     0.050010920613    -1.086927853639     1.007825032230
         H           -0.244214200014    -1.743686079387     0.399082146361     1.007825032230
         H            0.123267799986    -0.638286079387     1.751324146361     1.007825032230
         H            1.391206799986     1.422497920613     1.261094146361     1.007825032230
         H            1.695718799986     1.877182920613    -0.441009853639     1.007825032230
         H            0.043772799986     1.977917920613     0.214527146361     1.007825032230
         H            2.491789799986    -0.810734079387     0.664508146361     1.007825032230
         H            1.794587799986    -1.743611079387    -0.693937853639     1.007825032230
         H            2.664907799986    -0.216367079387    -1.012919853639     1.007825032230
         H           -2.362989200014    -0.790120079387     0.956073146361     1.007825032230
         H           -1.722170200014     0.861800920613     1.064540146361     1.007825032230
         H           -2.656528200014     0.326664920613    -1.098762853639     1.007825032230

  Basis Set: AUG-CC-PVTZ
    Blend: AUG-CC-PVTZ
  Basis Set: (AUG-CC-PVTZ AUX)
    Blend: AUG-CC-PVTZ-JKFIT
	 Reference Energy          =    -287.6574008053138414 [Eh]
	 Singles Energy            =      -0.0000000000000000 [Eh]
	 Same-Spin Energy          =      -0.2847502824066193 [Eh]
	 Opposite-Spin Energy      =      -0.9995875808174183 [Eh]
	 Correlation Energy        =      -1.2843378632240376 [Eh]
	 Total Energy              =    -288.9417386685378801 [Eh]

	 ================> DF-SCS-MP2 Energies <==================
	-----------------------------------------------------------
	 SCS Same-Spin Scale       =       0.3333333333333333 [-]
	 SCS Opposite-Spin Scale   =       1.2000000000000000 [-]
	 SCS Same-Spin Energy      =      -0.0949167608022064 [Eh]
	 SCS Opposite-Spin Energy  =      -1.1995050969809018 [Eh]
	 SCS Correlation Energy    =      -1.2944218577831081 [Eh]
	 SCS Total Energy          =    -288.9518226630969480 [Eh]
	-----------------------------------------------------------

  Dipole Moment: [D]
     X:     1.4432      Y:     0.2683      Z:     0.6466     Total:     1.6040

*** Psi4 exiting successfully. Buy a developer a beer!
