                               Psi4 1.4a3.dev225

  ==> Input File <==

--------------------------------------------------------------------------
#psi4
#
memory 32 gb

molecule  {
1 1
  O       -1.7781010     0.0481890    -0.8899830
  N        0.7082630     0.0057180    -0.1922720
  C       -0.3009786    -0.7331229     0.7324994
  C        0.9538210     1.4204460     0.2306060
  C        1.9887930    -0.7552220    -0.3346960
  C       -1.6515690    -0.1051770     0.5221950
  H        0.2279220     0.0414410    -1.1066860
  H       -0.2728820    -1.7522560     0.3793240
  H        0.0946000    -0.6468560     1.7315660
  H        1.3625390     1.4139280     1.2413360
  H        1.6670510     1.8686130    -0.4607680
  H        0.0151050     1.9693480     0.1947690
  H        2.4631220    -0.8193040     0.6447500
  H        1.7659200    -1.7521810    -0.7136960
  H        2.6362400    -0.2249370    -1.0326780
  H       -2.3916570    -0.7986900     0.9363150
  H       -1.7508380     0.8532310     1.0447820
  H       -2.6851960     0.3180950    -1.1185210
units angstrom
no_reorient  #important for SAPT in psi4, default
symmetry c1  #important for SAPT in psi4, default
}

set PROPERTIES_ORIGIN ["COM"]
properties('MP2/aug-cc-pvtz', properties = ['dipole'])
--------------------------------------------------------------------------

    Molecular point group: c1
  Charge       = 1
  Multiplicity = 1
  Basis Set: AUG-CC-PVTZ
    Blend: AUG-CC-PVTZ
  Basis Set: (AUG-CC-PVTZ AUX)
    Blend: AUG-CC-PVTZ-JKFIT

    Orbital Energies [Eh]
    ---------------------

    Doubly Occupied:

       1A    -20.734339     2A    -15.852358     3A    -11.459872
       4A    -11.454792     5A    -11.447672     6A    -11.447196
       7A     -1.539332     8A     -1.477591     9A     -1.210529
      10A     -1.163071    11A     -1.089435    12A     -1.025043
      13A     -0.916137    14A     -0.875505    15A     -0.853929
      16A     -0.833348    17A     -0.792618    18A     -0.758408
      19A     -0.746575    20A     -0.739122    21A     -0.722767
      22A     -0.720095    23A     -0.712690    24A     -0.673861
      25A     -0.625647

  @DF-RHF Final Energy:  -287.65730166722926

   => Energetics <=

    Nuclear Repulsion Energy =            277.8771490168182368
    One-Electron Energy =                -931.3250344036374599
    Two-Electron Energy =                 365.7905837195900176
    Total Energy =                       -287.6573016672292624
  Basis Set: (AUG-CC-PVTZ AUX)
    Blend: AUG-CC-PVTZ-RI
    Molecular point group: c1

    Geometry (in Angstrom), charge = 1, multiplicity = 1:

       Center              X                  Y                   Z               Mass
    ------------   -----------------  -----------------  -----------------  -----------------
         O           -1.739412897300     0.056535468755    -0.874818084001    15.994914619570
         N            0.746951102700     0.014064468755    -0.177107084001    14.003074004430
         C           -0.262290497300    -0.724776431245     0.747664315999    12.000000000000
         C            0.992509102700     1.428792468755     0.245770915999    12.000000000000
         C            2.027481102700    -0.746875531245    -0.319531084001    12.000000000000
         C           -1.612880897300    -0.096830531245     0.537359915999    12.000000000000
         H            0.266610102700     0.049787468755    -1.091521084001     1.007825032230
         H           -0.234193897300    -1.743909531245     0.394488915999     1.007825032230
         H            0.133288102700    -0.638509531245     1.746730915999     1.007825032230
         H            1.401227102700     1.422274468755     1.256500915999     1.007825032230
         H            1.705739102700     1.876959468755    -0.445603084001     1.007825032230
         H            0.053793102700     1.977694468755     0.209933915999     1.007825032230
         H            2.501810102700    -0.810957531245     0.659914915999     1.007825032230
         H            1.804608102700    -1.743834531245    -0.698531084001     1.007825032230
         H            2.674928102700    -0.216590531245    -1.017513084001     1.007825032230
         H           -2.352968897300    -0.790343531245     0.951479915999     1.007825032230
         H           -1.712149897300     0.861577468755     1.059946915999     1.007825032230
         H           -2.646507897300     0.326441468755    -1.103356084001     1.007825032230

  Basis Set: AUG-CC-PVTZ
    Blend: AUG-CC-PVTZ
  Basis Set: (AUG-CC-PVTZ AUX)
    Blend: AUG-CC-PVTZ-JKFIT
	 Reference Energy          =    -287.6573016672292624 [Eh]
	 Singles Energy            =      -0.0000000000000000 [Eh]
	 Same-Spin Energy          =      -0.2849004093726327 [Eh]
	 Opposite-Spin Energy      =      -0.9996045732749418 [Eh]
	 Correlation Energy        =      -1.2845049826475745 [Eh]
	 Total Energy              =    -288.9418066498768098 [Eh]

	 ================> DF-SCS-MP2 Energies <==================
	-----------------------------------------------------------
	 SCS Same-Spin Scale       =       0.3333333333333333 [-]
	 SCS Opposite-Spin Scale   =       1.2000000000000000 [-]
	 SCS Same-Spin Energy      =      -0.0949668031242109 [Eh]
	 SCS Opposite-Spin Energy  =      -1.1995254879299302 [Eh]
	 SCS Correlation Energy    =      -1.2944922910541410 [Eh]
	 SCS Total Energy          =    -288.9517939582834174 [Eh]
	-----------------------------------------------------------

  Dipole Moment: [D]
     X:     1.2983      Y:     0.2713      Z:     0.7006     Total:     1.5000

*** Psi4 exiting successfully. Buy a developer a beer!
