                               Psi4 1.4a3.dev225

  ==> Input File <==

--------------------------------------------------------------------------
#psi4
#
memory 32 gb

molecule  {
1 1
  O       -1.7781010     0.0481890    -0.8899830
  N        0.6979379     0.0502762    -0.1663980
  C       -0.2685380    -0.7093740     0.7027740
  C        0.9538210     1.4204460     0.2306060
  C        1.9887930    -0.7552220    -0.3346960
  C       -1.6515690    -0.1051770     0.5221950
  H        0.2279220     0.0414410    -1.1066860
  H       -0.2728820    -1.7522560     0.3793240
  H        0.0946000    -0.6468560     1.7315660
  H        1.3625390     1.4139280     1.2413360
  H        1.6670510     1.8686130    -0.4607680
  H        0.0151050     1.9693480     0.1947690
  H        2.4631220    -0.8193040     0.6447500
  H        1.7659200    -1.7521810    -0.7136960
  H        2.6362400    -0.2249370    -1.0326780
  H       -2.3916570    -0.7986900     0.9363150
  H       -1.7508380     0.8532310     1.0447820
  H       -2.6851960     0.3180950    -1.1185210
units angstrom
no_reorient  #important for SAPT in psi4, default
symmetry c1  #important for SAPT in psi4, default
}

set PROPERTIES_ORIGIN ["COM"]
properties('MP2/aug-cc-pvtz', properties = ['dipole'])
--------------------------------------------------------------------------

    Molecular point group: c1
  Charge       = 1
  Multiplicity = 1
  Basis Set: AUG-CC-PVTZ
    Blend: AUG-CC-PVTZ
  Basis Set: (AUG-CC-PVTZ AUX)
    Blend: AUG-CC-PVTZ-JKFIT

    Orbital Energies [Eh]
    ---------------------

    Doubly Occupied:

       1A    -20.732859     2A    -15.856818     3A    -11.457477
       4A    -11.453454     5A    -11.452864     6A    -11.444794
       7A     -1.539652     8A     -1.488314     9A     -1.207581
      10A     -1.168233    11A     -1.090311    12A     -1.022529
      13A     -0.920245    14A     -0.878352    15A     -0.854367
      16A     -0.835869    17A     -0.793212    18A     -0.758025
      19A     -0.748377    20A     -0.738984    21A     -0.723144
      22A     -0.719247    23A     -0.708542    24A     -0.671331
      25A     -0.624339

  @DF-RHF Final Energy:  -287.65578313018545

   => Energetics <=

    Nuclear Repulsion Energy =            278.7126746633219909
    One-Electron Energy =                -932.9590741164317933
    Two-Electron Energy =                 366.5906163229243475
    Total Energy =                       -287.6557831301854549
  Basis Set: (AUG-CC-PVTZ AUX)
    Blend: AUG-CC-PVTZ-RI
    Molecular point group: c1

    Geometry (in Angstrom), charge = 1, multiplicity = 1:

       Center              X                  Y                   Z               Mass
    ------------   -----------------  -----------------  -----------------  -----------------
         O           -1.742129058136     0.046446452062    -0.874880361936    15.994914619570
         N            0.733909841864     0.048533652062    -0.151295361936    14.003074004430
         C           -0.232566058136    -0.711116547938     0.717876638064    12.000000000000
         C            0.989792941864     1.418703452062     0.245708638064    12.000000000000
         C            2.024764941864    -0.756964547938    -0.319593361936    12.000000000000
         C           -1.615597058136    -0.106919547938     0.537297638064    12.000000000000
         H            0.263893941864     0.039698452062    -1.091583361936     1.007825032230
         H           -0.236910058136    -1.753998547938     0.394426638064     1.007825032230
         H            0.130571941864    -0.648598547938     1.746668638064     1.007825032230
         H            1.398510941864     1.412185452062     1.256438638064     1.007825032230
         H            1.703022941864     1.866870452062    -0.445665361936     1.007825032230
         H            0.051076941864     1.967605452062     0.209871638064     1.007825032230
         H            2.499093941864    -0.821046547938     0.659852638064     1.007825032230
         H            1.801891941864    -1.753923547938    -0.698593361936     1.007825032230
         H            2.672211941864    -0.226679547938    -1.017575361936     1.007825032230
         H           -2.355685058136    -0.800432547938     0.951417638064     1.007825032230
         H           -1.714866058136     0.851488452062     1.059884638064     1.007825032230
         H           -2.649224058136     0.316352452062    -1.103418361936     1.007825032230

  Basis Set: AUG-CC-PVTZ
    Blend: AUG-CC-PVTZ
  Basis Set: (AUG-CC-PVTZ AUX)
    Blend: AUG-CC-PVTZ-JKFIT
	 Reference Energy          =    -287.6557831301854549 [Eh]
	 Singles Energy            =      -0.0000000000000000 [Eh]
	 Same-Spin Energy          =      -0.2853750910913887 [Eh]
	 Opposite-Spin Energy      =      -0.9999174680798556 [Eh]
	 Correlation Energy        =      -1.2852925591712443 [Eh]
	 Total Energy              =    -288.9410756893566941 [Eh]

	 ================> DF-SCS-MP2 Energies <==================
	-----------------------------------------------------------
	 SCS Same-Spin Scale       =       0.3333333333333333 [-]
	 SCS Opposite-Spin Scale   =       1.2000000000000000 [-]
	 SCS Same-Spin Energy      =      -0.0951250303637962 [Eh]
	 SCS Opposite-Spin Energy  =      -1.1999009616958267 [Eh]
	 SCS Correlation Energy    =      -1.2950259920596230 [Eh]
	 SCS Total Energy          =    -288.9508091222450616 [Eh]
	-----------------------------------------------------------

  Dipole Moment: [D]
     X:     1.3965      Y:     0.2070      Z:     0.6163     Total:     1.5404

*** Psi4 exiting successfully. Buy a developer a beer!
