                               Psi4 1.4a3.dev225

  ==> Input File <==

--------------------------------------------------------------------------
#psi4
#
memory 32 gb

molecule  {
1 1
  O       -1.7781010     0.0481890    -0.8899830
  N        0.7082630     0.0057180    -0.1922720
  C       -0.2685380    -0.7093740     0.7027740
  C        0.9538210     1.4204460     0.2306060
  C        1.9887930    -0.7552220    -0.3346960
  C       -1.6515690    -0.1051770     0.5221950
  H        0.2279220     0.0414410    -1.1066860
  H       -0.2728820    -1.7522560     0.3793240
  H        0.0946000    -0.6468560     1.7315660
  H        1.3625390     1.4139280     1.2413360
  H        1.6670510     1.8686130    -0.4607680
  H        0.0151050     1.9693480     0.1947690
  H        2.4631220    -0.8193040     0.6447500
  H        1.8088597    -1.7358392    -0.7743033
  H        2.6362400    -0.2249370    -1.0326780
  H       -2.3916570    -0.7986900     0.9363150
  H       -1.7508380     0.8532310     1.0447820
  H       -2.6851960     0.3180950    -1.1185210
units angstrom
no_reorient  #important for SAPT in psi4, default
symmetry c1  #important for SAPT in psi4, default
}

set PROPERTIES_ORIGIN ["COM"]
properties('MP2/aug-cc-pvtz', properties = ['dipole'])
--------------------------------------------------------------------------

    Molecular point group: c1
  Charge       = 1
  Multiplicity = 1
  Basis Set: AUG-CC-PVTZ
    Blend: AUG-CC-PVTZ
  Basis Set: (AUG-CC-PVTZ AUX)
    Blend: AUG-CC-PVTZ-JKFIT

    Orbital Energies [Eh]
    ---------------------

    Doubly Occupied:

       1A    -20.733098     2A    -15.856772     3A    -11.456853
       4A    -11.454066     5A    -11.449261     6A    -11.449143
       7A     -1.539591     8A     -1.487073     9A     -1.206626
      10A     -1.165671    11A     -1.093281    12A     -1.024790
      13A     -0.920038    14A     -0.876985    15A     -0.854531
      16A     -0.835359    17A     -0.791959    18A     -0.758838
      19A     -0.748136    20A     -0.737037    21A     -0.724495
      22A     -0.716953    23A     -0.710729    24A     -0.674000
      25A     -0.624291

  @DF-RHF Final Energy:  -287.65880894711336

   => Energetics <=

    Nuclear Repulsion Energy =            278.4368912617350134
    One-Electron Energy =                -932.4122421849693865
    Two-Electron Energy =                 366.3165419761210160
    Total Energy =                       -287.6588089471133571
  Basis Set: (AUG-CC-PVTZ AUX)
    Blend: AUG-CC-PVTZ-RI
    Molecular point group: c1

    Geometry (in Angstrom), charge = 1, multiplicity = 1:

       Center              X                  Y                   Z               Mass
    ------------   -----------------  -----------------  -----------------  -----------------
         O           -1.744214249667     0.053189368696    -0.870180748069    15.994914619570
         N            0.742149750333     0.010718368696    -0.172469748069    14.003074004430
         C           -0.234651249667    -0.704373631304     0.722576251931    12.000000000000
         C            0.987707750333     1.425446368696     0.250408251931    12.000000000000
         C            2.022679750333    -0.750221631304    -0.314893748069    12.000000000000
         C           -1.617682249667    -0.100176631304     0.541997251931    12.000000000000
         H            0.261808750333     0.046441368696    -1.086883748069     1.007825032230
         H           -0.238995249667    -1.747255631304     0.399126251931     1.007825032230
         H            0.128486750333    -0.641855631304     1.751368251931     1.007825032230
         H            1.396425750333     1.418928368696     1.261138251931     1.007825032230
         H            1.700937750333     1.873613368696    -0.440965748069     1.007825032230
         H            0.048991750333     1.974348368696     0.214571251931     1.007825032230
         H            2.497008750333    -0.814303631304     0.664552251931     1.007825032230
         H            1.842746450333    -1.730838831304    -0.754501048069     1.007825032230
         H            2.670126750333    -0.219936631304    -1.012875748069     1.007825032230
         H           -2.357770249667    -0.793689631304     0.956117251931     1.007825032230
         H           -1.716951249667     0.858231368696     1.064584251931     1.007825032230
         H           -2.651309249667     0.323095368696    -1.098718748069     1.007825032230

  Basis Set: AUG-CC-PVTZ
    Blend: AUG-CC-PVTZ
  Basis Set: (AUG-CC-PVTZ AUX)
    Blend: AUG-CC-PVTZ-JKFIT
	 Reference Energy          =    -287.6588089471133571 [Eh]
	 Singles Energy            =      -0.0000000000000000 [Eh]
	 Same-Spin Energy          =      -0.2850068883219565 [Eh]
	 Opposite-Spin Energy      =      -0.9993898366004029 [Eh]
	 Correlation Energy        =      -1.2843967249223593 [Eh]
	 Total Energy              =    -288.9432056720357309 [Eh]

	 ================> DF-SCS-MP2 Energies <==================
	-----------------------------------------------------------
	 SCS Same-Spin Scale       =       0.3333333333333333 [-]
	 SCS Opposite-Spin Scale   =       1.2000000000000000 [-]
	 SCS Same-Spin Energy      =      -0.0950022961073188 [Eh]
	 SCS Opposite-Spin Energy  =      -1.1992678039204834 [Eh]
	 SCS Correlation Energy    =      -1.2942701000278023 [Eh]
	 SCS Total Energy          =    -288.9530790471411592 [Eh]
	-----------------------------------------------------------

  Dipole Moment: [D]
     X:     1.3785      Y:     0.3092      Z:     0.6309     Total:     1.5472

*** Psi4 exiting successfully. Buy a developer a beer!
