                               Psi4 1.4a3.dev225

  ==> Input File <==

--------------------------------------------------------------------------
#psi4
#
memory 32 gb

molecule  {
1 1
  O       -1.7781010     0.0481890    -0.8899830
  N        0.7082630     0.0057180    -0.1922720
  C       -0.2685380    -0.7093740     0.7027740
  C        0.9538210     1.4204460     0.2306060
  C        1.9887930    -0.7552220    -0.3346960
  C       -1.6515690    -0.1051770     0.5221950
  H        0.2279220     0.0414410    -1.1066860
  H       -0.2728820    -1.7522560     0.3793240
  H        0.0946000    -0.6468560     1.7315660
  H        1.3625390     1.4139280     1.2413360
  H        1.6670510     1.8686130    -0.4607680
  H        0.0151050     1.9693480     0.1947690
  H        2.4631220    -0.8193040     0.6447500
  H        1.8068289    -1.5691865    -0.6441296
  H        2.6362400    -0.2249370    -1.0326780
  H       -2.3916570    -0.7986900     0.9363150
  H       -1.7508380     0.8532310     1.0447820
  H       -2.6851960     0.3180950    -1.1185210
units angstrom
no_reorient  #important for SAPT in psi4, default
symmetry c1  #important for SAPT in psi4, default
}

set PROPERTIES_ORIGIN ["COM"]
properties('MP2/aug-cc-pvtz', properties = ['dipole'])
--------------------------------------------------------------------------

    Molecular point group: c1
  Charge       = 1
  Multiplicity = 1
  Basis Set: AUG-CC-PVTZ
    Blend: AUG-CC-PVTZ
  Basis Set: (AUG-CC-PVTZ AUX)
    Blend: AUG-CC-PVTZ-JKFIT

    Orbital Energies [Eh]
    ---------------------

    Doubly Occupied:

       1A    -20.733303     2A    -15.855644     3A    -11.457575
       4A    -11.454457     5A    -11.448563     6A    -11.427850
       7A     -1.539868     8A     -1.488093     9A     -1.210494
      10A     -1.182425    11A     -1.100672    12A     -1.025211
      13A     -0.928215    14A     -0.878642    15A     -0.862548
      16A     -0.840698    17A     -0.793717    18A     -0.765524
      19A     -0.755784    20A     -0.743147    21A     -0.732056
      22A     -0.717096    23A     -0.713166    24A     -0.674239
      25A     -0.624547

  @DF-RHF Final Energy:  -287.62449060547317

   => Energetics <=

    Nuclear Repulsion Energy =            279.4955714122266954
    One-Electron Energy =                -934.3330535601445490
    Two-Electron Energy =                 367.2129915424446835
    Total Energy =                       -287.6244906054731700
  Basis Set: (AUG-CC-PVTZ AUX)
    Blend: AUG-CC-PVTZ-RI
    Molecular point group: c1

    Geometry (in Angstrom), charge = 1, multiplicity = 1:

       Center              X                  Y                   Z               Mass
    ------------   -----------------  -----------------  -----------------  -----------------
         O           -1.744191531850     0.051325085855    -0.871636953670    15.994914619570
         N            0.742172468150     0.008854085855    -0.173925953670    14.003074004430
         C           -0.234628531850    -0.706237914145     0.721120046330    12.000000000000
         C            0.987730468150     1.423582085855     0.248952046330    12.000000000000
         C            2.022702468150    -0.752085914145    -0.316349953670    12.000000000000
         C           -1.617659531850    -0.102040914145     0.540541046330    12.000000000000
         H            0.261831468150     0.044577085855    -1.088339953670     1.007825032230
         H           -0.238972531850    -1.749119914145     0.397670046330     1.007825032230
         H            0.128509468150    -0.643719914145     1.749912046330     1.007825032230
         H            1.396448468150     1.417064085855     1.259682046330     1.007825032230
         H            1.700960468150     1.871749085855    -0.442421953670     1.007825032230
         H            0.049014468150     1.972484085855     0.213115046330     1.007825032230
         H            2.497031468150    -0.816167914145     0.663096046330     1.007825032230
         H            1.840738368150    -1.566050414145    -0.625783553670     1.007825032230
         H            2.670149468150    -0.221800914145    -1.014331953670     1.007825032230
         H           -2.357747531850    -0.795553914145     0.954661046330     1.007825032230
         H           -1.716928531850     0.856367085855     1.063128046330     1.007825032230
         H           -2.651286531850     0.321231085855    -1.100174953670     1.007825032230

  Basis Set: AUG-CC-PVTZ
    Blend: AUG-CC-PVTZ
  Basis Set: (AUG-CC-PVTZ AUX)
    Blend: AUG-CC-PVTZ-JKFIT
	 Reference Energy          =    -287.6244906054731700 [Eh]
	 Singles Energy            =      -0.0000000000000000 [Eh]
	 Same-Spin Energy          =      -0.2849444744644820 [Eh]
	 Opposite-Spin Energy      =      -0.9986412145356555 [Eh]
	 Correlation Energy        =      -1.2835856890001374 [Eh]
	 Total Energy              =    -288.9080762944732896 [Eh]

	 ================> DF-SCS-MP2 Energies <==================
	-----------------------------------------------------------
	 SCS Same-Spin Scale       =       0.3333333333333333 [-]
	 SCS Opposite-Spin Scale   =       1.2000000000000000 [-]
	 SCS Same-Spin Energy      =      -0.0949814914881607 [Eh]
	 SCS Opposite-Spin Energy  =      -1.1983694574427866 [Eh]
	 SCS Correlation Energy    =      -1.2933509489309472 [Eh]
	 SCS Total Energy          =    -288.9178415544041059 [Eh]
	-----------------------------------------------------------

  Dipole Moment: [D]
     X:     1.3619      Y:     0.3228      Z:     0.6724     Total:     1.5528

*** Psi4 exiting successfully. Buy a developer a beer!
