                               Psi4 1.4a3.dev225

  ==> Input File <==

--------------------------------------------------------------------------
#psi4
#
memory 32 gb

molecule  {
1 1
  O       -1.7781010     0.0481890    -0.8899830
  N        0.7082630     0.0057180    -0.1922720
  C       -0.2685380    -0.7093740     0.7027740
  C        0.9571020     1.4393487     0.2362562
  C        1.9887930    -0.7552220    -0.3346960
  C       -1.6515690    -0.1051770     0.5221950
  H        0.2279220     0.0414410    -1.1066860
  H       -0.2728820    -1.7522560     0.3793240
  H        0.0946000    -0.6468560     1.7315660
  H        1.3625390     1.4139280     1.2413360
  H        1.6670510     1.8686130    -0.4607680
  H        0.0151050     1.9693480     0.1947690
  H        2.4631220    -0.8193040     0.6447500
  H        1.7659200    -1.7521810    -0.7136960
  H        2.6362400    -0.2249370    -1.0326780
  H       -2.3916570    -0.7986900     0.9363150
  H       -1.7508380     0.8532310     1.0447820
  H       -2.6851960     0.3180950    -1.1185210
units angstrom
no_reorient  #important for SAPT in psi4, default
symmetry c1  #important for SAPT in psi4, default
}

set PROPERTIES_ORIGIN ["COM"]
properties('MP2/aug-cc-pvtz', properties = ['dipole'])
--------------------------------------------------------------------------

    Molecular point group: c1
  Charge       = 1
  Multiplicity = 1
  Basis Set: AUG-CC-PVTZ
    Blend: AUG-CC-PVTZ
  Basis Set: (AUG-CC-PVTZ AUX)
    Blend: AUG-CC-PVTZ-JKFIT

    Orbital Energies [Eh]
    ---------------------

    Doubly Occupied:

       1A    -20.732887     2A    -15.855085     3A    -11.456451
       4A    -11.453912     5A    -11.449841     6A    -11.448949
       7A     -1.538975     8A     -1.483221     9A     -1.205710
      10A     -1.165434    11A     -1.093200    12A     -1.024159
      13A     -0.917448    14A     -0.876216    15A     -0.852903
      16A     -0.835232    17A     -0.790789    18A     -0.760273
      19A     -0.746059    20A     -0.739543    21A     -0.727889
      22A     -0.718381    23A     -0.709477    24A     -0.673783
      25A     -0.624085

  @DF-RHF Final Energy:  -287.65907872281275

   => Energetics <=

    Nuclear Repulsion Energy =            278.1655048684812641
    One-Electron Energy =                -931.8893575968481855
    Two-Electron Energy =                 366.0647740055541135
    Total Energy =                       -287.6590787228127510
  Basis Set: (AUG-CC-PVTZ AUX)
    Blend: AUG-CC-PVTZ-RI
    Molecular point group: c1

    Geometry (in Angstrom), charge = 1, multiplicity = 1:

       Center              X                  Y                   Z               Mass
    ------------   -----------------  -----------------  -----------------  -----------------
         O           -1.744170919412     0.050854389075    -0.871611331394    15.994914619570
         N            0.742193080588     0.008383389075    -0.173900331394    14.003074004430
         C           -0.234607919412    -0.706708610925     0.721145668606    12.000000000000
         C            0.991032080588     1.442014089075     0.254627868606    12.000000000000
         C            2.022723080588    -0.752556610925    -0.316324331394    12.000000000000
         C           -1.617638919412    -0.102511610925     0.540566668606    12.000000000000
         H            0.261852080588     0.044106389075    -1.088314331394     1.007825032230
         H           -0.238951919412    -1.749590610925     0.397695668606     1.007825032230
         H            0.128530080588    -0.644190610925     1.749937668606     1.007825032230
         H            1.396469080588     1.416593389075     1.259707668606     1.007825032230
         H            1.700981080588     1.871278389075    -0.442396331394     1.007825032230
         H            0.049035080588     1.972013389075     0.213140668606     1.007825032230
         H            2.497052080588    -0.816638610925     0.663121668606     1.007825032230
         H            1.799850080588    -1.749515610925    -0.695324331394     1.007825032230
         H            2.670170080588    -0.222271610925    -1.014306331394     1.007825032230
         H           -2.357726919412    -0.796024610925     0.954686668606     1.007825032230
         H           -1.716907919412     0.855896389075     1.063153668606     1.007825032230
         H           -2.651265919412     0.320760389075    -1.100149331394     1.007825032230

  Basis Set: AUG-CC-PVTZ
    Blend: AUG-CC-PVTZ
  Basis Set: (AUG-CC-PVTZ AUX)
    Blend: AUG-CC-PVTZ-JKFIT
	 Reference Energy          =    -287.6590787228127510 [Eh]
	 Singles Energy            =      -0.0000000000000000 [Eh]
	 Same-Spin Energy          =      -0.2848804986089375 [Eh]
	 Opposite-Spin Energy      =      -0.9994315433947755 [Eh]
	 Correlation Energy        =      -1.2843120420037129 [Eh]
	 Total Energy              =    -288.9433907648164563 [Eh]

	 ================> DF-SCS-MP2 Energies <==================
	-----------------------------------------------------------
	 SCS Same-Spin Scale       =       0.3333333333333333 [-]
	 SCS Opposite-Spin Scale   =       1.2000000000000000 [-]
	 SCS Same-Spin Energy      =      -0.0949601662029792 [Eh]
	 SCS Opposite-Spin Energy  =      -1.1993178520737304 [Eh]
	 SCS Correlation Energy    =      -1.2942780182767095 [Eh]
	 SCS Total Energy          =    -288.9533567410894648 [Eh]
	-----------------------------------------------------------

  Dipole Moment: [D]
     X:     1.3759      Y:     0.3346      Z:     0.6676     Total:     1.5655

*** Psi4 exiting successfully. Buy a developer a beer!
