                               Psi4 1.4a3.dev225

  ==> Input File <==

--------------------------------------------------------------------------
#psi4
#
memory 32 gb

molecule  {
1 1
  O       -1.7781010     0.0481890    -0.8899830
  N        0.7082630     0.0057180    -0.1922720
  C       -0.2685380    -0.7093740     0.7027740
  C        0.9538210     1.4204460     0.2306060
  C        1.9887930    -0.7552220    -0.3346960
  C       -1.6521031    -0.0932768     0.5738962
  H        0.2279220     0.0414410    -1.1066860
  H       -0.2728820    -1.7522560     0.3793240
  H        0.0946000    -0.6468560     1.7315660
  H        1.3625390     1.4139280     1.2413360
  H        1.6670510     1.8686130    -0.4607680
  H        0.0151050     1.9693480     0.1947690
  H        2.4631220    -0.8193040     0.6447500
  H        1.7659200    -1.7521810    -0.7136960
  H        2.6362400    -0.2249370    -1.0326780
  H       -2.3916570    -0.7986900     0.9363150
  H       -1.7508380     0.8532310     1.0447820
  H       -2.6851960     0.3180950    -1.1185210
units angstrom
no_reorient  #important for SAPT in psi4, default
symmetry c1  #important for SAPT in psi4, default
}

set PROPERTIES_ORIGIN ["COM"]
properties('MP2/aug-cc-pvtz', properties = ['dipole'])
--------------------------------------------------------------------------

    Molecular point group: c1
  Charge       = 1
  Multiplicity = 1
  Basis Set: AUG-CC-PVTZ
    Blend: AUG-CC-PVTZ
  Basis Set: (AUG-CC-PVTZ AUX)
    Blend: AUG-CC-PVTZ-JKFIT

    Orbital Energies [Eh]
    ---------------------

    Doubly Occupied:

       1A    -20.728349     2A    -15.856724     3A    -11.458566
       4A    -11.454124     5A    -11.449898     6A    -11.449567
       7A     -1.524261     8A     -1.484055     9A     -1.208384
      10A     -1.166436    11A     -1.095230    12A     -1.026903
      13A     -0.918910    14A     -0.873229    15A     -0.848245
      16A     -0.838362    17A     -0.792901    18A     -0.757201
      19A     -0.741216    20A     -0.737791    21A     -0.725668
      22A     -0.714587    23A     -0.706568    24A     -0.678487
      25A     -0.631115

  @DF-RHF Final Energy:  -287.65598281226266

   => Energetics <=

    Nuclear Repulsion Energy =            277.9127936388815669
    One-Electron Energy =                -931.4040022139320172
    Two-Electron Energy =                 365.8352257627877862
    Total Energy =                       -287.6559828122626641
  Basis Set: (AUG-CC-PVTZ AUX)
    Blend: AUG-CC-PVTZ-RI
    Molecular point group: c1

    Geometry (in Angstrom), charge = 1, multiplicity = 1:

       Center              X                  Y                   Z               Mass
    ------------   -----------------  -----------------  -----------------  -----------------
         O           -1.743662758239     0.051787103450    -0.877745202112    15.994914619570
         N            0.742701241761     0.009316103450    -0.180034202112    14.003074004430
         C           -0.234099758239    -0.705775896550     0.715011797888    12.000000000000
         C            0.988259241761     1.424044103450     0.242843797888    12.000000000000
         C            2.023231241761    -0.751623896550    -0.322458202112    12.000000000000
         C           -1.617664858239    -0.089678696550     0.586133997888    12.000000000000
         H            0.262360241761     0.045039103450    -1.094448202112     1.007825032230
         H           -0.238443758239    -1.748657896550     0.391561797888     1.007825032230
         H            0.129038241761    -0.643257896550     1.743803797888     1.007825032230
         H            1.396977241761     1.417526103450     1.253573797888     1.007825032230
         H            1.701489241761     1.872211103450    -0.448530202112     1.007825032230
         H            0.049543241761     1.972946103450     0.207006797888     1.007825032230
         H            2.497560241761    -0.815705896550     0.656987797888     1.007825032230
         H            1.800358241761    -1.748582896550    -0.701458202112     1.007825032230
         H            2.670678241761    -0.221338896550    -1.020440202112     1.007825032230
         H           -2.357218758239    -0.795091896550     0.948552797888     1.007825032230
         H           -1.716399758239     0.856829103450     1.057019797888     1.007825032230
         H           -2.650757758239     0.321693103450    -1.106283202112     1.007825032230

  Basis Set: AUG-CC-PVTZ
    Blend: AUG-CC-PVTZ
  Basis Set: (AUG-CC-PVTZ AUX)
    Blend: AUG-CC-PVTZ-JKFIT
	 Reference Energy          =    -287.6559828122626641 [Eh]
	 Singles Energy            =      -0.0000000000000000 [Eh]
	 Same-Spin Energy          =      -0.2850805623557108 [Eh]
	 Opposite-Spin Energy      =      -1.0002780648457059 [Eh]
	 Correlation Energy        =      -1.2853586272014168 [Eh]
	 Total Energy              =    -288.9413414394640540 [Eh]

	 ================> DF-SCS-MP2 Energies <==================
	-----------------------------------------------------------
	 SCS Same-Spin Scale       =       0.3333333333333333 [-]
	 SCS Opposite-Spin Scale   =       1.2000000000000000 [-]
	 SCS Same-Spin Energy      =      -0.0950268541185703 [Eh]
	 SCS Opposite-Spin Energy  =      -1.2003336778148470 [Eh]
	 SCS Correlation Energy    =      -1.2953605319334174 [Eh]
	 SCS Total Energy          =    -288.9513433441960615 [Eh]
	-----------------------------------------------------------

  Dipole Moment: [D]
     X:     1.4098      Y:     0.3064      Z:     0.7795     Total:     1.6398

*** Psi4 exiting successfully. Buy a developer a beer!
