                               Psi4 1.4a3.dev225

  ==> Input File <==

--------------------------------------------------------------------------
#psi4
#
memory 32 gb

molecule  {
1 1
  O       -1.7781010     0.0481890    -0.8899830
  N        0.7082630     0.0057180    -0.1922720
  C       -0.2685380    -0.7093740     0.7027740
  C        0.9538210     1.4204460     0.2306060
  C        1.9887930    -0.7552220    -0.3346960
  C       -1.6515690    -0.1051770     0.5221950
  H        0.2279220     0.0414410    -1.1066860
  H       -0.2729616    -1.7713582     0.3733995
  H        0.0946000    -0.6468560     1.7315660
  H        1.3625390     1.4139280     1.2413360
  H        1.6670510     1.8686130    -0.4607680
  H        0.0151050     1.9693480     0.1947690
  H        2.4631220    -0.8193040     0.6447500
  H        1.7659200    -1.7521810    -0.7136960
  H        2.6362400    -0.2249370    -1.0326780
  H       -2.3916570    -0.7986900     0.9363150
  H       -1.7508380     0.8532310     1.0447820
  H       -2.6851960     0.3180950    -1.1185210
units angstrom
no_reorient  #important for SAPT in psi4, default
symmetry c1  #important for SAPT in psi4, default
}

set PROPERTIES_ORIGIN ["COM"]
properties('MP2/aug-cc-pvtz', properties = ['dipole'])
--------------------------------------------------------------------------

    Molecular point group: c1
  Charge       = 1
  Multiplicity = 1
  Basis Set: AUG-CC-PVTZ
    Blend: AUG-CC-PVTZ
  Basis Set: (AUG-CC-PVTZ AUX)
    Blend: AUG-CC-PVTZ-JKFIT

    Orbital Energies [Eh]
    ---------------------

    Doubly Occupied:

       1A    -20.733122     2A    -15.856356     3A    -11.459121
       4A    -11.454291     5A    -11.449480     6A    -11.449180
       7A     -1.539594     8A     -1.487078     9A     -1.205646
      10A     -1.165960    11A     -1.093023    12A     -1.024030
      13A     -0.918464    14A     -0.876261    15A     -0.853176
      16A     -0.837277    17A     -0.792039    18A     -0.757338
      19A     -0.746045    20A     -0.739151    21A     -0.724789
      22A     -0.716953    23A     -0.710072    24A     -0.673980
      25A     -0.624210

  @DF-RHF Final Energy:  -287.65878185564299

   => Energetics <=

    Nuclear Repulsion Energy =            278.4165045433929322
    One-Electron Energy =                -932.3773008712555566
    Two-Electron Energy =                 366.3020144722196960
    Total Energy =                       -287.6587818556429852
  Basis Set: (AUG-CC-PVTZ AUX)
    Blend: AUG-CC-PVTZ-RI
    Molecular point group: c1

    Geometry (in Angstrom), charge = 1, multiplicity = 1:

       Center              X                  Y                   Z               Mass
    ------------   -----------------  -----------------  -----------------  -----------------
         O           -1.743733008482     0.053585867769    -0.870792464565    15.994914619570
         N            0.742630991518     0.011114867769    -0.173081464565    14.003074004430
         C           -0.234170008482    -0.703977132231     0.721964535435    12.000000000000
         C            0.988188991518     1.425842867769     0.249796535435    12.000000000000
         C            2.023160991518    -0.749825132231    -0.315505464565    12.000000000000
         C           -1.617201008482    -0.099780132231     0.541385535435    12.000000000000
         H            0.262289991518     0.046837867769    -1.087495464565     1.007825032230
         H           -0.238593608482    -1.765961332231     0.392590035435     1.007825032230
         H            0.128967991518    -0.641459132231     1.750756535435     1.007825032230
         H            1.396906991518     1.419324867769     1.260526535435     1.007825032230
         H            1.701418991518     1.874009867769    -0.441577464565     1.007825032230
         H            0.049472991518     1.974744867769     0.213959535435     1.007825032230
         H            2.497489991518    -0.813907132231     0.663940535435     1.007825032230
         H            1.800287991518    -1.746784132231    -0.694505464565     1.007825032230
         H            2.670607991518    -0.219540132231    -1.013487464565     1.007825032230
         H           -2.357289008482    -0.793293132231     0.955505535435     1.007825032230
         H           -1.716470008482     0.858627867769     1.063972535435     1.007825032230
         H           -2.650828008482     0.323491867769    -1.099330464565     1.007825032230

  Basis Set: AUG-CC-PVTZ
    Blend: AUG-CC-PVTZ
  Basis Set: (AUG-CC-PVTZ AUX)
    Blend: AUG-CC-PVTZ-JKFIT
	 Reference Energy          =    -287.6587818556429852 [Eh]
	 Singles Energy            =      -0.0000000000000000 [Eh]
	 Same-Spin Energy          =      -0.2850546338050213 [Eh]
	 Opposite-Spin Energy      =      -0.9995782073138690 [Eh]
	 Correlation Energy        =      -1.2846328411188903 [Eh]
	 Total Energy              =    -288.9434146967618631 [Eh]

	 ================> DF-SCS-MP2 Energies <==================
	-----------------------------------------------------------
	 SCS Same-Spin Scale       =       0.3333333333333333 [-]
	 SCS Opposite-Spin Scale   =       1.2000000000000000 [-]
	 SCS Same-Spin Energy      =      -0.0950182112683404 [Eh]
	 SCS Opposite-Spin Energy  =      -1.1994938487766429 [Eh]
	 SCS Correlation Energy    =      -1.2945120600449833 [Eh]
	 SCS Total Energy          =    -288.9532939156879934 [Eh]
	-----------------------------------------------------------

  Dipole Moment: [D]
     X:     1.3671      Y:     0.3100      Z:     0.6624     Total:     1.5504

*** Psi4 exiting successfully. Buy a developer a beer!
