                               Psi4 1.4a3.dev225

  ==> Input File <==

--------------------------------------------------------------------------
#psi4
#
memory 32 gb

molecule  {
1 1
  O       -1.7781010     0.0481890    -0.8899830
  N        0.7082630     0.0057180    -0.1922720
  C       -0.2685380    -0.7093740     0.7027740
  C        0.9538210     1.4204460     0.2306060
  C        1.9887930    -0.7552220    -0.3346960
  C       -1.6515690    -0.1051770     0.5221950
  H        0.2279220     0.0414410    -1.1066860
  H       -0.2728820    -1.7522560     0.3793240
  H        0.0946000    -0.6468560     1.7315660
  H        1.3773254     1.4036958     1.2351116
  H        1.6670510     1.8686130    -0.4607680
  H        0.0151050     1.9693480     0.1947690
  H        2.4631220    -0.8193040     0.6447500
  H        1.7659200    -1.7521810    -0.7136960
  H        2.6362400    -0.2249370    -1.0326780
  H       -2.3916570    -0.7986900     0.9363150
  H       -1.7508380     0.8532310     1.0447820
  H       -2.6851960     0.3180950    -1.1185210
units angstrom
no_reorient  #important for SAPT in psi4, default
symmetry c1  #important for SAPT in psi4, default
}

set PROPERTIES_ORIGIN ["COM"]
properties('MP2/aug-cc-pvtz', properties = ['dipole'])
--------------------------------------------------------------------------

    Molecular point group: c1
  Charge       = 1
  Multiplicity = 1
  Basis Set: AUG-CC-PVTZ
    Blend: AUG-CC-PVTZ
  Basis Set: (AUG-CC-PVTZ AUX)
    Blend: AUG-CC-PVTZ-JKFIT

    Orbital Energies [Eh]
    ---------------------

    Doubly Occupied:

       1A    -20.733142     2A    -15.856089     3A    -11.457000
       4A    -11.454154     5A    -11.449569     6A    -11.449197
       7A     -1.539632     8A     -1.487107     9A     -1.206665
      10A     -1.166021    11A     -1.093052    12A     -1.024884
      13A     -0.919081    14A     -0.877094    15A     -0.853793
      16A     -0.836900    17A     -0.792046    18A     -0.757583
      19A     -0.746325    20A     -0.739625    21A     -0.725037
      22A     -0.717448    23A     -0.711688    24A     -0.674039
      25A     -0.624357

  @DF-RHF Final Energy:  -287.65932223907981

   => Energetics <=

    Nuclear Repulsion Energy =            278.5228553536206277
    One-Electron Energy =                -932.5812974502873658
    Two-Electron Energy =                 366.3991198575869817
    Total Energy =                       -287.6593222390798132
  Basis Set: (AUG-CC-PVTZ AUX)
    Blend: AUG-CC-PVTZ-RI
    Molecular point group: c1

    Geometry (in Angstrom), charge = 1, multiplicity = 1:

       Center              X                  Y                   Z               Mass
    ------------   -----------------  -----------------  -----------------  -----------------
         O           -1.743899308990     0.053486642321    -0.870789109694    15.994914619570
         N            0.742464691010     0.011015642321    -0.173078109694    14.003074004430
         C           -0.234336308990    -0.704076357679     0.721967890306    12.000000000000
         C            0.988022691010     1.425743642321     0.249799890306    12.000000000000
         C            2.022994691010    -0.749924357679    -0.315502109694    12.000000000000
         C           -1.617367308990    -0.099879357679     0.541388890306    12.000000000000
         H            0.262123691010     0.046738642321    -1.087492109694     1.007825032230
         H           -0.238680308990    -1.746958357679     0.398517890306     1.007825032230
         H            0.128801691010    -0.641558357679     1.750759890306     1.007825032230
         H            1.411527091010     1.408993442321     1.254305490306     1.007825032230
         H            1.701252691010     1.873910642321    -0.441574109694     1.007825032230
         H            0.049306691010     1.974645642321     0.213962890306     1.007825032230
         H            2.497323691010    -0.814006357679     0.663943890306     1.007825032230
         H            1.800121691010    -1.746883357679    -0.694502109694     1.007825032230
         H            2.670441691010    -0.219639357679    -1.013484109694     1.007825032230
         H           -2.357455308990    -0.793392357679     0.955508890306     1.007825032230
         H           -1.716636308990     0.858528642321     1.063975890306     1.007825032230
         H           -2.650994308990     0.323392642321    -1.099327109694     1.007825032230

  Basis Set: AUG-CC-PVTZ
    Blend: AUG-CC-PVTZ
  Basis Set: (AUG-CC-PVTZ AUX)
    Blend: AUG-CC-PVTZ-JKFIT
	 Reference Energy          =    -287.6593222390798132 [Eh]
	 Singles Energy            =      -0.0000000000000000 [Eh]
	 Same-Spin Energy          =      -0.2850261090065366 [Eh]
	 Opposite-Spin Energy      =      -0.9994272028288078 [Eh]
	 Correlation Energy        =      -1.2844533118353443 [Eh]
	 Total Energy              =    -288.9437755509151771 [Eh]

	 ================> DF-SCS-MP2 Energies <==================
	-----------------------------------------------------------
	 SCS Same-Spin Scale       =       0.3333333333333333 [-]
	 SCS Opposite-Spin Scale   =       1.2000000000000000 [-]
	 SCS Same-Spin Energy      =      -0.0950087030021789 [Eh]
	 SCS Opposite-Spin Energy  =      -1.1993126433945693 [Eh]
	 SCS Correlation Energy    =      -1.2943213463967482 [Eh]
	 SCS Total Energy          =    -288.9536435854765841 [Eh]
	-----------------------------------------------------------

  Dipole Moment: [D]
     X:     1.3741      Y:     0.3066      Z:     0.6574     Total:     1.5538

*** Psi4 exiting successfully. Buy a developer a beer!
