                               Psi4 1.4a3.dev225

  ==> Input File <==

--------------------------------------------------------------------------
#psi4
#
memory 32 gb

molecule  {
1 1
  O       -1.7781010     0.0481890    -0.8899830
  N        0.7082630     0.0057180    -0.1922720
  C       -0.2685380    -0.7093740     0.7027740
  C        0.9538210     1.4204460     0.2306060
  C        1.9887930    -0.7552220    -0.3346960
  C       -1.6515690    -0.1051770     0.5221950
  H        0.2279220     0.0414410    -1.1066860
  H       -0.2728820    -1.7522560     0.3793240
  H        0.0946000    -0.6468560     1.7315660
  H        1.2713660     1.4752536     1.2721574
  H        1.6670510     1.8686130    -0.4607680
  H        0.0151050     1.9693480     0.1947690
  H        2.4631220    -0.8193040     0.6447500
  H        1.7659200    -1.7521810    -0.7136960
  H        2.6362400    -0.2249370    -1.0326780
  H       -2.3916570    -0.7986900     0.9363150
  H       -1.7508380     0.8532310     1.0447820
  H       -2.6851960     0.3180950    -1.1185210
units angstrom
no_reorient  #important for SAPT in psi4, default
symmetry c1  #important for SAPT in psi4, default
}

set PROPERTIES_ORIGIN ["COM"]
properties('MP2/aug-cc-pvtz', properties = ['dipole'])
--------------------------------------------------------------------------

    Molecular point group: c1
  Charge       = 1
  Multiplicity = 1
  Basis Set: AUG-CC-PVTZ
    Blend: AUG-CC-PVTZ
  Basis Set: (AUG-CC-PVTZ AUX)
    Blend: AUG-CC-PVTZ-JKFIT

    Orbital Energies [Eh]
    ---------------------

    Doubly Occupied:

       1A    -20.733106     2A    -15.857187     3A    -11.457284
       4A    -11.454317     5A    -11.449380     6A    -11.448532
       7A     -1.539626     8A     -1.487157     9A     -1.206619
      10A     -1.166300    11A     -1.092826    12A     -1.025177
      13A     -0.919371    14A     -0.877423    15A     -0.852553
      16A     -0.839657    17A     -0.791940    18A     -0.759026
      19A     -0.744674    20A     -0.738879    21A     -0.726516
      22A     -0.713726    23A     -0.711003    24A     -0.674501
      25A     -0.624389

  @DF-RHF Final Energy:  -287.65815874517193

   => Energetics <=

    Nuclear Repulsion Energy =            278.4622125910139516
    One-Electron Energy =                -932.4584048048413933
    Two-Electron Energy =                 366.3380334686555670
    Total Energy =                       -287.6581587451719315
  Basis Set: (AUG-CC-PVTZ AUX)
    Blend: AUG-CC-PVTZ-RI
    Molecular point group: c1

    Geometry (in Angstrom), charge = 1, multiplicity = 1:

       Center              X                  Y                   Z               Mass
    ------------   -----------------  -----------------  -----------------  -----------------
         O           -1.742713979913     0.052686151368    -0.871203527517    15.994914619570
         N            0.743650020087     0.010215151368    -0.173492527517    14.003074004430
         C           -0.233150979913    -0.704876848632     0.721553472483    12.000000000000
         C            0.989208020087     1.424943151368     0.249385472483    12.000000000000
         C            2.024180020087    -0.750724848632    -0.315916527517    12.000000000000
         C           -1.616181979913    -0.100679848632     0.540974472483    12.000000000000
         H            0.263309020087     0.045938151368    -1.087906527517     1.007825032230
         H           -0.237494979913    -1.747758848632     0.398103472483     1.007825032230
         H            0.129987020087    -0.642358848632     1.750345472483     1.007825032230
         H            1.306753020087     1.479750751368     1.290936872483     1.007825032230
         H            1.702438020087     1.873110151368    -0.441988527517     1.007825032230
         H            0.050492020087     1.973845151368     0.213548472483     1.007825032230
         H            2.498509020087    -0.814806848632     0.663529472483     1.007825032230
         H            1.801307020087    -1.747683848632    -0.694916527517     1.007825032230
         H            2.671627020087    -0.220439848632    -1.013898527517     1.007825032230
         H           -2.356269979913    -0.794192848632     0.955094472483     1.007825032230
         H           -1.715450979913     0.857728151368     1.063561472483     1.007825032230
         H           -2.649808979913     0.322592151368    -1.099741527517     1.007825032230

  Basis Set: AUG-CC-PVTZ
    Blend: AUG-CC-PVTZ
  Basis Set: (AUG-CC-PVTZ AUX)
    Blend: AUG-CC-PVTZ-JKFIT
	 Reference Energy          =    -287.6581587451719315 [Eh]
	 Singles Energy            =      -0.0000000000000000 [Eh]
	 Same-Spin Energy          =      -0.2850212272347659 [Eh]
	 Opposite-Spin Energy      =      -0.9994157764695508 [Eh]
	 Correlation Energy        =      -1.2844370037043167 [Eh]
	 Total Energy              =    -288.9425957488762720 [Eh]

	 ================> DF-SCS-MP2 Energies <==================
	-----------------------------------------------------------
	 SCS Same-Spin Scale       =       0.3333333333333333 [-]
	 SCS Opposite-Spin Scale   =       1.2000000000000000 [-]
	 SCS Same-Spin Energy      =      -0.0950070757449220 [Eh]
	 SCS Opposite-Spin Energy  =      -1.1992989317634610 [Eh]
	 SCS Correlation Energy    =      -1.2943060075083830 [Eh]
	 SCS Total Energy          =    -288.9524647526803278 [Eh]
	-----------------------------------------------------------

  Dipole Moment: [D]
     X:     1.3337      Y:     0.3204      Z:     0.6886     Total:     1.5347

*** Psi4 exiting successfully. Buy a developer a beer!
