                               Psi4 1.4a3.dev225

  ==> Input File <==

--------------------------------------------------------------------------
#psi4
#
memory 32 gb

molecule  {
1 1
  O       -1.7781010     0.0481890    -0.8899830
  N        0.7082630     0.0057180    -0.1922720
  C       -0.2685380    -0.7093740     0.7027740
  C        0.9538210     1.4204460     0.2306060
  C        1.9887930    -0.7552220    -0.3346960
  C       -1.6515690    -0.1051770     0.5221950
  H        0.2279220     0.0414410    -1.1066860
  H       -0.2728820    -1.7522560     0.3793240
  H        0.0946000    -0.6468560     1.7315660
  H        1.3625390     1.4139280     1.2413360
  H        1.6670510     1.8686130    -0.4607680
  H        0.0151050     1.9693480     0.1947690
  H        2.4631220    -0.8193040     0.6447500
  H        1.7659200    -1.7521810    -0.7136960
  H        2.6362400    -0.2249370    -1.0326780
  H       -2.3916570    -0.7986900     0.9363150
  H       -1.7508380     0.8532310     1.0447820
  H       -2.6386115     0.3042338    -1.1067843
units angstrom
no_reorient  #important for SAPT in psi4, default
symmetry c1  #important for SAPT in psi4, default
}

set PROPERTIES_ORIGIN ["COM"]
properties('MP2/aug-cc-pvtz', properties = ['dipole'])
--------------------------------------------------------------------------

    Molecular point group: c1
  Charge       = 1
  Multiplicity = 1
  Basis Set: AUG-CC-PVTZ
    Blend: AUG-CC-PVTZ
  Basis Set: (AUG-CC-PVTZ AUX)
    Blend: AUG-CC-PVTZ-JKFIT

    Orbital Energies [Eh]
    ---------------------

    Doubly Occupied:

       1A    -20.729512     2A    -15.856638     3A    -11.457578
       4A    -11.455132     5A    -11.449844     6A    -11.449457
       7A     -1.549975     8A     -1.489141     9A     -1.209351
      10A     -1.166405    11A     -1.093932    12A     -1.028308
      13A     -0.921319    14A     -0.882444    15A     -0.857193
      16A     -0.837886    17A     -0.793459    18A     -0.758286
      19A     -0.747038    20A     -0.741279    21A     -0.725624
      22A     -0.718012    23A     -0.712590    24A     -0.676821
      25A     -0.626335

  @DF-RHF Final Energy:  -287.65997002006316

   => Energetics <=

    Nuclear Repulsion Energy =            278.8399444580609838
    One-Electron Energy =                -933.1327127096813001
    Two-Electron Energy =                 366.6327982315572172
    Total Energy =                       -287.6599700200631560
  Basis Set: (AUG-CC-PVTZ AUX)
    Blend: AUG-CC-PVTZ-RI
    Molecular point group: c1

    Geometry (in Angstrom), charge = 1, multiplicity = 1:

       Center              X                  Y                   Z               Mass
    ------------   -----------------  -----------------  -----------------  -----------------
         O           -1.744255022712     0.053527238617    -0.870990033954    15.994914619570
         N            0.742108977288     0.011056238617    -0.173279033954    14.003074004430
         C           -0.234692022712    -0.704035761383     0.721766966046    12.000000000000
         C            0.987666977288     1.425784238617     0.249598966046    12.000000000000
         C            2.022638977288    -0.749883761383    -0.315703033954    12.000000000000
         C           -1.617723022712    -0.099838761383     0.541187966046    12.000000000000
         H            0.261767977288     0.046779238617    -1.087693033954     1.007825032230
         H           -0.239036022712    -1.746917761383     0.398316966046     1.007825032230
         H            0.128445977288    -0.641517761383     1.750558966046     1.007825032230
         H            1.396384977288     1.419266238617     1.260328966046     1.007825032230
         H            1.700896977288     1.873951238617    -0.441775033954     1.007825032230
         H            0.048950977288     1.974686238617     0.213761966046     1.007825032230
         H            2.496967977288    -0.813965761383     0.663742966046     1.007825032230
         H            1.799765977288    -1.746842761383    -0.694703033954     1.007825032230
         H            2.670085977288    -0.219598761383    -1.013685033954     1.007825032230
         H           -2.357811022712    -0.793351761383     0.955307966046     1.007825032230
         H           -1.716992022712     0.858569238617     1.063774966046     1.007825032230
         H           -2.604765522712     0.309572038617    -1.087791333954     1.007825032230

  Basis Set: AUG-CC-PVTZ
    Blend: AUG-CC-PVTZ
  Basis Set: (AUG-CC-PVTZ AUX)
    Blend: AUG-CC-PVTZ-JKFIT
	 Reference Energy          =    -287.6599700200631560 [Eh]
	 Singles Energy            =      -0.0000000000000000 [Eh]
	 Same-Spin Energy          =      -0.2844218195941131 [Eh]
	 Opposite-Spin Energy      =      -0.9979370045961786 [Eh]
	 Correlation Energy        =      -1.2823588241902917 [Eh]
	 Total Energy              =    -288.9423288442534385 [Eh]

	 ================> DF-SCS-MP2 Energies <==================
	-----------------------------------------------------------
	 SCS Same-Spin Scale       =       0.3333333333333333 [-]
	 SCS Opposite-Spin Scale   =       1.2000000000000000 [-]
	 SCS Same-Spin Energy      =      -0.0948072731980377 [Eh]
	 SCS Opposite-Spin Energy  =      -1.1975244055154144 [Eh]
	 SCS Correlation Energy    =      -1.2923316787134520 [Eh]
	 SCS Total Energy          =    -288.9523016987765800 [Eh]
	-----------------------------------------------------------

  Dipole Moment: [D]
     X:     1.4359      Y:     0.2898      Z:     0.6959     Total:     1.6217

*** Psi4 exiting successfully. Buy a developer a beer!
