                               Psi4 1.4a3.dev225

  ==> Input File <==

--------------------------------------------------------------------------
#psi4
#
memory 32 gb

molecule  {
1 1
  O       -1.7781010     0.0481890    -0.8899830
  N        0.7000104    -0.0003769    -0.2434844
  C       -0.2685380    -0.7093740     0.7027740
  C        0.9538210     1.4204460     0.2306060
  C        1.9887930    -0.7552220    -0.3346960
  C       -1.6515690    -0.1051770     0.5221950
  H        0.2279220     0.0414410    -1.1066860
  H       -0.2728820    -1.7522560     0.3793240
  H        0.0946000    -0.6468560     1.7315660
  H        1.3625390     1.4139280     1.2413360
  H        1.6670510     1.8686130    -0.4607680
  H        0.0151050     1.9693480     0.1947690
  H        2.4631220    -0.8193040     0.6447500
  H        1.7659200    -1.7521810    -0.7136960
  H        2.6362400    -0.2249370    -1.0326780
  H       -2.3916570    -0.7986900     0.9363150
  H       -1.7508380     0.8532310     1.0447820
  H       -2.6851960     0.3180950    -1.1185210
units angstrom
no_reorient  #important for SAPT in psi4, default
symmetry c1  #important for SAPT in psi4, default
}

set PROPERTIES_ORIGIN ["COM"]
properties('MP2/aug-cc-pvtz', properties = ['dipole'])
--------------------------------------------------------------------------

    Molecular point group: c1
  Charge       = 1
  Multiplicity = 1
  Basis Set: AUG-CC-PVTZ
    Blend: AUG-CC-PVTZ
  Basis Set: (AUG-CC-PVTZ AUX)
    Blend: AUG-CC-PVTZ-JKFIT

    Orbital Energies [Eh]
    ---------------------

    Doubly Occupied:

       1A    -20.732715     2A    -15.853167     3A    -11.458625
       4A    -11.453958     5A    -11.450775     6A    -11.449234
       7A     -1.539308     8A     -1.484920     9A     -1.204466
      10A     -1.162537    11A     -1.099479    12A     -1.027802
      13A     -0.917344    14A     -0.877218    15A     -0.852546
      16A     -0.835666    17A     -0.791467    18A     -0.759169
      19A     -0.747618    20A     -0.738121    21A     -0.726448
      22A     -0.723431    23A     -0.705917    24A     -0.673054
      25A     -0.623862

  @DF-RHF Final Energy:  -287.65695995410397

   => Energetics <=

    Nuclear Repulsion Energy =            278.2301921293838518
    One-Electron Energy =                -931.9966119277816006
    Two-Electron Energy =                 366.1094598442937240
    Total Energy =                       -287.6569599541039679
  Basis Set: (AUG-CC-PVTZ AUX)
    Blend: AUG-CC-PVTZ-RI
    Molecular point group: c1

    Geometry (in Angstrom), charge = 1, multiplicity = 1:

       Center              X                  Y                   Z               Mass
    ------------   -----------------  -----------------  -----------------  -----------------
         O           -1.742451188921     0.054319514950    -0.862898744325    15.994914619570
         N            0.735660211079     0.005753614950    -0.216400144325    14.003074004430
         C           -0.232888188921    -0.703243485050     0.729858255675    12.000000000000
         C            0.989470811079     1.426576514950     0.257690255675    12.000000000000
         C            2.024442811079    -0.749091485050    -0.307611744325    12.000000000000
         C           -1.615919188921    -0.099046485050     0.549279255675    12.000000000000
         H            0.263571811079     0.047571514950    -1.079601744325     1.007825032230
         H           -0.237232188921    -1.746125485050     0.406408255675     1.007825032230
         H            0.130249811079    -0.640725485050     1.758650255675     1.007825032230
         H            1.398188811079     1.420058514950     1.268420255675     1.007825032230
         H            1.702700811079     1.874743514950    -0.433683744325     1.007825032230
         H            0.050754811079     1.975478514950     0.221853255675     1.007825032230
         H            2.498771811079    -0.813173485050     0.671834255675     1.007825032230
         H            1.801569811079    -1.746050485050    -0.686611744325     1.007825032230
         H            2.671889811079    -0.218806485050    -1.005593744325     1.007825032230
         H           -2.356007188921    -0.792559485050     0.963399255675     1.007825032230
         H           -1.715188188921     0.859361514950     1.071866255675     1.007825032230
         H           -2.649546188921     0.324225514950    -1.091436744325     1.007825032230

  Basis Set: AUG-CC-PVTZ
    Blend: AUG-CC-PVTZ
  Basis Set: (AUG-CC-PVTZ AUX)
    Blend: AUG-CC-PVTZ-JKFIT
	 Reference Energy          =    -287.6569599541039679 [Eh]
	 Singles Energy            =      -0.0000000000000000 [Eh]
	 Same-Spin Energy          =      -0.2844980351325800 [Eh]
	 Opposite-Spin Energy      =      -0.9989703693099017 [Eh]
	 Correlation Energy        =      -1.2834684044424818 [Eh]
	 Total Energy              =    -288.9404283585464555 [Eh]

	 ================> DF-SCS-MP2 Energies <==================
	-----------------------------------------------------------
	 SCS Same-Spin Scale       =       0.3333333333333333 [-]
	 SCS Opposite-Spin Scale   =       1.2000000000000000 [-]
	 SCS Same-Spin Energy      =      -0.0948326783775267 [Eh]
	 SCS Opposite-Spin Energy  =      -1.1987644431718820 [Eh]
	 SCS Correlation Energy    =      -1.2935971215494086 [Eh]
	 SCS Total Energy          =    -288.9505570756533643 [Eh]
	-----------------------------------------------------------

  Dipole Moment: [D]
     X:     1.3935      Y:     0.3219      Z:     0.7580     Total:     1.6186

*** Psi4 exiting successfully. Buy a developer a beer!
