                               Psi4 1.4a3.dev225

  ==> Input File <==

--------------------------------------------------------------------------
#psi4
#
memory 32 gb

molecule  {
1 1
  O       -1.7781010     0.0481890    -0.8899830
  N        0.7129800    -0.0168913    -0.2048020
  C       -0.2685380    -0.7093740     0.7027740
  C        0.9538210     1.4204460     0.2306060
  C        1.9887930    -0.7552220    -0.3346960
  C       -1.6515690    -0.1051770     0.5221950
  H        0.2279220     0.0414410    -1.1066860
  H       -0.2728820    -1.7522560     0.3793240
  H        0.0946000    -0.6468560     1.7315660
  H        1.3625390     1.4139280     1.2413360
  H        1.6670510     1.8686130    -0.4607680
  H        0.0151050     1.9693480     0.1947690
  H        2.4631220    -0.8193040     0.6447500
  H        1.7659200    -1.7521810    -0.7136960
  H        2.6362400    -0.2249370    -1.0326780
  H       -2.3916570    -0.7986900     0.9363150
  H       -1.7508380     0.8532310     1.0447820
  H       -2.6851960     0.3180950    -1.1185210
units angstrom
no_reorient  #important for SAPT in psi4, default
symmetry c1  #important for SAPT in psi4, default
}

set PROPERTIES_ORIGIN ["COM"]
properties('MP2/aug-cc-pvtz', properties = ['dipole'])
--------------------------------------------------------------------------

    Molecular point group: c1
  Charge       = 1
  Multiplicity = 1
  Basis Set: AUG-CC-PVTZ
    Blend: AUG-CC-PVTZ
  Basis Set: (AUG-CC-PVTZ AUX)
    Blend: AUG-CC-PVTZ-JKFIT

    Orbital Energies [Eh]
    ---------------------

    Doubly Occupied:

       1A    -20.733272     2A    -15.855798     3A    -11.456887
       4A    -11.454528     5A    -11.451236     6A    -11.447934
       7A     -1.539651     8A     -1.486914     9A     -1.206762
      10A     -1.164597    11A     -1.094350    12A     -1.026024
      13A     -0.918526    14A     -0.876638    15A     -0.853295
      16A     -0.838176    17A     -0.792012    18A     -0.757936
      19A     -0.745273    20A     -0.740531    21A     -0.725666
      22A     -0.719676    23A     -0.707282    24A     -0.675155
      25A     -0.624317

  @DF-RHF Final Energy:  -287.65888219935493

   => Energetics <=

    Nuclear Repulsion Energy =            278.4186364657039690
    One-Electron Energy =                -932.3701647789517892
    Two-Electron Energy =                 366.2926461138928289
    Total Energy =                       -287.6588821993549345
  Basis Set: (AUG-CC-PVTZ AUX)
    Blend: AUG-CC-PVTZ-RI
    Molecular point group: c1

    Geometry (in Angstrom), charge = 1, multiplicity = 1:

       Center              X                  Y                   Z               Mass
    ------------   -----------------  -----------------  -----------------  -----------------
         O           -1.744467067049     0.056886364950    -0.868911189128    15.994914619570
         N            0.746613932951    -0.008193935050    -0.183730189128    14.003074004430
         C           -0.234904067049    -0.700676635050     0.723845810872    12.000000000000
         C            0.987454932951     1.429143364950     0.251677810872    12.000000000000
         C            2.022426932951    -0.746524635050    -0.313624189128    12.000000000000
         C           -1.617935067049    -0.096479635050     0.543266810872    12.000000000000
         H            0.261555932951     0.050138364950    -1.085614189128     1.007825032230
         H           -0.239248067049    -1.743558635050     0.400395810872     1.007825032230
         H            0.128233932951    -0.638158635050     1.752637810872     1.007825032230
         H            1.396172932951     1.422625364950     1.262407810872     1.007825032230
         H            1.700684932951     1.877310364950    -0.439696189128     1.007825032230
         H            0.048738932951     1.978045364950     0.215840810872     1.007825032230
         H            2.496755932951    -0.810606635050     0.665821810872     1.007825032230
         H            1.799553932951    -1.743483635050    -0.692624189128     1.007825032230
         H            2.669873932951    -0.216239635050    -1.011606189128     1.007825032230
         H           -2.358023067049    -0.789992635050     0.957386810872     1.007825032230
         H           -1.717204067049     0.861928364950     1.065853810872     1.007825032230
         H           -2.651562067049     0.326792364950    -1.097449189128     1.007825032230

  Basis Set: AUG-CC-PVTZ
    Blend: AUG-CC-PVTZ
  Basis Set: (AUG-CC-PVTZ AUX)
    Blend: AUG-CC-PVTZ-JKFIT
	 Reference Energy          =    -287.6588821993549345 [Eh]
	 Singles Energy            =      -0.0000000000000000 [Eh]
	 Same-Spin Energy          =      -0.2849358437301556 [Eh]
	 Opposite-Spin Energy      =      -0.9993562212229157 [Eh]
	 Correlation Energy        =      -1.2842920649530711 [Eh]
	 Total Energy              =    -288.9431742643080270 [Eh]

	 ================> DF-SCS-MP2 Energies <==================
	-----------------------------------------------------------
	 SCS Same-Spin Scale       =       0.3333333333333333 [-]
	 SCS Opposite-Spin Scale   =       1.2000000000000000 [-]
	 SCS Same-Spin Energy      =      -0.0949786145767185 [Eh]
	 SCS Opposite-Spin Energy  =      -1.1992274654674988 [Eh]
	 SCS Correlation Energy    =      -1.2942060800442172 [Eh]
	 SCS Total Energy          =    -288.9530882793991395 [Eh]
	-----------------------------------------------------------

  Dipole Moment: [D]
     X:     1.3556      Y:     0.3597      Z:     0.6844     Total:     1.5606

*** Psi4 exiting successfully. Buy a developer a beer!
