                               Psi4 1.4a3.dev225

  ==> Input File <==

--------------------------------------------------------------------------
#psi4
#
memory 32 gb

molecule  {
1 1
  O       -1.7781010     0.0481890    -0.8899830
  N        0.7082630     0.0057180    -0.1922720
  C       -0.2685380    -0.7093740     0.7027740
  C        0.9538210     1.4204460     0.2306060
  C        1.9887930    -0.7552220    -0.3346960
  C       -1.6515690    -0.1051770     0.5221950
  H        0.2279220     0.0414410    -1.1066860
  H       -0.2728820    -1.7522560     0.3793240
  H        0.0946000    -0.6468560     1.7315660
  H        1.3625390     1.4139280     1.2413360
  H        1.5361527     1.7863614    -0.3338809
  H        0.0151050     1.9693480     0.1947690
  H        2.4631220    -0.8193040     0.6447500
  H        1.7659200    -1.7521810    -0.7136960
  H        2.6362400    -0.2249370    -1.0326780
  H       -2.3916570    -0.7986900     0.9363150
  H       -1.7508380     0.8532310     1.0447820
  H       -2.6851960     0.3180950    -1.1185210
units angstrom
no_reorient  #important for SAPT in psi4, default
symmetry c1  #important for SAPT in psi4, default
}

set PROPERTIES_ORIGIN ["COM"]
properties('MP2/aug-cc-pvtz', properties = ['dipole'])
--------------------------------------------------------------------------

    Molecular point group: c1
  Charge       = 1
  Multiplicity = 1
  Basis Set: AUG-CC-PVTZ
    Blend: AUG-CC-PVTZ
  Basis Set: (AUG-CC-PVTZ AUX)
    Blend: AUG-CC-PVTZ-JKFIT

    Orbital Energies [Eh]
    ---------------------

    Doubly Occupied:

       1A    -20.732985     2A    -15.855676     3A    -11.456613
       4A    -11.453872     5A    -11.450052     6A    -11.427421
       7A     -1.539537     8A     -1.488130     9A     -1.211031
      10A     -1.181534    11A     -1.100965    12A     -1.025145
      13A     -0.927477    14A     -0.884039    15A     -0.855732
      16A     -0.837992    17A     -0.799632    18A     -0.769256
      19A     -0.749150    20A     -0.741171    21A     -0.735122
      22A     -0.717790    23A     -0.712155    24A     -0.674243
      25A     -0.624167

  @DF-RHF Final Energy:  -287.62452745504697

   => Energetics <=

    Nuclear Repulsion Energy =            279.5531636545194374
    One-Electron Energy =                -934.4536072170631087
    Two-Electron Energy =                 367.2759161074966414
    Total Energy =                       -287.6245274550469730
  Basis Set: (AUG-CC-PVTZ AUX)
    Blend: AUG-CC-PVTZ-RI
    Molecular point group: c1

    Geometry (in Angstrom), charge = 1, multiplicity = 1:

       Center              X                  Y                   Z               Mass
    ------------   -----------------  -----------------  -----------------  -----------------
         O           -1.742269587502     0.054292297024    -0.872278179390    15.994914619570
         N            0.744094412498     0.011821297024    -0.174567179390    14.003074004430
         C           -0.232706587502    -0.703270702976     0.720478820610    12.000000000000
         C            0.989652412498     1.426549297024     0.248310820610    12.000000000000
         C            2.024624412498    -0.749118702976    -0.316991179390    12.000000000000
         C           -1.615737587502    -0.099073702976     0.539899820610    12.000000000000
         H            0.263753412498     0.047544297024    -1.088981179390     1.007825032230
         H           -0.237050587502    -1.746152702976     0.397028820610     1.007825032230
         H            0.130431412498    -0.640752702976     1.749270820610     1.007825032230
         H            1.398370412498     1.420031297024     1.259040820610     1.007825032230
         H            1.571984112498     1.792464697024    -0.316176079390     1.007825032230
         H            0.050936412498     1.975451297024     0.212473820610     1.007825032230
         H            2.498953412498    -0.813200702976     0.662454820610     1.007825032230
         H            1.801751412498    -1.746077702976    -0.695991179390     1.007825032230
         H            2.672071412498    -0.218833702976    -1.014973179390     1.007825032230
         H           -2.355825587502    -0.792586702976     0.954019820610     1.007825032230
         H           -1.715006587502     0.859334297024     1.062486820610     1.007825032230
         H           -2.649364587502     0.324198297024    -1.100816179390     1.007825032230

  Basis Set: AUG-CC-PVTZ
    Blend: AUG-CC-PVTZ
  Basis Set: (AUG-CC-PVTZ AUX)
    Blend: AUG-CC-PVTZ-JKFIT
	 Reference Energy          =    -287.6245274550469730 [Eh]
	 Singles Energy            =      -0.0000000000000000 [Eh]
	 Same-Spin Energy          =      -0.2849509215841277 [Eh]
	 Opposite-Spin Energy      =      -0.9986400871143515 [Eh]
	 Correlation Energy        =      -1.2835910086984792 [Eh]
	 Total Energy              =    -288.9081184637454385 [Eh]

	 ================> DF-SCS-MP2 Energies <==================
	-----------------------------------------------------------
	 SCS Same-Spin Scale       =       0.3333333333333333 [-]
	 SCS Opposite-Spin Scale   =       1.2000000000000000 [-]
	 SCS Same-Spin Energy      =      -0.0949836405280426 [Eh]
	 SCS Opposite-Spin Energy  =      -1.1983681045372216 [Eh]
	 SCS Correlation Energy    =      -1.2933517450652643 [Eh]
	 SCS Total Energy          =    -288.9178792001122247 [Eh]
	-----------------------------------------------------------

  Dipole Moment: [D]
     X:     1.3642      Y:     0.2949      Z:     0.6718     Total:     1.5490

*** Psi4 exiting successfully. Buy a developer a beer!
