                               Psi4 1.4a3.dev225

  ==> Input File <==

--------------------------------------------------------------------------
#psi4
#
memory 32 gb

molecule  {
1 1
  O       -1.7781010     0.0481890    -0.8899830
  N        0.7082630     0.0057180    -0.1922720
  C       -0.2685380    -0.7093740     0.7027740
  C        0.9538210     1.4204460     0.2306060
  C        1.9887930    -0.7552220    -0.3346960
  C       -1.6515690    -0.1051770     0.5221950
  H        0.2279220     0.0414410    -1.1066860
  H       -0.2726831    -1.7045005     0.3941354
  H        0.0946000    -0.6468560     1.7315660
  H        1.3625390     1.4139280     1.2413360
  H        1.6670510     1.8686130    -0.4607680
  H        0.0151050     1.9693480     0.1947690
  H        2.4631220    -0.8193040     0.6447500
  H        1.7659200    -1.7521810    -0.7136960
  H        2.6362400    -0.2249370    -1.0326780
  H       -2.3916570    -0.7986900     0.9363150
  H       -1.7508380     0.8532310     1.0447820
  H       -2.6851960     0.3180950    -1.1185210
units angstrom
no_reorient  #important for SAPT in psi4, default
symmetry c1  #important for SAPT in psi4, default
}

set PROPERTIES_ORIGIN ["COM"]
properties('MP2/aug-cc-pvtz', properties = ['dipole'])
--------------------------------------------------------------------------

    Molecular point group: c1
  Charge       = 1
  Multiplicity = 1
  Basis Set: AUG-CC-PVTZ
    Blend: AUG-CC-PVTZ
  Basis Set: (AUG-CC-PVTZ AUX)
    Blend: AUG-CC-PVTZ-JKFIT

    Orbital Energies [Eh]
    ---------------------

    Doubly Occupied:

       1A    -20.733176     2A    -15.855997     3A    -11.454027
       4A    -11.451583     5A    -11.449677     6A    -11.448925
       7A     -1.539740     8A     -1.487231     9A     -1.209579
      10A     -1.166261    11A     -1.092962    12A     -1.027491
      13A     -0.920953    14A     -0.879501    15A     -0.854448
      16A     -0.837295    17A     -0.791987    18A     -0.758852
      19A     -0.746168    20A     -0.740780    21A     -0.726480
      22A     -0.718265    23A     -0.714119    24A     -0.674351
      25A     -0.624688

  @DF-RHF Final Energy:  -287.65852750024123

   => Energetics <=

    Nuclear Repulsion Energy =            278.7635598943003288
    One-Electron Energy =                -933.0351019142359519
    Two-Electron Energy =                 366.6130145196943886
    Total Energy =                       -287.6585275002412345
  Basis Set: (AUG-CC-PVTZ AUX)
    Blend: AUG-CC-PVTZ-RI
    Molecular point group: c1

    Geometry (in Angstrom), charge = 1, multiplicity = 1:

       Center              X                  Y                   Z               Mass
    ------------   -----------------  -----------------  -----------------  -----------------
         O           -1.743736123960     0.052837955116    -0.871024429499    15.994914619570
         N            0.742627876040     0.010366955116    -0.173313429499    14.003074004430
         C           -0.234173123960    -0.704725044884     0.721732570501    12.000000000000
         C            0.988185876040     1.425094955116     0.249564570501    12.000000000000
         C            2.023157876040    -0.750573044884    -0.315737429499    12.000000000000
         C           -1.617204123960    -0.100528044884     0.541153570501    12.000000000000
         H            0.262286876040     0.046089955116    -1.087727429499     1.007825032230
         H           -0.238318223960    -1.699851544884     0.413093970501     1.007825032230
         H            0.128964876040    -0.642207044884     1.750524570501     1.007825032230
         H            1.396903876040     1.418576955116     1.260294570501     1.007825032230
         H            1.701415876040     1.873261955116    -0.441809429499     1.007825032230
         H            0.049469876040     1.973996955116     0.213727570501     1.007825032230
         H            2.497486876040    -0.814655044884     0.663708570501     1.007825032230
         H            1.800284876040    -1.747532044884    -0.694737429499     1.007825032230
         H            2.670604876040    -0.220288044884    -1.013719429499     1.007825032230
         H           -2.357292123960    -0.794041044884     0.955273570501     1.007825032230
         H           -1.716473123960     0.857879955116     1.063740570501     1.007825032230
         H           -2.650831123960     0.322743955116    -1.099562429499     1.007825032230

  Basis Set: AUG-CC-PVTZ
    Blend: AUG-CC-PVTZ
  Basis Set: (AUG-CC-PVTZ AUX)
    Blend: AUG-CC-PVTZ-JKFIT
	 Reference Energy          =    -287.6585275002412345 [Eh]
	 Singles Energy            =      -0.0000000000000000 [Eh]
	 Same-Spin Energy          =      -0.2849264288697319 [Eh]
	 Opposite-Spin Energy      =      -0.9990439371192996 [Eh]
	 Correlation Energy        =      -1.2839703659890316 [Eh]
	 Total Energy              =    -288.9424978662302692 [Eh]

	 ================> DF-SCS-MP2 Energies <==================
	-----------------------------------------------------------
	 SCS Same-Spin Scale       =       0.3333333333333333 [-]
	 SCS Opposite-Spin Scale   =       1.2000000000000000 [-]
	 SCS Same-Spin Energy      =      -0.0949754762899106 [Eh]
	 SCS Opposite-Spin Energy  =      -1.1988527245431595 [Eh]
	 SCS Correlation Energy    =      -1.2938282008330702 [Eh]
	 SCS Total Energy          =    -288.9523557010742820 [Eh]
	-----------------------------------------------------------

  Dipole Moment: [D]
     X:     1.3734      Y:     0.3060      Z:     0.6622     Total:     1.5551

*** Psi4 exiting successfully. Buy a developer a beer!
