                               Psi4 1.4a3.dev225

  ==> Input File <==

--------------------------------------------------------------------------
#psi4
#
memory 32 gb

molecule  {
1 1
  O       -1.7781010     0.0481890    -0.8899830
  N        0.7082630     0.0057180    -0.1922720
  C       -0.2685380    -0.7093740     0.7027740
  C        0.9538210     1.4204460     0.2306060
  C        1.9887930    -0.7552220    -0.3346960
  C       -1.6515690    -0.1051770     0.5221950
  H        0.2279220     0.0414410    -1.1066860
  H       -0.2728820    -1.7522560     0.3793240
  H        0.0946000    -0.6468560     1.7315660
  H        1.3625390     1.4139280     1.2413360
  H        1.6670510     1.8686130    -0.4607680
  H        0.0151050     1.9693480     0.1947690
  H        2.5501435    -0.8310606     0.8244415
  H        1.7659200    -1.7521810    -0.7136960
  H        2.6362400    -0.2249370    -1.0326780
  H       -2.3916570    -0.7986900     0.9363150
  H       -1.7508380     0.8532310     1.0447820
  H       -2.6851960     0.3180950    -1.1185210
units angstrom
no_reorient  #important for SAPT in psi4, default
symmetry c1  #important for SAPT in psi4, default
}

set PROPERTIES_ORIGIN ["COM"]
properties('MP2/aug-cc-pvtz', properties = ['dipole'])
--------------------------------------------------------------------------

    Molecular point group: c1
  Charge       = 1
  Multiplicity = 1
  Basis Set: AUG-CC-PVTZ
    Blend: AUG-CC-PVTZ
  Basis Set: (AUG-CC-PVTZ AUX)
    Blend: AUG-CC-PVTZ-JKFIT

    Orbital Energies [Eh]
    ---------------------

    Doubly Occupied:

       1A    -20.733312     2A    -15.857916     3A    -11.469039
       4A    -11.456950     5A    -11.454135     6A    -11.448958
       7A     -1.539834     8A     -1.487286     9A     -1.205671
      10A     -1.160564    11A     -1.084438    12A     -1.023995
      13A     -0.919460    14A     -0.873447    15A     -0.853625
      16A     -0.837442    17A     -0.789339    18A     -0.754372
      19A     -0.740421    20A     -0.729491    21A     -0.723363
      22A     -0.713030    23A     -0.698528    24A     -0.671543
      25A     -0.624397

  @DF-RHF Final Energy:  -287.63840289862520

   => Energetics <=

    Nuclear Repulsion Energy =            277.7401573048101682
    One-Electron Energy =                -931.0560068001365153
    Two-Electron Energy =                 365.6774465967011452
    Total Energy =                       -287.6384028986252019
  Basis Set: (AUG-CC-PVTZ AUX)
    Blend: AUG-CC-PVTZ-RI
    Molecular point group: c1

    Geometry (in Angstrom), charge = 1, multiplicity = 1:

       Center              X                  Y                   Z               Mass
    ------------   -----------------  -----------------  -----------------  -----------------
         O           -1.744707376651     0.053503695226    -0.872868882912    15.994914619570
         N            0.741656623349     0.011032695226    -0.175157882912    14.003074004430
         C           -0.235144376651    -0.704059304774     0.719888117088    12.000000000000
         C            0.987214623349     1.425760695226     0.247720117088    12.000000000000
         C            2.022186623349    -0.749907304774    -0.317581882912    12.000000000000
         C           -1.618175376651    -0.099862304774     0.539309117088    12.000000000000
         H            0.261315623349     0.046755695226    -1.089571882912     1.007825032230
         H           -0.239488376651    -1.746941304774     0.396438117088     1.007825032230
         H            0.127993623349    -0.641541304774     1.748680117088     1.007825032230
         H            1.395932623349     1.419242695226     1.258450117088     1.007825032230
         H            1.700444623349     1.873927695226    -0.443653882912     1.007825032230
         H            0.048498623349     1.974662695226     0.211883117088     1.007825032230
         H            2.583537123349    -0.825745904774     0.841555617088     1.007825032230
         H            1.799313623349    -1.746866304774    -0.696581882912     1.007825032230
         H            2.669633623349    -0.219622304774    -1.015563882912     1.007825032230
         H           -2.358263376651    -0.793375304774     0.953429117088     1.007825032230
         H           -1.717444376651     0.858545695226     1.061896117088     1.007825032230
         H           -2.651802376651     0.323409695226    -1.101406882912     1.007825032230

  Basis Set: AUG-CC-PVTZ
    Blend: AUG-CC-PVTZ
  Basis Set: (AUG-CC-PVTZ AUX)
    Blend: AUG-CC-PVTZ-JKFIT
	 Reference Energy          =    -287.6384028986252019 [Eh]
	 Singles Energy            =      -0.0000000000000000 [Eh]
	 Same-Spin Energy          =      -0.2852720419024261 [Eh]
	 Opposite-Spin Energy      =      -1.0012190254570181 [Eh]
	 Correlation Energy        =      -1.2864910673594441 [Eh]
	 Total Energy              =    -288.9248939659846656 [Eh]

	 ================> DF-SCS-MP2 Energies <==================
	-----------------------------------------------------------
	 SCS Same-Spin Scale       =       0.3333333333333333 [-]
	 SCS Opposite-Spin Scale   =       1.2000000000000000 [-]
	 SCS Same-Spin Energy      =      -0.0950906806341420 [Eh]
	 SCS Opposite-Spin Energy  =      -1.2014628305484216 [Eh]
	 SCS Correlation Energy    =      -1.2965535111825637 [Eh]
	 SCS Total Energy          =    -288.9349564098077394 [Eh]
	-----------------------------------------------------------

  Dipole Moment: [D]
     X:     1.3711      Y:     0.3054      Z:     0.6610     Total:     1.5524

*** Psi4 exiting successfully. Buy a developer a beer!
