                               Psi4 1.4a3.dev225

  ==> Input File <==

--------------------------------------------------------------------------
#psi4
#
memory 32 gb

molecule  {
1 1
  O       -1.7781010     0.0481890    -0.8899830
  N        0.7082630     0.0057180    -0.1922720
  C       -0.2685380    -0.7093740     0.7027740
  C        0.9538210     1.4204460     0.2306060
  C        1.9887930    -0.7552220    -0.3346960
  C       -1.6515690    -0.1051770     0.5221950
  H        0.2279220     0.0414410    -1.1066860
  H       -0.2736777    -1.9432778     0.3200785
  H        0.0946000    -0.6468560     1.7315660
  H        1.3625390     1.4139280     1.2413360
  H        1.6670510     1.8686130    -0.4607680
  H        0.0151050     1.9693480     0.1947690
  H        2.4631220    -0.8193040     0.6447500
  H        1.7659200    -1.7521810    -0.7136960
  H        2.6362400    -0.2249370    -1.0326780
  H       -2.3916570    -0.7986900     0.9363150
  H       -1.7508380     0.8532310     1.0447820
  H       -2.6851960     0.3180950    -1.1185210
units angstrom
no_reorient  #important for SAPT in psi4, default
symmetry c1  #important for SAPT in psi4, default
}

set PROPERTIES_ORIGIN ["COM"]
properties('MP2/aug-cc-pvtz', properties = ['dipole'])
--------------------------------------------------------------------------

    Molecular point group: c1
  Charge       = 1
  Multiplicity = 1
  Basis Set: AUG-CC-PVTZ
    Blend: AUG-CC-PVTZ
  Basis Set: (AUG-CC-PVTZ AUX)
    Blend: AUG-CC-PVTZ-JKFIT

    Orbital Energies [Eh]
    ---------------------

    Doubly Occupied:

       1A    -20.733110     2A    -15.857642     3A    -11.476241
       4A    -11.455533     5A    -11.450142     6A    -11.448964
       7A     -1.539492     8A     -1.487199     9A     -1.199792
      10A     -1.165421    11A     -1.093370    12A     -1.018710
      13A     -0.914786    14A     -0.870817    15A     -0.849331
      16A     -0.837269    17A     -0.792375    18A     -0.755816
      19A     -0.746162    20A     -0.737727    21A     -0.723480
      22A     -0.717038    23A     -0.689884    24A     -0.669748
      25A     -0.622045

  @DF-RHF Final Energy:  -287.63825475930548

   => Energetics <=

    Nuclear Repulsion Energy =            277.6296793999652550
    One-Electron Energy =                -930.8316802490586497
    Two-Electron Energy =                 365.5637460897878555
    Total Energy =                       -287.6382547593054824
  Basis Set: (AUG-CC-PVTZ AUX)
    Blend: AUG-CC-PVTZ-RI
    Molecular point group: c1

    Geometry (in Angstrom), charge = 1, multiplicity = 1:

       Center              X                  Y                   Z               Mass
    ------------   -----------------  -----------------  -----------------  -----------------
         O           -1.743724997733     0.055509069494    -0.870195982028    15.994914619570
         N            0.742639002267     0.013038069494    -0.172484982028    14.003074004430
         C           -0.234161997733    -0.702053930506     0.722561017972    12.000000000000
         C            0.988197002267     1.427766069494     0.250393017972    12.000000000000
         C            2.023169002267    -0.747901930506    -0.314908982028    12.000000000000
         C           -1.617192997733    -0.097856930506     0.541982017972    12.000000000000
         H            0.262298002267     0.048761069494    -1.086898982028     1.007825032230
         H           -0.239301697733    -1.935957730506     0.339865517972     1.007825032230
         H            0.128976002267    -0.639535930506     1.751353017972     1.007825032230
         H            1.396915002267     1.421248069494     1.261123017972     1.007825032230
         H            1.701427002267     1.875933069494    -0.440980982028     1.007825032230
         H            0.049481002267     1.976668069494     0.214556017972     1.007825032230
         H            2.497498002267    -0.811983930506     0.664537017972     1.007825032230
         H            1.800296002267    -1.744860930506    -0.693908982028     1.007825032230
         H            2.670616002267    -0.217616930506    -1.012890982028     1.007825032230
         H           -2.357280997733    -0.791369930506     0.956102017972     1.007825032230
         H           -1.716461997733     0.860551069494     1.064569017972     1.007825032230
         H           -2.650819997733     0.325415069494    -1.098733982028     1.007825032230

  Basis Set: AUG-CC-PVTZ
    Blend: AUG-CC-PVTZ
  Basis Set: (AUG-CC-PVTZ AUX)
    Blend: AUG-CC-PVTZ-JKFIT
	 Reference Energy          =    -287.6382547593054824 [Eh]
	 Singles Energy            =      -0.0000000000000000 [Eh]
	 Same-Spin Energy          =      -0.2854728753472576 [Eh]
	 Opposite-Spin Energy      =      -1.0014636548678530 [Eh]
	 Correlation Energy        =      -1.2869365302151108 [Eh]
	 Total Energy              =    -288.9251912895205692 [Eh]

	 ================> DF-SCS-MP2 Energies <==================
	-----------------------------------------------------------
	 SCS Same-Spin Scale       =       0.3333333333333333 [-]
	 SCS Opposite-Spin Scale   =       1.2000000000000000 [-]
	 SCS Same-Spin Energy      =      -0.0951576251157525 [Eh]
	 SCS Opposite-Spin Energy  =      -1.2017563858414235 [Eh]
	 SCS Correlation Energy    =      -1.2969140109571760 [Eh]
	 SCS Total Energy          =    -288.9351687702626350 [Eh]
	-----------------------------------------------------------

  Dipole Moment: [D]
     X:     1.3503      Y:     0.3359      Z:     0.6630     Total:     1.5413

*** Psi4 exiting successfully. Buy a developer a beer!
