                               Psi4 1.4a3.dev225

  ==> Input File <==

--------------------------------------------------------------------------
#psi4
#
memory 32 gb

molecule  {
1 1
  O       -1.7781010     0.0481890    -0.8899830
  N        0.6076619     0.0308574    -0.2050512
  C       -0.2685380    -0.7093740     0.7027740
  C        0.9538210     1.4204460     0.2306060
  C        1.9887930    -0.7552220    -0.3346960
  C       -1.6515690    -0.1051770     0.5221950
  H        0.2279220     0.0414410    -1.1066860
  H       -0.2728820    -1.7522560     0.3793240
  H        0.0946000    -0.6468560     1.7315660
  H        1.3625390     1.4139280     1.2413360
  H        1.6670510     1.8686130    -0.4607680
  H        0.0151050     1.9693480     0.1947690
  H        2.4631220    -0.8193040     0.6447500
  H        1.7659200    -1.7521810    -0.7136960
  H        2.6362400    -0.2249370    -1.0326780
  H       -2.3916570    -0.7986900     0.9363150
  H       -1.7508380     0.8532310     1.0447820
  H       -2.6851960     0.3180950    -1.1185210
units angstrom
no_reorient  #important for SAPT in psi4, default
symmetry c1  #important for SAPT in psi4, default
}

set PROPERTIES_ORIGIN ["COM"]
properties('MP2/aug-cc-pvtz', properties = ['dipole'])
--------------------------------------------------------------------------

    Molecular point group: c1
  Charge       = 1
  Multiplicity = 1
  Basis Set: AUG-CC-PVTZ
    Blend: AUG-CC-PVTZ
  Basis Set: (AUG-CC-PVTZ AUX)
    Blend: AUG-CC-PVTZ-JKFIT

    Orbital Energies [Eh]
    ---------------------

    Doubly Occupied:

       1A    -20.730298     2A    -15.852225     3A    -11.458167
       4A    -11.452969     5A    -11.449869     6A    -11.449197
       7A     -1.540010     8A     -1.484520     9A     -1.205706
      10A     -1.157016    11A     -1.102245    12A     -1.030855
      13A     -0.916872    14A     -0.881514    15A     -0.847447
      16A     -0.831478    17A     -0.787114    18A     -0.760266
      19A     -0.753718    20A     -0.748955    21A     -0.728588
      22A     -0.712094    23A     -0.706437    24A     -0.664874
      25A     -0.621729

  @DF-RHF Final Energy:  -287.64856532039965

   => Energetics <=

    Nuclear Repulsion Energy =            278.9599171106401627
    One-Electron Energy =                -933.4686398778397916
    Two-Electron Energy =                 366.8601574467999740
    Total Energy =                       -287.6485653203996549
  Basis Set: (AUG-CC-PVTZ AUX)
    Blend: AUG-CC-PVTZ-RI
    Molecular point group: c1

    Geometry (in Angstrom), charge = 1, multiplicity = 1:

       Center              X                  Y                   Z               Mass
    ------------   -----------------  -----------------  -----------------  -----------------
         O           -1.728097367573     0.049464735910    -0.868872455719    15.994914619570
         N            0.657665532427     0.032133135910    -0.183940655719    14.003074004430
         C           -0.218534367573    -0.708098264090     0.723884544281    12.000000000000
         C            1.003824632427     1.421721735910     0.251716544281    12.000000000000
         C            2.038796632427    -0.753946264090    -0.313585455719    12.000000000000
         C           -1.601565367573    -0.103901264090     0.543305544281    12.000000000000
         H            0.277925632427     0.042716735910    -1.085575455719     1.007825032230
         H           -0.222878367573    -1.750980264090     0.400434544281     1.007825032230
         H            0.144603632427    -0.645580264090     1.752676544281     1.007825032230
         H            1.412542632427     1.415203735910     1.262446544281     1.007825032230
         H            1.717054632427     1.869888735910    -0.439657455719     1.007825032230
         H            0.065108632427     1.970623735910     0.215879544281     1.007825032230
         H            2.513125632427    -0.818028264090     0.665860544281     1.007825032230
         H            1.815923632427    -1.750905264090    -0.692585455719     1.007825032230
         H            2.686243632427    -0.223661264090    -1.011567455719     1.007825032230
         H           -2.341653367573    -0.797414264090     0.957425544281     1.007825032230
         H           -1.700834367573     0.854506735910     1.065892544281     1.007825032230
         H           -2.635192367573     0.319370735910    -1.097410455719     1.007825032230

  Basis Set: AUG-CC-PVTZ
    Blend: AUG-CC-PVTZ
  Basis Set: (AUG-CC-PVTZ AUX)
    Blend: AUG-CC-PVTZ-JKFIT
	 Reference Energy          =    -287.6485653203996549 [Eh]
	 Singles Energy            =      -0.0000000000000000 [Eh]
	 Same-Spin Energy          =      -0.2848724895501761 [Eh]
	 Opposite-Spin Energy      =      -0.9997416807630334 [Eh]
	 Correlation Energy        =      -1.2846141703132095 [Eh]
	 Total Energy              =    -288.9331794907128597 [Eh]

	 ================> DF-SCS-MP2 Energies <==================
	-----------------------------------------------------------
	 SCS Same-Spin Scale       =       0.3333333333333333 [-]
	 SCS Opposite-Spin Scale   =       1.2000000000000000 [-]
	 SCS Same-Spin Energy      =      -0.0949574965167254 [Eh]
	 SCS Opposite-Spin Energy  =      -1.1996900169156399 [Eh]
	 SCS Correlation Energy    =      -1.2946475134323652 [Eh]
	 SCS Total Energy          =    -288.9432128338320354 [Eh]
	-----------------------------------------------------------

  Dipole Moment: [D]
     X:     1.6432      Y:     0.2552      Z:     0.6814     Total:     1.7971

*** Psi4 exiting successfully. Buy a developer a beer!
