                               Psi4 1.4a3.dev225

  ==> Input File <==

--------------------------------------------------------------------------
#psi4
#
memory 32 gb

molecule  {
1 1
  O       -1.7781010     0.0481890    -0.8899830
  N        0.7082630     0.0057180    -0.1922720
  C       -0.2685380    -0.7093740     0.7027740
  C        0.9538210     1.4204460     0.2306060
  C        1.9887930    -0.7552220    -0.3346960
  C       -1.6515690    -0.1051770     0.5221950
  H        0.2279220     0.0414410    -1.1066860
  H       -0.2728820    -1.7522560     0.3793240
  H        0.0946000    -0.6468560     1.7315660
  H        1.3305078     1.3973422     1.2534654
  H        1.6670510     1.8686130    -0.4607680
  H        0.0151050     1.9693480     0.1947690
  H        2.4631220    -0.8193040     0.6447500
  H        1.7659200    -1.7521810    -0.7136960
  H        2.6362400    -0.2249370    -1.0326780
  H       -2.3916570    -0.7986900     0.9363150
  H       -1.7508380     0.8532310     1.0447820
  H       -2.6851960     0.3180950    -1.1185210
units angstrom
no_reorient  #important for SAPT in psi4, default
symmetry c1  #important for SAPT in psi4, default
}

set PROPERTIES_ORIGIN ["COM"]
properties('MP2/aug-cc-pvtz', properties = ['dipole'])
--------------------------------------------------------------------------

    Molecular point group: c1
  Charge       = 1
  Multiplicity = 1
  Basis Set: AUG-CC-PVTZ
    Blend: AUG-CC-PVTZ
  Basis Set: (AUG-CC-PVTZ AUX)
    Blend: AUG-CC-PVTZ-JKFIT

    Orbital Energies [Eh]
    ---------------------

    Doubly Occupied:

       1A    -20.733128     2A    -15.855934     3A    -11.457122
       4A    -11.454233     5A    -11.449461     6A    -11.449297
       7A     -1.539623     8A     -1.487106     9A     -1.206643
      10A     -1.166221    11A     -1.092810    12A     -1.025059
      13A     -0.919082    14A     -0.877348    15A     -0.853270
      16A     -0.837066    17A     -0.791916    18A     -0.758777
      19A     -0.745348    20A     -0.739234    21A     -0.725651
      22A     -0.717234    23A     -0.711744    24A     -0.674175
      25A     -0.624382

  @DF-RHF Final Energy:  -287.65920210646419

   => Energetics <=

    Nuclear Repulsion Energy =            278.5559506136966661
    One-Electron Energy =                -932.6465781228254173
    Two-Electron Energy =                 366.4314254026646154
    Total Energy =                       -287.6592021064641926
  Basis Set: (AUG-CC-PVTZ AUX)
    Blend: AUG-CC-PVTZ-RI
    Molecular point group: c1

    Geometry (in Angstrom), charge = 1, multiplicity = 1:

       Center              X                  Y                   Z               Mass
    ------------   -----------------  -----------------  -----------------  -----------------
         O           -1.743375577612     0.053557717722    -0.870994426946    15.994914619570
         N            0.742988422388     0.011086717722    -0.173283426946    14.003074004430
         C           -0.233812577612    -0.704005282278     0.721762573054    12.000000000000
         C            0.988546422388     1.425814717722     0.249594573054    12.000000000000
         C            2.023518422388    -0.749853282278    -0.315707426946    12.000000000000
         C           -1.616843577612    -0.099808282278     0.541183573054    12.000000000000
         H            0.262647422388     0.046809717722    -1.087697426946     1.007825032230
         H           -0.238156577612    -1.746887282278     0.398312573054     1.007825032230
         H            0.129325422388    -0.641487282278     1.750554573054     1.007825032230
         H            1.365233222388     1.402710917722     1.272453973054     1.007825032230
         H            1.701776422388     1.873981717722    -0.441779426946     1.007825032230
         H            0.049830422388     1.974716717722     0.213757573054     1.007825032230
         H            2.497847422388    -0.813935282278     0.663738573054     1.007825032230
         H            1.800645422388    -1.746812282278    -0.694707426946     1.007825032230
         H            2.670965422388    -0.219568282278    -1.013689426946     1.007825032230
         H           -2.356931577612    -0.793321282278     0.955303573054     1.007825032230
         H           -1.716112577612     0.858599717722     1.063770573054     1.007825032230
         H           -2.650470577612     0.323463717722    -1.099532426946     1.007825032230

  Basis Set: AUG-CC-PVTZ
    Blend: AUG-CC-PVTZ
  Basis Set: (AUG-CC-PVTZ AUX)
    Blend: AUG-CC-PVTZ-JKFIT
	 Reference Energy          =    -287.6592021064641926 [Eh]
	 Singles Energy            =      -0.0000000000000000 [Eh]
	 Same-Spin Energy          =      -0.2850389036956438 [Eh]
	 Opposite-Spin Energy      =      -0.9994566843396966 [Eh]
	 Correlation Energy        =      -1.2844955880353404 [Eh]
	 Total Energy              =    -288.9436976944995195 [Eh]

	 ================> DF-SCS-MP2 Energies <==================
	-----------------------------------------------------------
	 SCS Same-Spin Scale       =       0.3333333333333333 [-]
	 SCS Opposite-Spin Scale   =       1.2000000000000000 [-]
	 SCS Same-Spin Energy      =      -0.0950129678985479 [Eh]
	 SCS Opposite-Spin Energy  =      -1.1993480212076360 [Eh]
	 SCS Correlation Energy    =      -1.2943609891061838 [Eh]
	 SCS Total Energy          =    -288.9535630955703596 [Eh]
	-----------------------------------------------------------

  Dipole Moment: [D]
     X:     1.3539      Y:     0.3066      Z:     0.6604     Total:     1.5373

*** Psi4 exiting successfully. Buy a developer a beer!
