                               Psi4 1.4a3.dev225

  ==> Input File <==

--------------------------------------------------------------------------
#psi4
#
memory 32 gb

molecule  {
1 1
  O       -1.7781010     0.0481890    -0.8899830
  N        0.7082630     0.0057180    -0.1922720
  C       -0.2685380    -0.7093740     0.7027740
  C        0.9538210     1.4204460     0.2306060
  C        1.9887930    -0.7552220    -0.3346960
  C       -1.6515690    -0.1051770     0.5221950
  H        0.2279220     0.0414410    -1.1066860
  H       -0.2728820    -1.7522560     0.3793240
  H        0.0946000    -0.6468560     1.7315660
  H        1.3783703     1.4222251     1.2348085
  H        1.6670510     1.8686130    -0.4607680
  H        0.0151050     1.9693480     0.1947690
  H        2.4631220    -0.8193040     0.6447500
  H        1.7659200    -1.7521810    -0.7136960
  H        2.6362400    -0.2249370    -1.0326780
  H       -2.3916570    -0.7986900     0.9363150
  H       -1.7508380     0.8532310     1.0447820
  H       -2.6851960     0.3180950    -1.1185210
units angstrom
no_reorient  #important for SAPT in psi4, default
symmetry c1  #important for SAPT in psi4, default
}

set PROPERTIES_ORIGIN ["COM"]
properties('MP2/aug-cc-pvtz', properties = ['dipole'])
--------------------------------------------------------------------------

    Molecular point group: c1
  Charge       = 1
  Multiplicity = 1
  Basis Set: AUG-CC-PVTZ
    Blend: AUG-CC-PVTZ
  Basis Set: (AUG-CC-PVTZ AUX)
    Blend: AUG-CC-PVTZ-JKFIT

    Orbital Energies [Eh]
    ---------------------

    Doubly Occupied:

       1A    -20.733139     2A    -15.856400     3A    -11.457001
       4A    -11.454145     5A    -11.449576     6A    -11.449003
       7A     -1.539633     8A     -1.487113     9A     -1.206659
      10A     -1.165964    11A     -1.093103    12A     -1.024862
      13A     -0.919117    14A     -0.877044    15A     -0.853725
      16A     -0.837382    17A     -0.792100    18A     -0.757233
      19A     -0.746395    20A     -0.739655    21A     -0.724985
      22A     -0.716996    23A     -0.711634    24A     -0.674074
      25A     -0.624348

  @DF-RHF Final Energy:  -287.65934744140759

   => Energetics <=

    Nuclear Repulsion Energy =            278.4921766675188906
    One-Electron Energy =                -932.5204773095973678
    Two-Electron Energy =                 366.3689532006708305
    Total Energy =                       -287.6593474414075899
  Basis Set: (AUG-CC-PVTZ AUX)
    Blend: AUG-CC-PVTZ-RI
    Molecular point group: c1

    Geometry (in Angstrom), charge = 1, multiplicity = 1:

       Center              X                  Y                   Z               Mass
    ------------   -----------------  -----------------  -----------------  -----------------
         O           -1.743910997905     0.053279361814    -0.870785719025    15.994914619570
         N            0.742453002095     0.010808361814    -0.173074719025    14.003074004430
         C           -0.234347997905    -0.704283638186     0.721971280975    12.000000000000
         C            0.988011002095     1.425536361814     0.249803280975    12.000000000000
         C            2.022983002095    -0.750131638186    -0.315498719025    12.000000000000
         C           -1.617378997905    -0.100086638186     0.541392280975    12.000000000000
         H            0.262112002095     0.046531361814    -1.087488719025     1.007825032230
         H           -0.238691997905    -1.747165638186     0.398521280975     1.007825032230
         H            0.128790002095    -0.641765638186     1.750763280975     1.007825032230
         H            1.412560302095     1.427315461814     1.254005780975     1.007825032230
         H            1.701241002095     1.873703361814    -0.441570719025     1.007825032230
         H            0.049295002095     1.974438361814     0.213966280975     1.007825032230
         H            2.497312002095    -0.814213638186     0.663947280975     1.007825032230
         H            1.800110002095    -1.747090638186    -0.694498719025     1.007825032230
         H            2.670430002095    -0.219846638186    -1.013480719025     1.007825032230
         H           -2.357466997905    -0.793599638186     0.955512280975     1.007825032230
         H           -1.716647997905     0.858321361814     1.063979280975     1.007825032230
         H           -2.651005997905     0.323185361814    -1.099323719025     1.007825032230

  Basis Set: AUG-CC-PVTZ
    Blend: AUG-CC-PVTZ
  Basis Set: (AUG-CC-PVTZ AUX)
    Blend: AUG-CC-PVTZ-JKFIT
	 Reference Energy          =    -287.6593474414075899 [Eh]
	 Singles Energy            =      -0.0000000000000000 [Eh]
	 Same-Spin Energy          =      -0.2850084157677850 [Eh]
	 Opposite-Spin Energy      =      -0.9993959516696849 [Eh]
	 Correlation Energy        =      -1.2844043674374699 [Eh]
	 Total Energy              =    -288.9437518088450361 [Eh]

	 ================> DF-SCS-MP2 Energies <==================
	-----------------------------------------------------------
	 SCS Same-Spin Scale       =       0.3333333333333333 [-]
	 SCS Opposite-Spin Scale   =       1.2000000000000000 [-]
	 SCS Same-Spin Energy      =      -0.0950028052559283 [Eh]
	 SCS Opposite-Spin Energy  =      -1.1992751420036218 [Eh]
	 SCS Correlation Energy    =      -1.2942779472595503 [Eh]
	 SCS Total Energy          =    -288.9536253886671489 [Eh]
	-----------------------------------------------------------

  Dipole Moment: [D]
     X:     1.3764      Y:     0.3095      Z:     0.6629     Total:     1.5588

*** Psi4 exiting successfully. Buy a developer a beer!
