                               Psi4 1.4a3.dev225

  ==> Input File <==

--------------------------------------------------------------------------
#psi4
#
memory 32 gb

molecule  {
1 1
  O       -1.7781010     0.0481890    -0.8899830
  N        0.7082630     0.0057180    -0.1922720
  C       -0.2909839    -0.7515034     0.7259302
  C        0.9538210     1.4204460     0.2306060
  C        1.9887930    -0.7552220    -0.3346960
  C       -1.6515690    -0.1051770     0.5221950
  H        0.2279220     0.0414410    -1.1066860
  H       -0.2728820    -1.7522560     0.3793240
  H        0.0946000    -0.6468560     1.7315660
  H        1.3625390     1.4139280     1.2413360
  H        1.6670510     1.8686130    -0.4607680
  H        0.0151050     1.9693480     0.1947690
  H        2.4631220    -0.8193040     0.6447500
  H        1.7659200    -1.7521810    -0.7136960
  H        2.6362400    -0.2249370    -1.0326780
  H       -2.3916570    -0.7986900     0.9363150
  H       -1.7508380     0.8532310     1.0447820
  H       -2.6851960     0.3180950    -1.1185210
units angstrom
no_reorient  #important for SAPT in psi4, default
symmetry c1  #important for SAPT in psi4, default
}

set PROPERTIES_ORIGIN ["COM"]
properties('MP2/aug-cc-pvtz', properties = ['dipole'])
--------------------------------------------------------------------------

    Molecular point group: c1
  Charge       = 1
  Multiplicity = 1
  Basis Set: AUG-CC-PVTZ
    Blend: AUG-CC-PVTZ
  Basis Set: (AUG-CC-PVTZ AUX)
    Blend: AUG-CC-PVTZ-JKFIT

    Orbital Energies [Eh]
    ---------------------

    Doubly Occupied:

       1A    -20.733962     2A    -15.852437     3A    -11.459195
       4A    -11.455340     5A    -11.447531     6A    -11.447453
       7A     -1.538746     8A     -1.477833     9A     -1.208167
      10A     -1.163343    11A     -1.088901    12A     -1.025718
      13A     -0.916880    14A     -0.875659    15A     -0.853608
      16A     -0.833427    17A     -0.791995    18A     -0.759134
      19A     -0.745604    20A     -0.739958    21A     -0.723324
      22A     -0.717875    23A     -0.715920    24A     -0.671467
      25A     -0.625822

  @DF-RHF Final Energy:  -287.65697581707599

   => Energetics <=

    Nuclear Repulsion Energy =            277.7531267561104755
    One-Electron Energy =                -931.0816067425286064
    Two-Electron Energy =                 365.6715041693421995
    Total Energy =                       -287.6569758170759883
  Basis Set: (AUG-CC-PVTZ AUX)
    Blend: AUG-CC-PVTZ-RI
    Molecular point group: c1

    Geometry (in Angstrom), charge = 1, multiplicity = 1:

       Center              X                  Y                   Z               Mass
    ------------   -----------------  -----------------  -----------------  -----------------
         O           -1.740744164757     0.058983702468    -0.873943084033    15.994914619570
         N            0.745619835243     0.016512702468    -0.176232084033    14.003074004430
         C           -0.253627064757    -0.740708697532     0.741970115967    12.000000000000
         C            0.991177835243     1.431240702468     0.246645915967    12.000000000000
         C            2.026149835243    -0.744427297532    -0.318656084033    12.000000000000
         C           -1.614212164757    -0.094382297532     0.538234915967    12.000000000000
         H            0.265278835243     0.052235702468    -1.090646084033     1.007825032230
         H           -0.235525164757    -1.741461297532     0.395363915967     1.007825032230
         H            0.131956835243    -0.636061297532     1.747605915967     1.007825032230
         H            1.399895835243     1.424722702468     1.257375915967     1.007825032230
         H            1.704407835243     1.879407702468    -0.444728084033     1.007825032230
         H            0.052461835243     1.980142702468     0.210808915967     1.007825032230
         H            2.500478835243    -0.808509297532     0.660789915967     1.007825032230
         H            1.803276835243    -1.741386297532    -0.697656084033     1.007825032230
         H            2.673596835243    -0.214142297532    -1.016638084033     1.007825032230
         H           -2.354300164757    -0.787895297532     0.952354915967     1.007825032230
         H           -1.713481164757     0.864025702468     1.060821915967     1.007825032230
         H           -2.647839164757     0.328889702468    -1.102481084033     1.007825032230

  Basis Set: AUG-CC-PVTZ
    Blend: AUG-CC-PVTZ
  Basis Set: (AUG-CC-PVTZ AUX)
    Blend: AUG-CC-PVTZ-JKFIT
	 Reference Energy          =    -287.6569758170759883 [Eh]
	 Singles Energy            =      -0.0000000000000000 [Eh]
	 Same-Spin Energy          =      -0.2847898278550060 [Eh]
	 Opposite-Spin Energy      =      -0.9995198877767879 [Eh]
	 Correlation Energy        =      -1.2843097156317937 [Eh]
	 Total Energy              =    -288.9412855327078091 [Eh]

	 ================> DF-SCS-MP2 Energies <==================
	-----------------------------------------------------------
	 SCS Same-Spin Scale       =       0.3333333333333333 [-]
	 SCS Opposite-Spin Scale   =       1.2000000000000000 [-]
	 SCS Same-Spin Energy      =      -0.0949299426183353 [Eh]
	 SCS Opposite-Spin Energy  =      -1.1994238653321454 [Eh]
	 SCS Correlation Energy    =      -1.2943538079504806 [Eh]
	 SCS Total Energy          =    -288.9513296250264602 [Eh]
	-----------------------------------------------------------

  Dipole Moment: [D]
     X:     1.2976      Y:     0.2796      Z:     0.6995     Total:     1.5004

*** Psi4 exiting successfully. Buy a developer a beer!
