                               Psi4 1.4a3.dev225

  ==> Input File <==

--------------------------------------------------------------------------
#psi4
#
memory 32 gb

molecule  {
1 1
  O       -1.7781010     0.0481890    -0.8899830
  N        0.7082630     0.0057180    -0.1922720
  C       -0.2685380    -0.7093740     0.7027740
  C        0.9538210     1.4204460     0.2306060
  C        1.9887930    -0.7552220    -0.3346960
  C       -1.6515690    -0.1051770     0.5221950
  H        0.2279220     0.0414410    -1.1066860
  H       -0.2728820    -1.7522560     0.3793240
  H        0.0946000    -0.6468560     1.7315660
  H        1.4492340     1.3526738     1.1994408
  H        1.6670510     1.8686130    -0.4607680
  H        0.0151050     1.9693480     0.1947690
  H        2.4631220    -0.8193040     0.6447500
  H        1.7659200    -1.7521810    -0.7136960
  H        2.6362400    -0.2249370    -1.0326780
  H       -2.3916570    -0.7986900     0.9363150
  H       -1.7508380     0.8532310     1.0447820
  H       -2.6851960     0.3180950    -1.1185210
units angstrom
no_reorient  #important for SAPT in psi4, default
symmetry c1  #important for SAPT in psi4, default
}

set PROPERTIES_ORIGIN ["COM"]
properties('MP2/aug-cc-pvtz', properties = ['dipole'])
--------------------------------------------------------------------------

    Molecular point group: c1
  Charge       = 1
  Multiplicity = 1
  Basis Set: AUG-CC-PVTZ
    Blend: AUG-CC-PVTZ
  Basis Set: (AUG-CC-PVTZ AUX)
    Blend: AUG-CC-PVTZ-JKFIT

    Orbital Energies [Eh]
    ---------------------

    Doubly Occupied:

       1A    -20.733183     2A    -15.855321     3A    -11.456801
       4A    -11.454082     5A    -11.449763     6A    -11.449690
       7A     -1.539657     8A     -1.487133     9A     -1.206774
      10A     -1.166004    11A     -1.093397    12A     -1.024687
      13A     -0.919090    14A     -0.876924    15A     -0.855179
      16A     -0.835129    17A     -0.792241    18A     -0.757778
      19A     -0.747395    20A     -0.739954    21A     -0.725095
      22A     -0.716929    23A     -0.711543    24A     -0.673661
      25A     -0.624364

  @DF-RHF Final Energy:  -287.65798465512137

   => Energetics <=

    Nuclear Repulsion Energy =            278.5787138780077612
    One-Electron Energy =                -932.6898455890493551
    Two-Electron Energy =                 366.4531470559202262
    Total Energy =                       -287.6579846551213677
  Basis Set: (AUG-CC-PVTZ AUX)
    Blend: AUG-CC-PVTZ-RI
    Molecular point group: c1

    Geometry (in Angstrom), charge = 1, multiplicity = 1:

       Center              X                  Y                   Z               Mass
    ------------   -----------------  -----------------  -----------------  -----------------
         O           -1.744703724215     0.054057406785    -0.870390073492    15.994914619570
         N            0.741660275785     0.011586406785    -0.172679073492    14.003074004430
         C           -0.235140724215    -0.703505593215     0.722366926508    12.000000000000
         C            0.987218275785     1.426314406785     0.250198926508    12.000000000000
         C            2.022190275785    -0.749353593215    -0.315103073492    12.000000000000
         C           -1.618171724215    -0.099308593215     0.541787926508    12.000000000000
         H            0.261319275785     0.047309406785    -1.087093073492     1.007825032230
         H           -0.239484724215    -1.746387593215     0.398916926508     1.007825032230
         H            0.127997275785    -0.640987593215     1.751158926508     1.007825032230
         H            1.482631275785     1.358542206785     1.219033726508     1.007825032230
         H            1.700448275785     1.874481406785    -0.441175073492     1.007825032230
         H            0.048502275785     1.975216406785     0.214361926508     1.007825032230
         H            2.496519275785    -0.813435593215     0.664342926508     1.007825032230
         H            1.799317275785    -1.746312593215    -0.694103073492     1.007825032230
         H            2.669637275785    -0.219068593215    -1.013085073492     1.007825032230
         H           -2.358259724215    -0.792821593215     0.955907926508     1.007825032230
         H           -1.717440724215     0.859099406785     1.064374926508     1.007825032230
         H           -2.651798724215     0.323963406785    -1.098928073492     1.007825032230

  Basis Set: AUG-CC-PVTZ
    Blend: AUG-CC-PVTZ
  Basis Set: (AUG-CC-PVTZ AUX)
    Blend: AUG-CC-PVTZ-JKFIT
	 Reference Energy          =    -287.6579846551213677 [Eh]
	 Singles Energy            =      -0.0000000000000000 [Eh]
	 Same-Spin Energy          =      -0.2851326791081855 [Eh]
	 Opposite-Spin Energy      =      -0.9995790846602235 [Eh]
	 Correlation Energy        =      -1.2847117637684091 [Eh]
	 Total Energy              =    -288.9426964188897955 [Eh]

	 ================> DF-SCS-MP2 Energies <==================
	-----------------------------------------------------------
	 SCS Same-Spin Scale       =       0.3333333333333333 [-]
	 SCS Opposite-Spin Scale   =       1.2000000000000000 [-]
	 SCS Same-Spin Energy      =      -0.0950442263693952 [Eh]
	 SCS Opposite-Spin Energy  =      -1.1994949015922682 [Eh]
	 SCS Correlation Energy    =      -1.2945391279616634 [Eh]
	 SCS Total Energy          =    -288.9525237830830520 [Eh]
	-----------------------------------------------------------

  Dipole Moment: [D]
     X:     1.3976      Y:     0.2976      Z:     0.6304     Total:     1.5618

*** Psi4 exiting successfully. Buy a developer a beer!
