                               Psi4 1.4a3.dev225

  ==> Input File <==

--------------------------------------------------------------------------
#psi4
#
memory 32 gb

molecule  {
1 1
  O       -1.7781010     0.0481890    -0.8899830
  N        0.7082630     0.0057180    -0.1922720
  C       -0.2685380    -0.7093740     0.7027740
  C        0.9538210     1.4204460     0.2306060
  C        1.9887930    -0.7552220    -0.3346960
  C       -1.6515690    -0.1051770     0.5221950
  H        0.2279220     0.0414410    -1.1066860
  H       -0.2728820    -1.7522560     0.3793240
  H        0.0946000    -0.6468560     1.7315660
  H        1.3625390     1.4139280     1.2413360
  H        1.7979493     1.9508646    -0.5876551
  H        0.0151050     1.9693480     0.1947690
  H        2.4631220    -0.8193040     0.6447500
  H        1.7659200    -1.7521810    -0.7136960
  H        2.6362400    -0.2249370    -1.0326780
  H       -2.3916570    -0.7986900     0.9363150
  H       -1.7508380     0.8532310     1.0447820
  H       -2.6851960     0.3180950    -1.1185210
units angstrom
no_reorient  #important for SAPT in psi4, default
symmetry c1  #important for SAPT in psi4, default
}

set PROPERTIES_ORIGIN ["COM"]
properties('MP2/aug-cc-pvtz', properties = ['dipole'])
--------------------------------------------------------------------------

    Molecular point group: c1
  Charge       = 1
  Multiplicity = 1
  Basis Set: AUG-CC-PVTZ
    Blend: AUG-CC-PVTZ
  Basis Set: (AUG-CC-PVTZ AUX)
    Blend: AUG-CC-PVTZ-JKFIT

    Orbital Energies [Eh]
    ---------------------

    Doubly Occupied:

       1A    -20.733536     2A    -15.857494     3A    -11.468224
       4A    -11.458000     5A    -11.454813     6A    -11.449058
       7A     -1.540065     8A     -1.487165     9A     -1.205978
      10A     -1.158749    11A     -1.087564    12A     -1.025314
      13A     -0.915933    14A     -0.873341    15A     -0.852192
      16A     -0.837362    17A     -0.789469    18A     -0.755216
      19A     -0.744134    20A     -0.738685    21A     -0.719409
      22A     -0.713874    23A     -0.690899    24A     -0.672559
      25A     -0.624822

  @DF-RHF Final Energy:  -287.63823402428443

   => Energetics <=

    Nuclear Repulsion Energy =            277.6972105343467092
    One-Electron Energy =                -930.9631781575586729
    Two-Electron Energy =                 365.6277335989275343
    Total Energy =                       -287.6382340242844293
  Basis Set: (AUG-CC-PVTZ AUX)
    Blend: AUG-CC-PVTZ-RI
    Molecular point group: c1

    Geometry (in Angstrom), charge = 1, multiplicity = 1:

       Center              X                  Y                   Z               Mass
    ------------   -----------------  -----------------  -----------------  -----------------
         O           -1.745198210375     0.052452059854    -0.869439300173    15.994914619570
         N            0.741165789625     0.009981059854    -0.171728300173    14.003074004430
         C           -0.235635210375    -0.705110940146     0.723317699827    12.000000000000
         C            0.986723789625     1.424709059854     0.251149699827    12.000000000000
         C            2.021695789625    -0.750958940146    -0.314152300173    12.000000000000
         C           -1.618666210375    -0.100913940146     0.542738699827    12.000000000000
         H            0.260824789625     0.045704059854    -1.086142300173     1.007825032230
         H           -0.239979210375    -1.747992940146     0.399867699827     1.007825032230
         H            0.127502789625    -0.642592940146     1.752109699827     1.007825032230
         H            1.395441789625     1.418191059854     1.261879699827     1.007825032230
         H            1.830852089625     1.955127659854    -0.567111400173     1.007825032230
         H            0.048007789625     1.973611059854     0.215312699827     1.007825032230
         H            2.496024789625    -0.815040940146     0.665293699827     1.007825032230
         H            1.798822789625    -1.747917940146    -0.693152300173     1.007825032230
         H            2.669142789625    -0.220673940146    -1.012134300173     1.007825032230
         H           -2.358754210375    -0.794426940146     0.956858699827     1.007825032230
         H           -1.717935210375     0.857494059854     1.065325699827     1.007825032230
         H           -2.652293210375     0.322358059854    -1.097977300173     1.007825032230

  Basis Set: AUG-CC-PVTZ
    Blend: AUG-CC-PVTZ
  Basis Set: (AUG-CC-PVTZ AUX)
    Blend: AUG-CC-PVTZ-JKFIT
	 Reference Energy          =    -287.6382340242844293 [Eh]
	 Singles Energy            =      -0.0000000000000000 [Eh]
	 Same-Spin Energy          =      -0.2852948686022923 [Eh]
	 Opposite-Spin Energy      =      -1.0012994518209140 [Eh]
	 Correlation Energy        =      -1.2865943204232062 [Eh]
	 Total Energy              =    -288.9248283447076346 [Eh]

	 ================> DF-SCS-MP2 Energies <==================
	-----------------------------------------------------------
	 SCS Same-Spin Scale       =       0.3333333333333333 [-]
	 SCS Opposite-Spin Scale   =       1.2000000000000000 [-]
	 SCS Same-Spin Energy      =      -0.0950982895340974 [Eh]
	 SCS Opposite-Spin Energy  =      -1.2015593421850967 [Eh]
	 SCS Correlation Energy    =      -1.2966576317191942 [Eh]
	 SCS Total Energy          =    -288.9348916560036287 [Eh]
	-----------------------------------------------------------

  Dipole Moment: [D]
     X:     1.3600      Y:     0.3056      Z:     0.6604     Total:     1.5424

*** Psi4 exiting successfully. Buy a developer a beer!
