                               Psi4 1.4a3.dev225

  ==> Input File <==

--------------------------------------------------------------------------
#psi4
#
memory 32 gb

molecule  {
1 1
  O       -1.7781010     0.0481890    -0.8899830
  N        0.7320548    -0.1329617    -0.2632317
  C       -0.2685380    -0.7093740     0.7027740
  C        0.9538210     1.4204460     0.2306060
  C        1.9887930    -0.7552220    -0.3346960
  C       -1.6515690    -0.1051770     0.5221950
  H        0.2279220     0.0414410    -1.1066860
  H       -0.2728820    -1.7522560     0.3793240
  H        0.0946000    -0.6468560     1.7315660
  H        1.3625390     1.4139280     1.2413360
  H        1.6670510     1.8686130    -0.4607680
  H        0.0151050     1.9693480     0.1947690
  H        2.4631220    -0.8193040     0.6447500
  H        1.7659200    -1.7521810    -0.7136960
  H        2.6362400    -0.2249370    -1.0326780
  H       -2.3916570    -0.7986900     0.9363150
  H       -1.7508380     0.8532310     1.0447820
  H       -2.6851960     0.3180950    -1.1185210
units angstrom
no_reorient  #important for SAPT in psi4, default
symmetry c1  #important for SAPT in psi4, default
}

set PROPERTIES_ORIGIN ["COM"]
properties('MP2/aug-cc-pvtz', properties = ['dipole'])
--------------------------------------------------------------------------

    Molecular point group: c1
  Charge       = 1
  Multiplicity = 1
  Basis Set: AUG-CC-PVTZ
    Blend: AUG-CC-PVTZ
  Basis Set: (AUG-CC-PVTZ AUX)
    Blend: AUG-CC-PVTZ-JKFIT

    Orbital Energies [Eh]
    ---------------------

    Doubly Occupied:

       1A    -20.733953     2A    -15.852449     3A    -11.461507
       4A    -11.456808     5A    -11.456123     6A    -11.440810
       7A     -1.539965     8A     -1.488977     9A     -1.210725
      10A     -1.156590    11A     -1.100742    12A     -1.030447
      13A     -0.915645    14A     -0.874873    15A     -0.855110
      16A     -0.841629    17A     -0.797770    18A     -0.761932
      19A     -0.750401    20A     -0.741518    21A     -0.727288
      22A     -0.721601    23A     -0.681794    24A     -0.671485
      25A     -0.623214

  @DF-RHF Final Energy:  -287.63628219111155

   => Energetics <=

    Nuclear Repulsion Energy =            277.9812427260377490
    One-Electron Energy =                -931.4483392442467675
    Two-Electron Energy =                 365.8308143270974711
    Total Energy =                       -287.6362821911115475
  Basis Set: (AUG-CC-PVTZ AUX)
    Blend: AUG-CC-PVTZ-RI
    Molecular point group: c1

    Geometry (in Angstrom), charge = 1, multiplicity = 1:

       Center              X                  Y                   Z               Mass
    ------------   -----------------  -----------------  -----------------  -----------------
         O           -1.747431882627     0.074927305358    -0.859829401388    15.994914619570
         N            0.762723917373    -0.106223394642    -0.233078101388    14.003074004430
         C           -0.237868882627    -0.682635694642     0.732927598612    12.000000000000
         C            0.984490117373     1.447184305358     0.260759598612    12.000000000000
         C            2.019462117373    -0.728483694642    -0.304542401388    12.000000000000
         C           -1.620899882627    -0.078438694642     0.552348598612    12.000000000000
         H            0.258591117373     0.068179305358    -1.076532401388     1.007825032230
         H           -0.242212882627    -1.725517694642     0.409477598612     1.007825032230
         H            0.125269117373    -0.620117694642     1.761719598612     1.007825032230
         H            1.393208117373     1.440666305358     1.271489598612     1.007825032230
         H            1.697720117373     1.895351305358    -0.430614401388     1.007825032230
         H            0.045774117373     1.996086305358     0.224922598612     1.007825032230
         H            2.493791117373    -0.792565694642     0.674903598612     1.007825032230
         H            1.796589117373    -1.725442694642    -0.683542401388     1.007825032230
         H            2.666909117373    -0.198198694642    -1.002524401388     1.007825032230
         H           -2.360987882627    -0.771951694642     0.966468598612     1.007825032230
         H           -1.720168882627     0.879969305358     1.074935598612     1.007825032230
         H           -2.654526882627     0.344833305358    -1.088367401388     1.007825032230

  Basis Set: AUG-CC-PVTZ
    Blend: AUG-CC-PVTZ
  Basis Set: (AUG-CC-PVTZ AUX)
    Blend: AUG-CC-PVTZ-JKFIT
	 Reference Energy          =    -287.6362821911115475 [Eh]
	 Singles Energy            =      -0.0000000000000000 [Eh]
	 Same-Spin Energy          =      -0.2855220491921238 [Eh]
	 Opposite-Spin Energy      =      -1.0010114614617502 [Eh]
	 Correlation Energy        =      -1.2865335106538740 [Eh]
	 Total Energy              =    -288.9228157017654439 [Eh]

	 ================> DF-SCS-MP2 Energies <==================
	-----------------------------------------------------------
	 SCS Same-Spin Scale       =       0.3333333333333333 [-]
	 SCS Opposite-Spin Scale   =       1.2000000000000000 [-]
	 SCS Same-Spin Energy      =      -0.0951740163973746 [Eh]
	 SCS Opposite-Spin Energy  =      -1.2012137537541003 [Eh]
	 SCS Correlation Energy    =      -1.2963877701514750 [Eh]
	 SCS Total Energy          =    -288.9326699612630023 [Eh]
	-----------------------------------------------------------

  Dipole Moment: [D]
     X:     1.2964      Y:     0.6094      Z:     0.7813     Total:     1.6317

*** Psi4 exiting successfully. Buy a developer a beer!
