                               Psi4 1.4a3.dev225

  ==> Input File <==

--------------------------------------------------------------------------
#psi4
#
memory 32 gb

molecule  {
1 1
  O       -1.7781010     0.0481890    -0.8899830
  N        0.7082630     0.0057180    -0.1922720
  C       -0.2685380    -0.7093740     0.7027740
  C        0.9538210     1.4204460     0.2306060
  C        1.9887930    -0.7552220    -0.3346960
  C       -1.6515690    -0.1051770     0.5221950
  H        0.2046838     0.0431692    -1.1509240
  H       -0.2728820    -1.7522560     0.3793240
  H        0.0946000    -0.6468560     1.7315660
  H        1.3625390     1.4139280     1.2413360
  H        1.6670510     1.8686130    -0.4607680
  H        0.0151050     1.9693480     0.1947690
  H        2.4631220    -0.8193040     0.6447500
  H        1.7659200    -1.7521810    -0.7136960
  H        2.6362400    -0.2249370    -1.0326780
  H       -2.3916570    -0.7986900     0.9363150
  H       -1.7508380     0.8532310     1.0447820
  H       -2.6851960     0.3180950    -1.1185210
units angstrom
no_reorient  #important for SAPT in psi4, default
symmetry c1  #important for SAPT in psi4, default
}

set PROPERTIES_ORIGIN ["COM"]
properties('MP2/aug-cc-pvtz', properties = ['dipole'])
--------------------------------------------------------------------------

    Molecular point group: c1
  Charge       = 1
  Multiplicity = 1
  Basis Set: AUG-CC-PVTZ
    Blend: AUG-CC-PVTZ
  Basis Set: (AUG-CC-PVTZ AUX)
    Blend: AUG-CC-PVTZ-JKFIT

    Orbital Energies [Eh]
    ---------------------

    Doubly Occupied:

       1A    -20.733959     2A    -15.858537     3A    -11.456566
       4A    -11.454216     5A    -11.448672     6A    -11.448355
       7A     -1.539590     8A     -1.481265     9A     -1.206038
      10A     -1.164971    11A     -1.088197    12A     -1.020078
      13A     -0.916739    14A     -0.875395    15A     -0.852191
      16A     -0.836324    17A     -0.791625    18A     -0.756980
      19A     -0.745412    20A     -0.739116    21A     -0.724399
      22A     -0.714096    23A     -0.709217    24A     -0.673653
      25A     -0.624813

  @DF-RHF Final Energy:  -287.65562546706957

   => Energetics <=

    Nuclear Repulsion Energy =            278.2614313160265738
    One-Electron Energy =                -932.1133020057311569
    Two-Electron Energy =                 366.1962452226350138
    Total Energy =                       -287.6556254670695694
  Basis Set: (AUG-CC-PVTZ AUX)
    Blend: AUG-CC-PVTZ-RI
    Molecular point group: c1

    Geometry (in Angstrom), charge = 1, multiplicity = 1:

       Center              X                  Y                   Z               Mass
    ------------   -----------------  -----------------  -----------------  -----------------
         O           -1.743473941689     0.053352845698    -0.870363865445    15.994914619570
         N            0.742890058311     0.010881845698    -0.172652865445    14.003074004430
         C           -0.233910941689    -0.704210154302     0.722393134555    12.000000000000
         C            0.988448058311     1.425609845698     0.250225134555    12.000000000000
         C            2.023420058311    -0.750058154302    -0.315076865445    12.000000000000
         C           -1.616941941689    -0.100013154302     0.541814134555    12.000000000000
         H            0.239310858311     0.048333045698    -1.131304865445     1.007825032230
         H           -0.238254941689    -1.747092154302     0.398943134555     1.007825032230
         H            0.129227058311    -0.641692154302     1.751185134555     1.007825032230
         H            1.397166058311     1.419091845698     1.260955134555     1.007825032230
         H            1.701678058311     1.873776845698    -0.441148865445     1.007825032230
         H            0.049732058311     1.974511845698     0.214388134555     1.007825032230
         H            2.497749058311    -0.814140154302     0.664369134555     1.007825032230
         H            1.800547058311    -1.747017154302    -0.694076865445     1.007825032230
         H            2.670867058311    -0.219773154302    -1.013058865445     1.007825032230
         H           -2.357029941689    -0.793526154302     0.955934134555     1.007825032230
         H           -1.716210941689     0.858394845698     1.064401134555     1.007825032230
         H           -2.650568941689     0.323258845698    -1.098901865445     1.007825032230

  Basis Set: AUG-CC-PVTZ
    Blend: AUG-CC-PVTZ
  Basis Set: (AUG-CC-PVTZ AUX)
    Blend: AUG-CC-PVTZ-JKFIT
	 Reference Energy          =    -287.6556254670695694 [Eh]
	 Singles Energy            =      -0.0000000000000000 [Eh]
	 Same-Spin Energy          =      -0.2855147410043137 [Eh]
	 Opposite-Spin Energy      =      -1.0005300179913859 [Eh]
	 Correlation Energy        =      -1.2860447589956996 [Eh]
	 Total Energy              =    -288.9416702260652414 [Eh]

	 ================> DF-SCS-MP2 Energies <==================
	-----------------------------------------------------------
	 SCS Same-Spin Scale       =       0.3333333333333333 [-]
	 SCS Opposite-Spin Scale   =       1.2000000000000000 [-]
	 SCS Same-Spin Energy      =      -0.0951715803347712 [Eh]
	 SCS Opposite-Spin Energy  =      -1.2006360215896630 [Eh]
	 SCS Correlation Energy    =      -1.2958076019244342 [Eh]
	 SCS Total Energy          =    -288.9514330689939925 [Eh]
	-----------------------------------------------------------

  Dipole Moment: [D]
     X:     1.3101      Y:     0.3104      Z:     0.6040     Total:     1.4756

*** Psi4 exiting successfully. Buy a developer a beer!
