                               Psi4 1.4a3.dev225

  ==> Input File <==

--------------------------------------------------------------------------
#psi4
#
memory 32 gb

molecule  {
1 1
  O       -1.7781010     0.0481890    -0.8899830
  N        0.8612530    -0.0190387    -0.1692624
  C       -0.2685380    -0.7093740     0.7027740
  C        0.9538210     1.4204460     0.2306060
  C        1.9887930    -0.7552220    -0.3346960
  C       -1.6515690    -0.1051770     0.5221950
  H        0.2279220     0.0414410    -1.1066860
  H       -0.2728820    -1.7522560     0.3793240
  H        0.0946000    -0.6468560     1.7315660
  H        1.3625390     1.4139280     1.2413360
  H        1.6670510     1.8686130    -0.4607680
  H        0.0151050     1.9693480     0.1947690
  H        2.4631220    -0.8193040     0.6447500
  H        1.7659200    -1.7521810    -0.7136960
  H        2.6362400    -0.2249370    -1.0326780
  H       -2.3916570    -0.7986900     0.9363150
  H       -1.7508380     0.8532310     1.0447820
  H       -2.6851960     0.3180950    -1.1185210
units angstrom
no_reorient  #important for SAPT in psi4, default
symmetry c1  #important for SAPT in psi4, default
}

set PROPERTIES_ORIGIN ["COM"]
properties('MP2/aug-cc-pvtz', properties = ['dipole'])
--------------------------------------------------------------------------

    Molecular point group: c1
  Charge       = 1
  Multiplicity = 1
  Basis Set: AUG-CC-PVTZ
    Blend: AUG-CC-PVTZ
  Basis Set: (AUG-CC-PVTZ AUX)
    Blend: AUG-CC-PVTZ-JKFIT

    Orbital Energies [Eh]
    ---------------------

    Doubly Occupied:

       1A    -20.737607     2A    -15.858216     3A    -11.464958
       4A    -11.460821     5A    -11.450325     6A    -11.436215
       7A     -1.541187     8A     -1.497870     9A     -1.212836
      10A     -1.179931    11A     -1.078321    12A     -1.015014
      13A     -0.923146    14A     -0.874627    15A     -0.862722
      16A     -0.847926    17A     -0.804527    18A     -0.758584
      19A     -0.748864    20A     -0.738618    21A     -0.730017
      22A     -0.699821    23A     -0.696507    24A     -0.667396
      25A     -0.627642

  @DF-RHF Final Energy:  -287.62633508797916

   => Energetics <=

    Nuclear Repulsion Energy =            277.9880326819497327
    One-Electron Energy =                -931.4013380724695708
    Two-Electron Energy =                 365.7869703025406238
    Total Energy =                       -287.6263350879791574
  Basis Set: (AUG-CC-PVTZ AUX)
    Blend: AUG-CC-PVTZ-RI
    Molecular point group: c1

    Geometry (in Angstrom), charge = 1, multiplicity = 1:

       Center              X                  Y                   Z               Mass
    ------------   -----------------  -----------------  -----------------  -----------------
         O           -1.767513290351     0.057220137518    -0.874435145329    15.994914619570
         N            0.871840709649    -0.010007562482    -0.153714545329    14.003074004430
         C           -0.257950290351    -0.700342862482     0.718321854671    12.000000000000
         C            0.964408709649     1.429477137518     0.246153854671    12.000000000000
         C            1.999380709649    -0.746190862482    -0.319148145329    12.000000000000
         C           -1.640981290351    -0.096145862482     0.537742854671    12.000000000000
         H            0.238509709649     0.050472137518    -1.091138145329     1.007825032230
         H           -0.262294290351    -1.743224862482     0.394871854671     1.007825032230
         H            0.105187709649    -0.637824862482     1.747113854671     1.007825032230
         H            1.373126709649     1.422959137518     1.256883854671     1.007825032230
         H            1.677638709649     1.877644137518    -0.445220145329     1.007825032230
         H            0.025692709649     1.978379137518     0.210316854671     1.007825032230
         H            2.473709709649    -0.810272862482     0.660297854671     1.007825032230
         H            1.776507709649    -1.743149862482    -0.698148145329     1.007825032230
         H            2.646827709649    -0.215905862482    -1.017130145329     1.007825032230
         H           -2.381069290351    -0.789658862482     0.951862854671     1.007825032230
         H           -1.740250290351     0.862262137518     1.060329854671     1.007825032230
         H           -2.674608290351     0.327126137518    -1.102973145329     1.007825032230

  Basis Set: AUG-CC-PVTZ
    Blend: AUG-CC-PVTZ
  Basis Set: (AUG-CC-PVTZ AUX)
    Blend: AUG-CC-PVTZ-JKFIT
	 Reference Energy          =    -287.6263350879791574 [Eh]
	 Singles Energy            =      -0.0000000000000000 [Eh]
	 Same-Spin Energy          =      -0.2871388600459534 [Eh]
	 Opposite-Spin Energy      =      -1.0028250555951126 [Eh]
	 Correlation Energy        =      -1.2899639156410661 [Eh]
	 Total Energy              =    -288.9162990036202245 [Eh]

	 ================> DF-SCS-MP2 Energies <==================
	-----------------------------------------------------------
	 SCS Same-Spin Scale       =       0.3333333333333333 [-]
	 SCS Opposite-Spin Scale   =       1.2000000000000000 [-]
	 SCS Same-Spin Energy      =      -0.0957129533486511 [Eh]
	 SCS Opposite-Spin Energy  =      -1.2033900667141351 [Eh]
	 SCS Correlation Energy    =      -1.2991030200627862 [Eh]
	 SCS Total Energy          =    -288.9254381080419307 [Eh]
	-----------------------------------------------------------

  Dipole Moment: [D]
     X:     0.9374      Y:     0.3671      Z:     0.6355     Total:     1.1905

*** Psi4 exiting successfully. Buy a developer a beer!
