                               Psi4 1.4a3.dev225

  ==> Input File <==

--------------------------------------------------------------------------
#psi4
#
memory 32 gb

molecule  {
1 1
  O       -1.7781010     0.0481890    -0.8899830
  N        0.7082630     0.0057180    -0.1922720
  C       -0.2685380    -0.7093740     0.7027740
  C        0.9866308     1.6094725     0.2871081
  C        1.9887930    -0.7552220    -0.3346960
  C       -1.6515690    -0.1051770     0.5221950
  H        0.2279220     0.0414410    -1.1066860
  H       -0.2728820    -1.7522560     0.3793240
  H        0.0946000    -0.6468560     1.7315660
  H        1.3625390     1.4139280     1.2413360
  H        1.6670510     1.8686130    -0.4607680
  H        0.0151050     1.9693480     0.1947690
  H        2.4631220    -0.8193040     0.6447500
  H        1.7659200    -1.7521810    -0.7136960
  H        2.6362400    -0.2249370    -1.0326780
  H       -2.3916570    -0.7986900     0.9363150
  H       -1.7508380     0.8532310     1.0447820
  H       -2.6851960     0.3180950    -1.1185210
units angstrom
no_reorient  #important for SAPT in psi4, default
symmetry c1  #important for SAPT in psi4, default
}

set PROPERTIES_ORIGIN ["COM"]
properties('MP2/aug-cc-pvtz', properties = ['dipole'])
--------------------------------------------------------------------------

    Molecular point group: c1
  Charge       = 1
  Multiplicity = 1
  Basis Set: AUG-CC-PVTZ
    Blend: AUG-CC-PVTZ
  Basis Set: (AUG-CC-PVTZ AUX)
    Blend: AUG-CC-PVTZ-JKFIT

    Orbital Energies [Eh]
    ---------------------

    Doubly Occupied:

       1A    -20.730190     2A    -15.839933     3A    -11.463325
       4A    -11.451249     5A    -11.450098     6A    -11.442765
       7A     -1.534326     8A     -1.453200     9A     -1.197679
      10A     -1.165644    11A     -1.091762    12A     -1.016885
      13A     -0.904836    14A     -0.868770    15A     -0.849283
      16A     -0.822290    17A     -0.791660    18A     -0.783131
      19A     -0.762685    20A     -0.736120    21A     -0.729010
      22A     -0.715639    23A     -0.680255    24A     -0.666775
      25A     -0.620754

  @DF-RHF Final Energy:  -287.63449595380553

   => Energetics <=

    Nuclear Repulsion Energy =            275.1967272667874909
    One-Electron Energy =                -926.1259250572041992
    Two-Electron Energy =                 363.2947018366112388
    Total Energy =                       -287.6344959538055264
  Basis Set: (AUG-CC-PVTZ AUX)
    Blend: AUG-CC-PVTZ-RI
    Molecular point group: c1

    Geometry (in Angstrom), charge = 1, multiplicity = 1:

       Center              X                  Y                   Z               Mass
    ------------   -----------------  -----------------  -----------------  -----------------
         O           -1.748104077034     0.028194351391    -0.878384669223    15.994914619570
         N            0.738259922966    -0.014276648609    -0.180673669223    14.003074004430
         C           -0.238541077034    -0.729368648609     0.714372330777    12.000000000000
         C            1.016627722966     1.589477851391     0.298706430777    12.000000000000
         C            2.018789922966    -0.775216648609    -0.323097669223    12.000000000000
         C           -1.621572077034    -0.125171648609     0.533793330777    12.000000000000
         H            0.257918922966     0.021446351391    -1.095087669223     1.007825032230
         H           -0.242885077034    -1.772250648609     0.390922330777     1.007825032230
         H            0.124596922966    -0.666850648609     1.743164330777     1.007825032230
         H            1.392535922966     1.393933351391     1.252934330777     1.007825032230
         H            1.697047922966     1.848618351391    -0.449169669223     1.007825032230
         H            0.045101922966     1.949353351391     0.206367330777     1.007825032230
         H            2.493118922966    -0.839298648609     0.656348330777     1.007825032230
         H            1.795916922966    -1.772175648609    -0.702097669223     1.007825032230
         H            2.666236922966    -0.244931648609    -1.021079669223     1.007825032230
         H           -2.361660077034    -0.818684648609     0.947913330777     1.007825032230
         H           -1.720841077034     0.833236351391     1.056380330777     1.007825032230
         H           -2.655199077034     0.298100351391    -1.106922669223     1.007825032230

  Basis Set: AUG-CC-PVTZ
    Blend: AUG-CC-PVTZ
  Basis Set: (AUG-CC-PVTZ AUX)
    Blend: AUG-CC-PVTZ-JKFIT
	 Reference Energy          =    -287.6344959538055264 [Eh]
	 Singles Energy            =      -0.0000000000000000 [Eh]
	 Same-Spin Energy          =      -0.2844982302726121 [Eh]
	 Opposite-Spin Energy      =      -1.0009929855837676 [Eh]
	 Correlation Energy        =      -1.2854912158563798 [Eh]
	 Total Energy              =    -288.9199871696619084 [Eh]

	 ================> DF-SCS-MP2 Energies <==================
	-----------------------------------------------------------
	 SCS Same-Spin Scale       =       0.3333333333333333 [-]
	 SCS Opposite-Spin Scale   =       1.2000000000000000 [-]
	 SCS Same-Spin Energy      =      -0.0948327434242040 [Eh]
	 SCS Opposite-Spin Energy  =      -1.2011915827005211 [Eh]
	 SCS Correlation Energy    =      -1.2960243261247251 [Eh]
	 SCS Total Energy          =    -288.9305202799302492 [Eh]
	-----------------------------------------------------------

  Dipole Moment: [D]
     X:     1.4462      Y:     0.6173      Z:     0.7273     Total:     1.7325

*** Psi4 exiting successfully. Buy a developer a beer!
