                               Psi4 1.4a3.dev225

  ==> Input File <==

--------------------------------------------------------------------------
#psi4
#
memory 32 gb

molecule  {
1 1
  O       -1.7781010     0.0481890    -0.8899830
  N        0.7082630     0.0057180    -0.1922720
  C       -0.2685380    -0.7093740     0.7027740
  C        0.9538210     1.4204460     0.2306060
  C        1.9887930    -0.7552220    -0.3346960
  C       -1.6515690    -0.1051770     0.5221950
  H        0.2279220     0.0414410    -1.1066860
  H       -0.2728820    -1.7522560     0.3793240
  H        0.0946000    -0.6468560     1.7315660
  H        1.2980176     1.3807845     1.2643485
  H        1.6670510     1.8686130    -0.4607680
  H        0.0151050     1.9693480     0.1947690
  H        2.4631220    -0.8193040     0.6447500
  H        1.7659200    -1.7521810    -0.7136960
  H        2.6362400    -0.2249370    -1.0326780
  H       -2.3916570    -0.7986900     0.9363150
  H       -1.7508380     0.8532310     1.0447820
  H       -2.6851960     0.3180950    -1.1185210
units angstrom
no_reorient  #important for SAPT in psi4, default
symmetry c1  #important for SAPT in psi4, default
}

set PROPERTIES_ORIGIN ["COM"]
properties('MP2/aug-cc-pvtz', properties = ['dipole'])
--------------------------------------------------------------------------

    Molecular point group: c1
  Charge       = 1
  Multiplicity = 1
  Basis Set: AUG-CC-PVTZ
    Blend: AUG-CC-PVTZ
  Basis Set: (AUG-CC-PVTZ AUX)
    Blend: AUG-CC-PVTZ-JKFIT

    Orbital Energies [Eh]
    ---------------------

    Doubly Occupied:

       1A    -20.733125     2A    -15.855626     3A    -11.457210
       4A    -11.454300     5A    -11.449496     6A    -11.449387
       7A     -1.539621     8A     -1.487111     9A     -1.206643
      10A     -1.166429    11A     -1.092632    12A     -1.025206
      13A     -0.919084    14A     -0.877600    15A     -0.853025
      16A     -0.836837    17A     -0.791894    18A     -0.760015
      19A     -0.744636    20A     -0.738831    21A     -0.726217
      22A     -0.716930    23A     -0.711744    24A     -0.674239
      25A     -0.624410

  @DF-RHF Final Energy:  -287.65874031803276

   => Energetics <=

    Nuclear Repulsion Energy =            278.6009301262565714
    One-Electron Energy =                -932.7348471682861373
    Two-Electron Energy =                 366.4751767239968103
    Total Energy =                       -287.6587403180327556
  Basis Set: (AUG-CC-PVTZ AUX)
    Blend: AUG-CC-PVTZ-RI
    Molecular point group: c1

    Geometry (in Angstrom), charge = 1, multiplicity = 1:

       Center              X                  Y                   Z               Mass
    ------------   -----------------  -----------------  -----------------  -----------------
         O           -1.743012121620     0.053742942659    -0.871116172207    15.994914619570
         N            0.743351878380     0.011271942659    -0.173405172207    14.003074004430
         C           -0.233449121620    -0.703820057341     0.721640827793    12.000000000000
         C            0.988909878380     1.425999942659     0.249472827793    12.000000000000
         C            2.023881878380    -0.749668057341    -0.315829172207    12.000000000000
         C           -1.616480121620    -0.099623057341     0.541061827793    12.000000000000
         H            0.263010878380     0.046994942659    -1.087819172207     1.007825032230
         H           -0.237793121620    -1.746702057341     0.398190827793     1.007825032230
         H            0.129688878380    -0.641302057341     1.750432827793     1.007825032230
         H            1.333106478380     1.386338442659     1.283215327793     1.007825032230
         H            1.702139878380     1.874166942659    -0.441901172207     1.007825032230
         H            0.050193878380     1.974901942659     0.213635827793     1.007825032230
         H            2.498210878380    -0.813750057341     0.663616827793     1.007825032230
         H            1.801008878380    -1.746627057341    -0.694829172207     1.007825032230
         H            2.671328878380    -0.219383057341    -1.013811172207     1.007825032230
         H           -2.356568121620    -0.793136057341     0.955181827793     1.007825032230
         H           -1.715749121620     0.858784942659     1.063648827793     1.007825032230
         H           -2.650107121620     0.323648942659    -1.099654172207     1.007825032230

  Basis Set: AUG-CC-PVTZ
    Blend: AUG-CC-PVTZ
  Basis Set: (AUG-CC-PVTZ AUX)
    Blend: AUG-CC-PVTZ-JKFIT
	 Reference Energy          =    -287.6587403180327556 [Eh]
	 Singles Energy            =      -0.0000000000000000 [Eh]
	 Same-Spin Energy          =      -0.2850766268089951 [Eh]
	 Opposite-Spin Energy      =      -0.9995224691590375 [Eh]
	 Correlation Energy        =      -1.2845990959680327 [Eh]
	 Total Energy              =    -288.9433394140007749 [Eh]

	 ================> DF-SCS-MP2 Energies <==================
	-----------------------------------------------------------
	 SCS Same-Spin Scale       =       0.3333333333333333 [-]
	 SCS Opposite-Spin Scale   =       1.2000000000000000 [-]
	 SCS Same-Spin Energy      =      -0.0950255422696650 [Eh]
	 SCS Opposite-Spin Energy  =      -1.1994269629908449 [Eh]
	 SCS Correlation Energy    =      -1.2944525052605100 [Eh]
	 SCS Total Energy          =    -288.9531928232932501 [Eh]
	-----------------------------------------------------------

  Dipole Moment: [D]
     X:     1.3390      Y:     0.3047      Z:     0.6575     Total:     1.5225

*** Psi4 exiting successfully. Buy a developer a beer!
