                               Psi4 1.4a3.dev225

  ==> Input File <==

--------------------------------------------------------------------------
#psi4
#
memory 32 gb

molecule  {
1 1
  O       -1.7781010     0.0481890    -0.8899830
  N        0.7032485     0.0281094    -0.1794694
  C       -0.2685380    -0.7093740     0.7027740
  C        0.9538210     1.4204460     0.2306060
  C        1.9887930    -0.7552220    -0.3346960
  C       -1.6515690    -0.1051770     0.5221950
  H        0.2279220     0.0414410    -1.1066860
  H       -0.2728820    -1.7522560     0.3793240
  H        0.0946000    -0.6468560     1.7315660
  H        1.3625390     1.4139280     1.2413360
  H        1.6670510     1.8686130    -0.4607680
  H        0.0151050     1.9693480     0.1947690
  H        2.4631220    -0.8193040     0.6447500
  H        1.7659200    -1.7521810    -0.7136960
  H        2.6362400    -0.2249370    -1.0326780
  H       -2.3916570    -0.7986900     0.9363150
  H       -1.7508380     0.8532310     1.0447820
  H       -2.6851960     0.3180950    -1.1185210
units angstrom
no_reorient  #important for SAPT in psi4, default
symmetry c1  #important for SAPT in psi4, default
}

set PROPERTIES_ORIGIN ["COM"]
properties('MP2/aug-cc-pvtz', properties = ['dipole'])
--------------------------------------------------------------------------

    Molecular point group: c1
  Charge       = 1
  Multiplicity = 1
  Basis Set: AUG-CC-PVTZ
    Blend: AUG-CC-PVTZ
  Basis Set: (AUG-CC-PVTZ AUX)
    Blend: AUG-CC-PVTZ-JKFIT

    Orbital Energies [Eh]
    ---------------------

    Doubly Occupied:

       1A    -20.732997     2A    -15.856588     3A    -11.457236
       4A    -11.453814     5A    -11.451183     6A    -11.446950
       7A     -1.539628     8A     -1.487567     9A     -1.206907
      10A     -1.167278    11A     -1.091653    12A     -1.023759
      13A     -0.919673    14A     -0.877703    15A     -0.853929
      16A     -0.836490    17A     -0.792431    18A     -0.757713
      19A     -0.747116    20A     -0.739030    21A     -0.724332
      22A     -0.716647    23A     -0.712467    24A     -0.672845
      25A     -0.624364

  @DF-RHF Final Energy:  -287.65835953331566

   => Energetics <=

    Nuclear Repulsion Energy =            278.6108085972169306
    One-Electron Energy =                -932.7577360819152545
    Two-Electron Energy =                 366.4885679513827199
    Total Energy =                       -287.6583595333156609
  Basis Set: (AUG-CC-PVTZ AUX)
    Blend: AUG-CC-PVTZ-RI
    Molecular point group: c1

    Geometry (in Angstrom), charge = 1, multiplicity = 1:

       Center              X                  Y                   Z               Mass
    ------------   -----------------  -----------------  -----------------  -----------------
         O           -1.742954490099     0.049891860347    -0.872848660930    15.994914619570
         N            0.738395009901     0.029812260347    -0.162335060930    14.003074004430
         C           -0.233391490099    -0.707671139653     0.719908339070    12.000000000000
         C            0.988967509901     1.422148860347     0.247740339070    12.000000000000
         C            2.023939509901    -0.753519139653    -0.317561660930    12.000000000000
         C           -1.616422490099    -0.103474139653     0.539329339070    12.000000000000
         H            0.263068509901     0.043143860347    -1.089551660930     1.007825032230
         H           -0.237735490099    -1.750553139653     0.396458339070     1.007825032230
         H            0.129746509901    -0.645153139653     1.748700339070     1.007825032230
         H            1.397685509901     1.415630860347     1.258470339070     1.007825032230
         H            1.702197509901     1.870315860347    -0.443633660930     1.007825032230
         H            0.050251509901     1.971050860347     0.211903339070     1.007825032230
         H            2.498268509901    -0.817601139653     0.661884339070     1.007825032230
         H            1.801066509901    -1.750478139653    -0.696561660930     1.007825032230
         H            2.671386509901    -0.223234139653    -1.015543660930     1.007825032230
         H           -2.356510490099    -0.796987139653     0.953449339070     1.007825032230
         H           -1.715691490099     0.854933860347     1.061916339070     1.007825032230
         H           -2.650049490099     0.319797860347    -1.101386660930     1.007825032230

  Basis Set: AUG-CC-PVTZ
    Blend: AUG-CC-PVTZ
  Basis Set: (AUG-CC-PVTZ AUX)
    Blend: AUG-CC-PVTZ-JKFIT
	 Reference Energy          =    -287.6583595333156609 [Eh]
	 Singles Energy            =      -0.0000000000000000 [Eh]
	 Same-Spin Energy          =      -0.2851613553441019 [Eh]
	 Opposite-Spin Energy      =      -0.9995979353192213 [Eh]
	 Correlation Energy        =      -1.2847592906633232 [Eh]
	 Total Energy              =    -288.9431188239789776 [Eh]

	 ================> DF-SCS-MP2 Energies <==================
	-----------------------------------------------------------
	 SCS Same-Spin Scale       =       0.3333333333333333 [-]
	 SCS Opposite-Spin Scale   =       1.2000000000000000 [-]
	 SCS Same-Spin Energy      =      -0.0950537851147006 [Eh]
	 SCS Opposite-Spin Energy  =      -1.1995175223830654 [Eh]
	 SCS Correlation Energy    =      -1.2945713074977661 [Eh]
	 SCS Total Energy          =    -288.9529308408134511 [Eh]
	-----------------------------------------------------------

  Dipole Moment: [D]
     X:     1.3825      Y:     0.2575      Z:     0.6396     Total:     1.5449

*** Psi4 exiting successfully. Buy a developer a beer!
