                               Psi4 1.4a3.dev225

  ==> Input File <==

--------------------------------------------------------------------------
#psi4
#
memory 32 gb

molecule  {
1 1
  O       -1.7781010     0.0481890    -0.8899830
  N        0.7082630     0.0057180    -0.1922720
  C       -0.2685380    -0.7093740     0.7027740
  C        0.9538210     1.4204460     0.2306060
  C        1.9887930    -0.7552220    -0.3346960
  C       -1.6515690    -0.1051770     0.5221950
  H        0.2279220     0.0414410    -1.1066860
  H       -0.2728820    -1.7522560     0.3793240
  H        0.0946000    -0.6468560     1.7315660
  H        1.3625390     1.4139280     1.2413360
  H        1.6539636     1.8815263    -0.4656368
  H        0.0151050     1.9693480     0.1947690
  H        2.4631220    -0.8193040     0.6447500
  H        1.7659200    -1.7521810    -0.7136960
  H        2.6362400    -0.2249370    -1.0326780
  H       -2.3916570    -0.7986900     0.9363150
  H       -1.7508380     0.8532310     1.0447820
  H       -2.6851960     0.3180950    -1.1185210
units angstrom
no_reorient  #important for SAPT in psi4, default
symmetry c1  #important for SAPT in psi4, default
}

set PROPERTIES_ORIGIN ["COM"]
properties('MP2/aug-cc-pvtz', properties = ['dipole'])
--------------------------------------------------------------------------

    Molecular point group: c1
  Charge       = 1
  Multiplicity = 1
  Basis Set: AUG-CC-PVTZ
    Blend: AUG-CC-PVTZ
  Basis Set: (AUG-CC-PVTZ AUX)
    Blend: AUG-CC-PVTZ-JKFIT

    Orbital Energies [Eh]
    ---------------------

    Doubly Occupied:

       1A    -20.733119     2A    -15.856375     3A    -11.457105
       4A    -11.454140     5A    -11.449477     6A    -11.449010
       7A     -1.539614     8A     -1.487094     9A     -1.206603
      10A     -1.166064    11A     -1.092910    12A     -1.024932
      13A     -0.919443    14A     -0.877093    15A     -0.853293
      16A     -0.837316    17A     -0.791898    18A     -0.758260
      19A     -0.745849    20A     -0.739314    21A     -0.724181
      22A     -0.717572    23A     -0.711916    24A     -0.674060
      25A     -0.624341

  @DF-RHF Final Energy:  -287.65934207759449

   => Energetics <=

    Nuclear Repulsion Energy =            278.5004188721319451
    One-Electron Energy =                -932.5375598434530957
    Two-Electron Energy =                 366.3777988937266628
    Total Energy =                       -287.6593420775944878
  Basis Set: (AUG-CC-PVTZ AUX)
    Blend: AUG-CC-PVTZ-RI
    Molecular point group: c1

    Geometry (in Angstrom), charge = 1, multiplicity = 1:

       Center              X                  Y                   Z               Mass
    ------------   -----------------  -----------------  -----------------  -----------------
         O           -1.743587494978     0.053227722072    -0.870804274295    15.994914619570
         N            0.742776505022     0.010756722072    -0.173093274295    14.003074004430
         C           -0.234024494978    -0.704335277928     0.721952725705    12.000000000000
         C            0.988334505022     1.425484722072     0.249784725705    12.000000000000
         C            2.023306505022    -0.750183277928    -0.315517274295    12.000000000000
         C           -1.617055494978    -0.100138277928     0.541373725705    12.000000000000
         H            0.262435505022     0.046479722072    -1.087507274295     1.007825032230
         H           -0.238368494978    -1.747217277928     0.398502725705     1.007825032230
         H            0.129113505022    -0.641817277928     1.750744725705     1.007825032230
         H            1.397052505022     1.418966722072     1.260514725705     1.007825032230
         H            1.688477105022     1.886565022072    -0.446458074295     1.007825032230
         H            0.049618505022     1.974386722072     0.213947725705     1.007825032230
         H            2.497635505022    -0.814265277928     0.663928725705     1.007825032230
         H            1.800433505022    -1.747142277928    -0.694517274295     1.007825032230
         H            2.670753505022    -0.219898277928    -1.013499274295     1.007825032230
         H           -2.357143494978    -0.793651277928     0.955493725705     1.007825032230
         H           -1.716324494978     0.858269722072     1.063960725705     1.007825032230
         H           -2.650682494978     0.323133722072    -1.099342274295     1.007825032230

  Basis Set: AUG-CC-PVTZ
    Blend: AUG-CC-PVTZ
  Basis Set: (AUG-CC-PVTZ AUX)
    Blend: AUG-CC-PVTZ-JKFIT
	 Reference Energy          =    -287.6593420775944878 [Eh]
	 Singles Energy            =      -0.0000000000000000 [Eh]
	 Same-Spin Energy          =      -0.2850108273109424 [Eh]
	 Opposite-Spin Energy      =      -0.9994007114764047 [Eh]
	 Correlation Energy        =      -1.2844115387873472 [Eh]
	 Total Energy              =    -288.9437536163818550 [Eh]

	 ================> DF-SCS-MP2 Energies <==================
	-----------------------------------------------------------
	 SCS Same-Spin Scale       =       0.3333333333333333 [-]
	 SCS Opposite-Spin Scale   =       1.2000000000000000 [-]
	 SCS Same-Spin Energy      =      -0.0950036091036475 [Eh]
	 SCS Opposite-Spin Energy  =      -1.1992808537716857 [Eh]
	 SCS Correlation Energy    =      -1.2942844628753332 [Eh]
	 SCS Total Energy          =    -288.9536265404698270 [Eh]
	-----------------------------------------------------------

  Dipole Moment: [D]
     X:     1.3645      Y:     0.3140      Z:     0.6579     Total:     1.5471

*** Psi4 exiting successfully. Buy a developer a beer!
