                               Psi4 1.4a3.dev225

  ==> Input File <==

--------------------------------------------------------------------------
#psi4
#
memory 32 gb

molecule  {
1 1
  O       -1.7781010     0.0481890    -0.8899830
  N        0.7082630     0.0057180    -0.1922720
  C       -0.2685380    -0.7093740     0.7027740
  C        0.9538210     1.4204460     0.2306060
  C        1.9887930    -0.7552220    -0.3346960
  C       -1.6515690    -0.1051770     0.5221950
  H        0.2279220     0.0414410    -1.1066860
  H       -0.2728820    -1.7522560     0.3793240
  H        0.0946000    -0.6468560     1.7315660
  H        1.3625390     1.4139280     1.2413360
  H        1.6670510     1.8686130    -0.4607680
  H        0.0151050     1.9693480     0.1947690
  H        2.4631220    -0.8193040     0.6447500
  H        1.7659200    -1.7521810    -0.7136960
  H        2.6481224    -0.2152048    -1.0454879
  H       -2.3916570    -0.7986900     0.9363150
  H       -1.7508380     0.8532310     1.0447820
  H       -2.6851960     0.3180950    -1.1185210
units angstrom
no_reorient  #important for SAPT in psi4, default
symmetry c1  #important for SAPT in psi4, default
}

set PROPERTIES_ORIGIN ["COM"]
properties('MP2/aug-cc-pvtz', properties = ['dipole'])
--------------------------------------------------------------------------

    Molecular point group: c1
  Charge       = 1
  Multiplicity = 1
  Basis Set: AUG-CC-PVTZ
    Blend: AUG-CC-PVTZ
  Basis Set: (AUG-CC-PVTZ AUX)
    Blend: AUG-CC-PVTZ-JKFIT

    Orbital Energies [Eh]
    ---------------------

    Doubly Occupied:

       1A    -20.733162     2A    -15.856342     3A    -11.457116
       4A    -11.454227     5A    -11.451617     6A    -11.449049
       7A     -1.539656     8A     -1.487073     9A     -1.206405
      10A     -1.165270    11A     -1.092021    12A     -1.024947
      13A     -0.918835    14A     -0.877167    15A     -0.853425
      16A     -0.836092    17A     -0.792058    18A     -0.757248
      19A     -0.745758    20A     -0.737644    21A     -0.724863
      22A     -0.717063    23A     -0.711573    24A     -0.673786
      25A     -0.624388

  @DF-RHF Final Energy:  -287.65880929071773

   => Energetics <=

    Nuclear Repulsion Energy =            278.4257869415868640
    One-Electron Energy =                -932.3956229201961605
    Two-Electron Energy =                 366.3110266878916264
    Total Energy =                       -287.6588092907177270
  Basis Set: (AUG-CC-PVTZ AUX)
    Blend: AUG-CC-PVTZ-RI
    Molecular point group: c1

    Geometry (in Angstrom), charge = 1, multiplicity = 1:

       Center              X                  Y                   Z               Mass
    ------------   -----------------  -----------------  -----------------  -----------------
         O           -1.743866823004     0.053263307875    -0.870715440112    15.994914619570
         N            0.742497176996     0.010792307875    -0.173004440112    14.003074004430
         C           -0.234303823004    -0.704299692125     0.722041559888    12.000000000000
         C            0.988055176996     1.425520307875     0.249873559888    12.000000000000
         C            2.023027176996    -0.750147692125    -0.315428440112    12.000000000000
         C           -1.617334823004    -0.100102692125     0.541462559888    12.000000000000
         H            0.262156176996     0.046515307875    -1.087418440112     1.007825032230
         H           -0.238647823004    -1.747181692125     0.398591559888     1.007825032230
         H            0.128834176996    -0.641781692125     1.750833559888     1.007825032230
         H            1.396773176996     1.419002307875     1.260603559888     1.007825032230
         H            1.701285176996     1.873687307875    -0.441500440112     1.007825032230
         H            0.049339176996     1.974422307875     0.214036559888     1.007825032230
         H            2.497356176996    -0.814229692125     0.664017559888     1.007825032230
         H            1.800154176996    -1.747106692125    -0.694428440112     1.007825032230
         H            2.682356576996    -0.210130492125    -1.026220340112     1.007825032230
         H           -2.357422823004    -0.793615692125     0.955582559888     1.007825032230
         H           -1.716603823004     0.858305307875     1.064049559888     1.007825032230
         H           -2.650961823004     0.323169307875    -1.099253440112     1.007825032230

  Basis Set: AUG-CC-PVTZ
    Blend: AUG-CC-PVTZ
  Basis Set: (AUG-CC-PVTZ AUX)
    Blend: AUG-CC-PVTZ-JKFIT
	 Reference Energy          =    -287.6588092907177270 [Eh]
	 Singles Energy            =      -0.0000000000000000 [Eh]
	 Same-Spin Energy          =      -0.2850375243359229 [Eh]
	 Opposite-Spin Energy      =      -0.9995633426432885 [Eh]
	 Correlation Energy        =      -1.2846008669792113 [Eh]
	 Total Energy              =    -288.9434101576969169 [Eh]

	 ================> DF-SCS-MP2 Energies <==================
	-----------------------------------------------------------
	 SCS Same-Spin Scale       =       0.3333333333333333 [-]
	 SCS Opposite-Spin Scale   =       1.2000000000000000 [-]
	 SCS Same-Spin Energy      =      -0.0950125081119743 [Eh]
	 SCS Opposite-Spin Energy  =      -1.1994760111719462 [Eh]
	 SCS Correlation Energy    =      -1.2944885192839206 [Eh]
	 SCS Total Energy          =    -288.9532978100016294 [Eh]
	-----------------------------------------------------------

  Dipole Moment: [D]
     X:     1.3683      Y:     0.3084      Z:     0.6618     Total:     1.5510

*** Psi4 exiting successfully. Buy a developer a beer!
