                               Psi4 1.4a3.dev225

  ==> Input File <==

--------------------------------------------------------------------------
#psi4
#
memory 32 gb

molecule  {
1 1
  O       -1.7781010     0.0481890    -0.8899830
  N        0.6864353     0.0939090    -0.1394651
  C       -0.2685380    -0.7093740     0.7027740
  C        0.9538210     1.4204460     0.2306060
  C        1.9887930    -0.7552220    -0.3346960
  C       -1.6515690    -0.1051770     0.5221950
  H        0.2279220     0.0414410    -1.1066860
  H       -0.2728820    -1.7522560     0.3793240
  H        0.0946000    -0.6468560     1.7315660
  H        1.3625390     1.4139280     1.2413360
  H        1.6670510     1.8686130    -0.4607680
  H        0.0151050     1.9693480     0.1947690
  H        2.4631220    -0.8193040     0.6447500
  H        1.7659200    -1.7521810    -0.7136960
  H        2.6362400    -0.2249370    -1.0326780
  H       -2.3916570    -0.7986900     0.9363150
  H       -1.7508380     0.8532310     1.0447820
  H       -2.6851960     0.3180950    -1.1185210
units angstrom
no_reorient  #important for SAPT in psi4, default
symmetry c1  #important for SAPT in psi4, default
}

set PROPERTIES_ORIGIN ["COM"]
properties('MP2/aug-cc-pvtz', properties = ['dipole'])
--------------------------------------------------------------------------

    Molecular point group: c1
  Charge       = 1
  Multiplicity = 1
  Basis Set: AUG-CC-PVTZ
    Blend: AUG-CC-PVTZ
  Basis Set: (AUG-CC-PVTZ AUX)
    Blend: AUG-CC-PVTZ-JKFIT

    Orbital Energies [Eh]
    ---------------------

    Doubly Occupied:

       1A    -20.732583     2A    -15.856914     3A    -11.458110
       4A    -11.456289     5A    -11.452734     6A    -11.440500
       7A     -1.539806     8A     -1.490761     9A     -1.210285
      10A     -1.169117    11A     -1.087676    12A     -1.019893
      13A     -0.921403    14A     -0.879938    15A     -0.855369
      16A     -0.835374    17A     -0.795645    18A     -0.759543
      19A     -0.751239    20A     -0.739561    21A     -0.723266
      22A     -0.719918    23A     -0.698239    24A     -0.667334
      25A     -0.624202

  @DF-RHF Final Energy:  -287.64570261906363

   => Energetics <=

    Nuclear Repulsion Energy =            278.9298740652218953
    One-Electron Energy =                -933.3797558400550543
    Two-Electron Energy =                 366.8041791557694751
    Total Energy =                       -287.6457026190636270
  Basis Set: (AUG-CC-PVTZ AUX)
    Blend: AUG-CC-PVTZ-RI
    Molecular point group: c1

    Geometry (in Angstrom), charge = 1, multiplicity = 1:

       Center              X                  Y                   Z               Mass
    ------------   -----------------  -----------------  -----------------  -----------------
         O           -1.740341197311     0.039664561549    -0.879066569995    15.994914619570
         N            0.724195102689     0.085384561549    -0.128548669995    14.003074004430
         C           -0.230778197311    -0.717898438451     0.713690430005    12.000000000000
         C            0.991580802689     1.411921561549     0.241522430005    12.000000000000
         C            2.026552802689    -0.763746438451    -0.323779569995    12.000000000000
         C           -1.613809197311    -0.113701438451     0.533111430005    12.000000000000
         H            0.265681802689     0.032916561549    -1.095769569995     1.007825032230
         H           -0.235122197311    -1.760780438451     0.390240430005     1.007825032230
         H            0.132359802689    -0.655380438451     1.742482430005     1.007825032230
         H            1.400298802689     1.405403561549     1.252252430005     1.007825032230
         H            1.704810802689     1.860088561549    -0.449851569995     1.007825032230
         H            0.052864802689     1.960823561549     0.205685430005     1.007825032230
         H            2.500881802689    -0.827828438451     0.655666430005     1.007825032230
         H            1.803679802689    -1.760705438451    -0.702779569995     1.007825032230
         H            2.673999802689    -0.233461438451    -1.021761569995     1.007825032230
         H           -2.353897197311    -0.807214438451     0.947231430005     1.007825032230
         H           -1.713078197311     0.844706561549     1.055698430005     1.007825032230
         H           -2.647436197311     0.309570561549    -1.107604569995     1.007825032230

  Basis Set: AUG-CC-PVTZ
    Blend: AUG-CC-PVTZ
  Basis Set: (AUG-CC-PVTZ AUX)
    Blend: AUG-CC-PVTZ-JKFIT
	 Reference Energy          =    -287.6457026190636270 [Eh]
	 Singles Energy            =      -0.0000000000000000 [Eh]
	 Same-Spin Energy          =      -0.2860069292919495 [Eh]
	 Opposite-Spin Energy      =      -1.0009553814066343 [Eh]
	 Correlation Energy        =      -1.2869623106985839 [Eh]
	 Total Energy              =    -288.9326649297622112 [Eh]

	 ================> DF-SCS-MP2 Energies <==================
	-----------------------------------------------------------
	 SCS Same-Spin Scale       =       0.3333333333333333 [-]
	 SCS Opposite-Spin Scale   =       1.2000000000000000 [-]
	 SCS Same-Spin Energy      =      -0.0953356430973165 [Eh]
	 SCS Opposite-Spin Energy  =      -1.2011464576879611 [Eh]
	 SCS Correlation Energy    =      -1.2964821007852776 [Eh]
	 SCS Total Energy          =    -288.9421847198489104 [Eh]
	-----------------------------------------------------------

  Dipole Moment: [D]
     X:     1.4245      Y:     0.1087      Z:     0.5692     Total:     1.5378

*** Psi4 exiting successfully. Buy a developer a beer!
