                               Psi4 1.4a3.dev225

  ==> Input File <==

--------------------------------------------------------------------------
#psi4
#
memory 32 gb

molecule  {
1 1
  O       -1.7781010     0.0481890    -0.8899830
  N        0.7082630     0.0057180    -0.1922720
  C       -0.2685380    -0.7093740     0.7027740
  C        0.9538210     1.4204460     0.2306060
  C        1.9887930    -0.7552220    -0.3346960
  C       -1.6515690    -0.1051770     0.5221950
  H        0.2279220     0.0414410    -1.1066860
  H       -0.2728820    -1.7522560     0.3793240
  H        0.0946000    -0.6468560     1.7315660
  H        1.3625390     1.4139280     1.2413360
  H        1.7171892     1.8156346    -0.4392026
  H        0.0151050     1.9693480     0.1947690
  H        2.4631220    -0.8193040     0.6447500
  H        1.7659200    -1.7521810    -0.7136960
  H        2.6362400    -0.2249370    -1.0326780
  H       -2.3916570    -0.7986900     0.9363150
  H       -1.7508380     0.8532310     1.0447820
  H       -2.6851960     0.3180950    -1.1185210
units angstrom
no_reorient  #important for SAPT in psi4, default
symmetry c1  #important for SAPT in psi4, default
}

set PROPERTIES_ORIGIN ["COM"]
properties('MP2/aug-cc-pvtz', properties = ['dipole'])
--------------------------------------------------------------------------

    Molecular point group: c1
  Charge       = 1
  Multiplicity = 1
  Basis Set: AUG-CC-PVTZ
    Blend: AUG-CC-PVTZ
  Basis Set: (AUG-CC-PVTZ AUX)
    Blend: AUG-CC-PVTZ-JKFIT

    Orbital Energies [Eh]
    ---------------------

    Doubly Occupied:

       1A    -20.733203     2A    -15.855732     3A    -11.456765
       4A    -11.454301     5A    -11.449797     6A    -11.449461
       7A     -1.539695     8A     -1.487193     9A     -1.206866
      10A     -1.166018    11A     -1.093430    12A     -1.024898
      13A     -0.917815    14A     -0.877327    15A     -0.854716
      16A     -0.837203    17A     -0.792521    18A     -0.755583
      19A     -0.747192    20A     -0.740523    21A     -0.728526
      22A     -0.715744    23A     -0.710185    24A     -0.674271
      25A     -0.624427

  @DF-RHF Final Energy:  -287.65875246448081

   => Energetics <=

    Nuclear Repulsion Energy =            278.5679863926540634
    One-Electron Energy =                -932.6666987747991016
    Two-Electron Energy =                 366.4399599176642823
    Total Energy =                       -287.6587524644808127
  Basis Set: (AUG-CC-PVTZ AUX)
    Blend: AUG-CC-PVTZ-RI
    Molecular point group: c1

    Geometry (in Angstrom), charge = 1, multiplicity = 1:

       Center              X                  Y                   Z               Mass
    ------------   -----------------  -----------------  -----------------  -----------------
         O           -1.744294776655     0.053964828436    -0.871099984029    15.994914619570
         N            0.742069223345     0.011493828436    -0.173388984029    14.003074004430
         C           -0.234731776655    -0.703598171564     0.721657015971    12.000000000000
         C            0.987627223345     1.426221828436     0.249489015971    12.000000000000
         C            2.022599223345    -0.749446171564    -0.315812984029    12.000000000000
         C           -1.617762776655    -0.099401171564     0.541078015971    12.000000000000
         H            0.261728223345     0.047216828436    -1.087802984029     1.007825032230
         H           -0.239075776655    -1.746480171564     0.398207015971     1.007825032230
         H            0.128406223345    -0.641080171564     1.750449015971     1.007825032230
         H            1.396345223345     1.419703828436     1.260219015971     1.007825032230
         H            1.750995423345     1.821410428436    -0.420319584029     1.007825032230
         H            0.048911223345     1.975123828436     0.213652015971     1.007825032230
         H            2.496928223345    -0.813528171564     0.663633015971     1.007825032230
         H            1.799726223345    -1.746405171564    -0.694812984029     1.007825032230
         H            2.670046223345    -0.219161171564    -1.013794984029     1.007825032230
         H           -2.357850776655    -0.792914171564     0.955198015971     1.007825032230
         H           -1.717031776655     0.859006828436     1.063665015971     1.007825032230
         H           -2.651389776655     0.323870828436    -1.099637984029     1.007825032230

  Basis Set: AUG-CC-PVTZ
    Blend: AUG-CC-PVTZ
  Basis Set: (AUG-CC-PVTZ AUX)
    Blend: AUG-CC-PVTZ-JKFIT
	 Reference Energy          =    -287.6587524644808127 [Eh]
	 Singles Energy            =      -0.0000000000000000 [Eh]
	 Same-Spin Energy          =      -0.2850681873883248 [Eh]
	 Opposite-Spin Energy      =      -0.9995074216989831 [Eh]
	 Correlation Energy        =      -1.2845756090873079 [Eh]
	 Total Energy              =    -288.9433280735681251 [Eh]

	 ================> DF-SCS-MP2 Energies <==================
	-----------------------------------------------------------
	 SCS Same-Spin Scale       =       0.3333333333333333 [-]
	 SCS Opposite-Spin Scale   =       1.2000000000000000 [-]
	 SCS Same-Spin Energy      =      -0.0950227291294416 [Eh]
	 SCS Opposite-Spin Energy  =      -1.1994089060387796 [Eh]
	 SCS Correlation Energy    =      -1.2944316351682212 [Eh]
	 SCS Total Energy          =    -288.9531840996490359 [Eh]
	-----------------------------------------------------------

  Dipole Moment: [D]
     X:     1.3842      Y:     0.2862      Z:     0.6806     Total:     1.5688

*** Psi4 exiting successfully. Buy a developer a beer!
