                               Psi4 1.4a3.dev225

  ==> Input File <==

--------------------------------------------------------------------------
#psi4
#
memory 32 gb

molecule  {
1 1
  O       -1.7781010     0.0481890    -0.8899830
  N        0.7082630     0.0057180    -0.1922720
  C       -0.2685380    -0.7093740     0.7027740
  C        0.9538210     1.4204460     0.2306060
  C        1.9887930    -0.7552220    -0.3346960
  C       -1.6515690    -0.1051770     0.5221950
  H        0.2279220     0.0414410    -1.1066860
  H       -0.2728024    -1.7331538     0.3852485
  H        0.0946000    -0.6468560     1.7315660
  H        1.3625390     1.4139280     1.2413360
  H        1.6670510     1.8686130    -0.4607680
  H        0.0151050     1.9693480     0.1947690
  H        2.4631220    -0.8193040     0.6447500
  H        1.7659200    -1.7521810    -0.7136960
  H        2.6362400    -0.2249370    -1.0326780
  H       -2.3916570    -0.7986900     0.9363150
  H       -1.7508380     0.8532310     1.0447820
  H       -2.6851960     0.3180950    -1.1185210
units angstrom
no_reorient  #important for SAPT in psi4, default
symmetry c1  #important for SAPT in psi4, default
}

set PROPERTIES_ORIGIN ["COM"]
properties('MP2/aug-cc-pvtz', properties = ['dipole'])
--------------------------------------------------------------------------

    Molecular point group: c1
  Charge       = 1
  Multiplicity = 1
  Basis Set: AUG-CC-PVTZ
    Blend: AUG-CC-PVTZ
  Basis Set: (AUG-CC-PVTZ AUX)
    Blend: AUG-CC-PVTZ-JKFIT

    Orbital Energies [Eh]
    ---------------------

    Doubly Occupied:

       1A    -20.733150     2A    -15.856140     3A    -11.454993
       4A    -11.453995     5A    -11.449593     6A    -11.449026
       7A     -1.539670     8A     -1.487150     9A     -1.207749
      10A     -1.166127    11A     -1.092983    12A     -1.025893
      13A     -0.919795    14A     -0.878054    15A     -0.853930
      16A     -0.837285    17A     -0.792004    18A     -0.758104
      19A     -0.746096    20A     -0.739986    21A     -0.725637
      22A     -0.717525    23A     -0.712939    24A     -0.674217
      25A     -0.624497

  @DF-RHF Final Energy:  -287.65946150316421

   => Energetics <=

    Nuclear Repulsion Energy =            278.6115063012454698
    One-Electron Energy =                -932.7488583538074636
    Two-Electron Energy =                 366.4778905493977277
    Total Energy =                       -287.6594615031642093
  Basis Set: (AUG-CC-PVTZ AUX)
    Blend: AUG-CC-PVTZ-RI
    Molecular point group: c1

    Geometry (in Angstrom), charge = 1, multiplicity = 1:

       Center              X                  Y                   Z               Mass
    ------------   -----------------  -----------------  -----------------  -----------------
         O           -1.743734789394     0.053158489110    -0.870925014997    15.994914619570
         N            0.742629210606     0.010687489110    -0.173214014997    14.003074004430
         C           -0.234171789394    -0.704404510890     0.721831985003    12.000000000000
         C            0.988187210606     1.425415489110     0.249663985003    12.000000000000
         C            2.023159210606    -0.750252510890    -0.315638014997    12.000000000000
         C           -1.617202789394    -0.100207510890     0.541252985003    12.000000000000
         H            0.262288210606     0.046410489110    -1.087628014997     1.007825032230
         H           -0.238436189394    -1.728184310890     0.404306485003     1.007825032230
         H            0.128966210606    -0.641886510890     1.750623985003     1.007825032230
         H            1.396905210606     1.418897489110     1.260393985003     1.007825032230
         H            1.701417210606     1.873582489110    -0.441710014997     1.007825032230
         H            0.049471210606     1.974317489110     0.213826985003     1.007825032230
         H            2.497488210606    -0.814334510890     0.663807985003     1.007825032230
         H            1.800286210606    -1.747211510890    -0.694638014997     1.007825032230
         H            2.670606210606    -0.219967510890    -1.013620014997     1.007825032230
         H           -2.357290789394    -0.793720510890     0.955372985003     1.007825032230
         H           -1.716471789394     0.858200489110     1.063839985003     1.007825032230
         H           -2.650829789394     0.323064489110    -1.099463014997     1.007825032230

  Basis Set: AUG-CC-PVTZ
    Blend: AUG-CC-PVTZ
  Basis Set: (AUG-CC-PVTZ AUX)
    Blend: AUG-CC-PVTZ-JKFIT
	 Reference Energy          =    -287.6594615031642093 [Eh]
	 Singles Energy            =      -0.0000000000000000 [Eh]
	 Same-Spin Energy          =      -0.2849777565903227 [Eh]
	 Opposite-Spin Energy      =      -0.9992550784554913 [Eh]
	 Correlation Energy        =      -1.2842328350458141 [Eh]
	 Total Energy              =    -288.9436943382100367 [Eh]

	 ================> DF-SCS-MP2 Energies <==================
	-----------------------------------------------------------
	 SCS Same-Spin Scale       =       0.3333333333333333 [-]
	 SCS Opposite-Spin Scale   =       1.2000000000000000 [-]
	 SCS Same-Spin Energy      =      -0.0949925855301075 [Eh]
	 SCS Opposite-Spin Energy  =      -1.1991060941465896 [Eh]
	 SCS Correlation Energy    =      -1.2940986796766971 [Eh]
	 SCS Total Energy          =    -288.9535601828409312 [Eh]
	-----------------------------------------------------------

  Dipole Moment: [D]
     X:     1.3707      Y:     0.3072      Z:     0.6623     Total:     1.5530

*** Psi4 exiting successfully. Buy a developer a beer!
