                               Psi4 1.4a3.dev225

  ==> Input File <==

--------------------------------------------------------------------------
#psi4
#
memory 32 gb

molecule  {
1 1
  O       -1.7781010     0.0481890    -0.8899830
  N        0.7082630     0.0057180    -0.1922720
  C       -0.2685380    -0.7093740     0.7027740
  C        0.9538210     1.4204460     0.2306060
  C        1.9887930    -0.7552220    -0.3346960
  C       -1.6454486    -0.1311704     0.4195154
  H        0.2279220     0.0414410    -1.1066860
  H       -0.2728820    -1.7522560     0.3793240
  H        0.0946000    -0.6468560     1.7315660
  H        1.3625390     1.4139280     1.2413360
  H        1.6670510     1.8686130    -0.4607680
  H        0.0151050     1.9693480     0.1947690
  H        2.4631220    -0.8193040     0.6447500
  H        1.7659200    -1.7521810    -0.7136960
  H        2.6362400    -0.2249370    -1.0326780
  H       -2.3916570    -0.7986900     0.9363150
  H       -1.7508380     0.8532310     1.0447820
  H       -2.6851960     0.3180950    -1.1185210
units angstrom
no_reorient  #important for SAPT in psi4, default
symmetry c1  #important for SAPT in psi4, default
}

set PROPERTIES_ORIGIN ["COM"]
properties('MP2/aug-cc-pvtz', properties = ['dipole'])
--------------------------------------------------------------------------

    Molecular point group: c1
  Charge       = 1
  Multiplicity = 1
  Basis Set: AUG-CC-PVTZ
    Blend: AUG-CC-PVTZ
  Basis Set: (AUG-CC-PVTZ AUX)
    Blend: AUG-CC-PVTZ-JKFIT

    Orbital Energies [Eh]
    ---------------------

    Doubly Occupied:

       1A    -20.742811     2A    -15.855522     3A    -11.457579
       4A    -11.454949     5A    -11.448961     6A    -11.448118
       7A     -1.580385     8A     -1.490197     9A     -1.204418
      10A     -1.165340    11A     -1.089097    12A     -1.024208
      13A     -0.920768    14A     -0.893426    15A     -0.859925
      16A     -0.836833    17A     -0.795216    18A     -0.769917
      19A     -0.753874    20A     -0.742173    21A     -0.724445
      22A     -0.722586    23A     -0.715999    24A     -0.661268
      25A     -0.600296

  @DF-RHF Final Energy:  -287.64887266251691

   => Energetics <=

    Nuclear Repulsion Energy =            279.8185099842469299
    One-Electron Energy =                -935.0181454491805653
    Two-Electron Energy =                 367.5507628024167275
    Total Energy =                       -287.6488726625169079
  Basis Set: (AUG-CC-PVTZ AUX)
    Blend: AUG-CC-PVTZ-RI
    Molecular point group: c1

    Geometry (in Angstrom), charge = 1, multiplicity = 1:

       Center              X                  Y                   Z               Mass
    ------------   -----------------  -----------------  -----------------  -----------------
         O           -1.744549119940     0.056834430185    -0.857182090157    15.994914619570
         N            0.741814880060     0.014363430185    -0.159471090157    14.003074004430
         C           -0.234986119940    -0.700728569815     0.735574909843    12.000000000000
         C            0.987372880060     1.429091430185     0.263406909843    12.000000000000
         C            2.022344880060    -0.746576569815    -0.301895090157    12.000000000000
         C           -1.611896719940    -0.122524969815     0.452316309843    12.000000000000
         H            0.261473880060     0.050086430185    -1.073885090157     1.007825032230
         H           -0.239330119940    -1.743610569815     0.412124909843     1.007825032230
         H            0.128151880060    -0.638210569815     1.764366909843     1.007825032230
         H            1.396090880060     1.422573430185     1.274136909843     1.007825032230
         H            1.700602880060     1.877258430185    -0.427967090157     1.007825032230
         H            0.048656880060     1.977993430185     0.227569909843     1.007825032230
         H            2.496673880060    -0.810658569815     0.677550909843     1.007825032230
         H            1.799471880060    -1.743535569815    -0.680895090157     1.007825032230
         H            2.669791880060    -0.216291569815    -0.999877090157     1.007825032230
         H           -2.358105119940    -0.790044569815     0.969115909843     1.007825032230
         H           -1.717286119940     0.861876430185     1.077582909843     1.007825032230
         H           -2.651644119940     0.326740430185    -1.085720090157     1.007825032230

  Basis Set: AUG-CC-PVTZ
    Blend: AUG-CC-PVTZ
  Basis Set: (AUG-CC-PVTZ AUX)
    Blend: AUG-CC-PVTZ-JKFIT
	 Reference Energy          =    -287.6488726625169079 [Eh]
	 Singles Energy            =      -0.0000000000000000 [Eh]
	 Same-Spin Energy          =      -0.2853162680104759 [Eh]
	 Opposite-Spin Energy      =      -0.9985872530803892 [Eh]
	 Correlation Energy        =      -1.2839035210908651 [Eh]
	 Total Energy              =    -288.9327761836077570 [Eh]

	 ================> DF-SCS-MP2 Energies <==================
	-----------------------------------------------------------
	 SCS Same-Spin Scale       =       0.3333333333333333 [-]
	 SCS Opposite-Spin Scale   =       1.2000000000000000 [-]
	 SCS Same-Spin Energy      =      -0.0951054226701586 [Eh]
	 SCS Opposite-Spin Energy  =      -1.1983047036964669 [Eh]
	 SCS Correlation Energy    =      -1.2934101263666256 [Eh]
	 SCS Total Energy          =    -288.9422827888835172 [Eh]
	-----------------------------------------------------------

  Dipole Moment: [D]
     X:     1.2907      Y:     0.2932      Z:     0.3769     Total:     1.3762

*** Psi4 exiting successfully. Buy a developer a beer!
