                               Psi4 1.4a3.dev225

  ==> Input File <==

--------------------------------------------------------------------------
#psi4
#
memory 32 gb

molecule  {
1 1
  O       -1.7781010     0.0481890    -0.8899830
  N        0.7082630     0.0057180    -0.1922720
  C       -0.2685380    -0.7093740     0.7027740
  C        0.9538210     1.4204460     0.2306060
  C        1.9887930    -0.7552220    -0.3346960
  C       -1.6560053    -0.0997999     0.4726833
  H        0.2279220     0.0414410    -1.1066860
  H       -0.2728820    -1.7522560     0.3793240
  H        0.0946000    -0.6468560     1.7315660
  H        1.3625390     1.4139280     1.2413360
  H        1.6670510     1.8686130    -0.4607680
  H        0.0151050     1.9693480     0.1947690
  H        2.4631220    -0.8193040     0.6447500
  H        1.7659200    -1.7521810    -0.7136960
  H        2.6362400    -0.2249370    -1.0326780
  H       -2.3916570    -0.7986900     0.9363150
  H       -1.7508380     0.8532310     1.0447820
  H       -2.6851960     0.3180950    -1.1185210
units angstrom
no_reorient  #important for SAPT in psi4, default
symmetry c1  #important for SAPT in psi4, default
}

set PROPERTIES_ORIGIN ["COM"]
properties('MP2/aug-cc-pvtz', properties = ['dipole'])
--------------------------------------------------------------------------

    Molecular point group: c1
  Charge       = 1
  Multiplicity = 1
  Basis Set: AUG-CC-PVTZ
    Blend: AUG-CC-PVTZ
  Basis Set: (AUG-CC-PVTZ AUX)
    Blend: AUG-CC-PVTZ-JKFIT

    Orbital Energies [Eh]
    ---------------------

    Doubly Occupied:

       1A    -20.738281     2A    -15.855478     3A    -11.455952
       4A    -11.454992     5A    -11.448997     6A    -11.448639
       7A     -1.558913     8A     -1.488652     9A     -1.202781
      10A     -1.165574    11A     -1.090735    12A     -1.024386
      13A     -0.919778    14A     -0.883157    15A     -0.857845
      16A     -0.836315    17A     -0.793171    18A     -0.761290
      19A     -0.751840    20A     -0.740566    21A     -0.724682
      22A     -0.719849    23A     -0.713833    24A     -0.665682
      25A     -0.616746

  @DF-RHF Final Energy:  -287.65760780725378

   => Energetics <=

    Nuclear Repulsion Energy =            279.0347068514211628
    One-Electron Energy =                -933.5483585852125543
    Two-Electron Energy =                 366.8560439265376658
    Total Energy =                       -287.6576078072537825
  Basis Set: (AUG-CC-PVTZ AUX)
    Blend: AUG-CC-PVTZ-RI
    Molecular point group: c1

    Geometry (in Angstrom), charge = 1, multiplicity = 1:

       Center              X                  Y                   Z               Mass
    ------------   -----------------  -----------------  -----------------  -----------------
         O           -1.743142995577     0.052655963021    -0.864263913027    15.994914619570
         N            0.743221004423     0.010184963021    -0.166552913027    14.003074004430
         C           -0.233579995577    -0.704907036979     0.728493086973    12.000000000000
         C            0.988779004423     1.424912963021     0.256325086973    12.000000000000
         C            2.023751004423    -0.750755036979    -0.308976913027    12.000000000000
         C           -1.621047295577    -0.095332936979     0.498402386973    12.000000000000
         H            0.262880004423     0.045907963021    -1.080966913027     1.007825032230
         H           -0.237923995577    -1.747789036979     0.405043086973     1.007825032230
         H            0.129558004423    -0.642389036979     1.757285086973     1.007825032230
         H            1.397497004423     1.418394963021     1.267055086973     1.007825032230
         H            1.702009004423     1.873079963021    -0.435048913027     1.007825032230
         H            0.050063004423     1.973814963021     0.220488086973     1.007825032230
         H            2.498080004423    -0.814837036979     0.670469086973     1.007825032230
         H            1.800878004423    -1.747714036979    -0.687976913027     1.007825032230
         H            2.671198004423    -0.220470036979    -1.006958913027     1.007825032230
         H           -2.356698995577    -0.794223036979     0.962034086973     1.007825032230
         H           -1.715879995577     0.857697963021     1.070501086973     1.007825032230
         H           -2.650237995577     0.322561963021    -1.092801913027     1.007825032230

  Basis Set: AUG-CC-PVTZ
    Blend: AUG-CC-PVTZ
  Basis Set: (AUG-CC-PVTZ AUX)
    Blend: AUG-CC-PVTZ-JKFIT
	 Reference Energy          =    -287.6576078072537825 [Eh]
	 Singles Energy            =      -0.0000000000000000 [Eh]
	 Same-Spin Energy          =      -0.2850526966885270 [Eh]
	 Opposite-Spin Energy      =      -0.9988448381166208 [Eh]
	 Correlation Energy        =      -1.2838975348051478 [Eh]
	 Total Energy              =    -288.9415053420589174 [Eh]

	 ================> DF-SCS-MP2 Energies <==================
	-----------------------------------------------------------
	 SCS Same-Spin Scale       =       0.3333333333333333 [-]
	 SCS Opposite-Spin Scale   =       1.2000000000000000 [-]
	 SCS Same-Spin Energy      =      -0.0950175655628423 [Eh]
	 SCS Opposite-Spin Energy  =      -1.1986138057399449 [Eh]
	 SCS Correlation Energy    =      -1.2936313713027872 [Eh]
	 SCS Total Energy          =    -288.9512391785565910 [Eh]
	-----------------------------------------------------------

  Dipole Moment: [D]
     X:     1.3231      Y:     0.3198      Z:     0.5298     Total:     1.4606

*** Psi4 exiting successfully. Buy a developer a beer!
