                               Psi4 1.4a3.dev225

  ==> Input File <==

--------------------------------------------------------------------------
#psi4
#
memory 32 gb

molecule  {
1 1
  O       -1.7781010     0.0481890    -0.8899830
  N        0.7082630     0.0057180    -0.1922720
  C       -0.2685380    -0.7093740     0.7027740
  C        0.9538210     1.4204460     0.2306060
  C        1.9887930    -0.7552220    -0.3346960
  C       -1.6515690    -0.1051770     0.5221950
  H        0.2279220     0.0414410    -1.1066860
  H       -0.2728820    -1.7522560     0.3793240
  H        0.0946000    -0.6468560     1.7315660
  H        1.3625390     1.4139280     1.2413360
  H        1.6670510     1.8686130    -0.4607680
  H        0.0151050     1.9693480     0.1947690
  H        2.4631220    -0.8193040     0.6447500
  H        1.7454655    -1.8436782    -0.7484792
  H        2.6362400    -0.2249370    -1.0326780
  H       -2.3916570    -0.7986900     0.9363150
  H       -1.7508380     0.8532310     1.0447820
  H       -2.6851960     0.3180950    -1.1185210
units angstrom
no_reorient  #important for SAPT in psi4, default
symmetry c1  #important for SAPT in psi4, default
}

set PROPERTIES_ORIGIN ["COM"]
properties('MP2/aug-cc-pvtz', properties = ['dipole'])
--------------------------------------------------------------------------

    Molecular point group: c1
  Charge       = 1
  Multiplicity = 1
  Basis Set: AUG-CC-PVTZ
    Blend: AUG-CC-PVTZ
  Basis Set: (AUG-CC-PVTZ AUX)
    Blend: AUG-CC-PVTZ-JKFIT

    Orbital Energies [Eh]
    ---------------------

    Doubly Occupied:

       1A    -20.733074     2A    -15.856817     3A    -11.459595
       4A    -11.456780     5A    -11.454056     6A    -11.449583
       7A     -1.539568     8A     -1.487038     9A     -1.206108
      10A     -1.161381    11A     -1.090156    12A     -1.024856
      13A     -0.916592    14A     -0.876922    15A     -0.851261
      16A     -0.835110    17A     -0.791711    18A     -0.757759
      19A     -0.745089    20A     -0.737101    21A     -0.717655
      22A     -0.716630    23A     -0.705104    24A     -0.674121
      25A     -0.624282

  @DF-RHF Final Energy:  -287.65246627439768

   => Energetics <=

    Nuclear Repulsion Energy =            278.1093051443056083
    One-Electron Energy =                -931.7868465846931940
    Two-Electron Energy =                 366.0250751659899038
    Total Energy =                       -287.6524662743976819
  Basis Set: (AUG-CC-PVTZ AUX)
    Blend: AUG-CC-PVTZ-RI
    Molecular point group: c1

    Geometry (in Angstrom), charge = 1, multiplicity = 1:

       Center              X                  Y                   Z               Mass
    ------------   -----------------  -----------------  -----------------  -----------------
         O           -1.743505081923     0.054395724172    -0.870469632837    15.994914619570
         N            0.742858918077     0.011924724172    -0.172758632837    14.003074004430
         C           -0.233942081923    -0.703167275828     0.722287367163    12.000000000000
         C            0.988416918077     1.426652724172     0.250119367163    12.000000000000
         C            2.023388918077    -0.749015275828    -0.315182632837    12.000000000000
         C           -1.616973081923    -0.098970275828     0.541708367163    12.000000000000
         H            0.262517918077     0.047647724172    -1.087172632837     1.007825032230
         H           -0.238286081923    -1.746049275828     0.398837367163     1.007825032230
         H            0.129195918077    -0.640649275828     1.751079367163     1.007825032230
         H            1.397134918077     1.420134724172     1.260849367163     1.007825032230
         H            1.701646918077     1.874819724172    -0.441254632837     1.007825032230
         H            0.049700918077     1.975554724172     0.214282367163     1.007825032230
         H            2.497717918077    -0.813097275828     0.664263367163     1.007825032230
         H            1.780061418077    -1.837471475828    -0.728965832837     1.007825032230
         H            2.670835918077    -0.218730275828    -1.013164632837     1.007825032230
         H           -2.357061081923    -0.792483275828     0.955828367163     1.007825032230
         H           -1.716242081923     0.859437724172     1.064295367163     1.007825032230
         H           -2.650600081923     0.324301724172    -1.099007632837     1.007825032230

  Basis Set: AUG-CC-PVTZ
    Blend: AUG-CC-PVTZ
  Basis Set: (AUG-CC-PVTZ AUX)
    Blend: AUG-CC-PVTZ-JKFIT
	 Reference Energy          =    -287.6524662743976819 [Eh]
	 Singles Energy            =      -0.0000000000000000 [Eh]
	 Same-Spin Energy          =      -0.2851460376564415 [Eh]
	 Opposite-Spin Energy      =      -1.0002697210291749 [Eh]
	 Correlation Energy        =      -1.2854157586856165 [Eh]
	 Total Energy              =    -288.9378820330833264 [Eh]

	 ================> DF-SCS-MP2 Energies <==================
	-----------------------------------------------------------
	 SCS Same-Spin Scale       =       0.3333333333333333 [-]
	 SCS Opposite-Spin Scale   =       1.2000000000000000 [-]
	 SCS Same-Spin Energy      =      -0.0950486792188138 [Eh]
	 SCS Opposite-Spin Energy  =      -1.2003236652350098 [Eh]
	 SCS Correlation Energy    =      -1.2953723444538237 [Eh]
	 SCS Total Energy          =    -288.9478386188515060 [Eh]
	-----------------------------------------------------------

  Dipole Moment: [D]
     X:     1.3704      Y:     0.3091      Z:     0.6600     Total:     1.5522

*** Psi4 exiting successfully. Buy a developer a beer!
