                               Psi4 1.4a3.dev225

  ==> Input File <==

--------------------------------------------------------------------------
#psi4
#
memory 32 gb

molecule  {
1 1
  O       -1.7781010     0.0481890    -0.8899830
  N        0.7173980    -0.0397115    -0.2170555
  C       -0.2685380    -0.7093740     0.7027740
  C        0.9538210     1.4204460     0.2306060
  C        1.9887930    -0.7552220    -0.3346960
  C       -1.6515690    -0.1051770     0.5221950
  H        0.2279220     0.0414410    -1.1066860
  H       -0.2728820    -1.7522560     0.3793240
  H        0.0946000    -0.6468560     1.7315660
  H        1.3625390     1.4139280     1.2413360
  H        1.6670510     1.8686130    -0.4607680
  H        0.0151050     1.9693480     0.1947690
  H        2.4631220    -0.8193040     0.6447500
  H        1.7659200    -1.7521810    -0.7136960
  H        2.6362400    -0.2249370    -1.0326780
  H       -2.3916570    -0.7986900     0.9363150
  H       -1.7508380     0.8532310     1.0447820
  H       -2.6851960     0.3180950    -1.1185210
units angstrom
no_reorient  #important for SAPT in psi4, default
symmetry c1  #important for SAPT in psi4, default
}

set PROPERTIES_ORIGIN ["COM"]
properties('MP2/aug-cc-pvtz', properties = ['dipole'])
--------------------------------------------------------------------------

    Molecular point group: c1
  Charge       = 1
  Multiplicity = 1
  Basis Set: AUG-CC-PVTZ
    Blend: AUG-CC-PVTZ
  Basis Set: (AUG-CC-PVTZ AUX)
    Blend: AUG-CC-PVTZ-JKFIT

    Orbital Energies [Eh]
    ---------------------

    Doubly Occupied:

       1A    -20.733409     2A    -15.855259     3A    -11.456777
       4A    -11.454877     5A    -11.453350     6A    -11.446381
       7A     -1.539690     8A     -1.486955     9A     -1.207175
      10A     -1.163019    11A     -1.095690    12A     -1.027055
      13A     -0.917950    14A     -0.876200    15A     -0.853172
      16A     -0.839106    17A     -0.792419    18A     -0.758417
      19A     -0.744917    20A     -0.741706    21A     -0.725935
      22A     -0.721509    23A     -0.701954    24A     -0.675993
      25A     -0.624234

  @DF-RHF Final Energy:  -287.65695636438062

   => Energetics <=

    Nuclear Repulsion Energy =            278.3273809495652245
    One-Electron Energy =                -932.1823749418623493
    Two-Electron Energy =                 366.1980376279164489
    Total Energy =                       -287.6569563643806191
  Basis Set: (AUG-CC-PVTZ AUX)
    Blend: AUG-CC-PVTZ-RI
    Molecular point group: c1

    Geometry (in Angstrom), charge = 1, multiplicity = 1:

       Center              X                  Y                   Z               Mass
    ------------   -----------------  -----------------  -----------------  -----------------
         O           -1.745153761286     0.060433331862    -0.867006615152    15.994914619570
         N            0.750345238714    -0.027467168138    -0.194079115152    14.003074004430
         C           -0.235590761286    -0.697129668138     0.725750384848    12.000000000000
         C            0.986768238714     1.432690331862     0.253582384848    12.000000000000
         C            2.021740238714    -0.742977668138    -0.311719615152    12.000000000000
         C           -1.618621761286    -0.092932668138     0.545171384848    12.000000000000
         H            0.260869238714     0.053685331862    -1.083709615152     1.007825032230
         H           -0.239934761286    -1.740011668138     0.402300384848     1.007825032230
         H            0.127547238714    -0.634611668138     1.754542384848     1.007825032230
         H            1.395486238714     1.426172331862     1.264312384848     1.007825032230
         H            1.699998238714     1.880857331862    -0.437791615152     1.007825032230
         H            0.048052238714     1.981592331862     0.217745384848     1.007825032230
         H            2.496069238714    -0.807059668138     0.667726384848     1.007825032230
         H            1.798867238714    -1.739936668138    -0.690719615152     1.007825032230
         H            2.669187238714    -0.212692668138    -1.009701615152     1.007825032230
         H           -2.358709761286    -0.786445668138     0.959291384848     1.007825032230
         H           -1.717890761286     0.865475331862     1.067758384848     1.007825032230
         H           -2.652248761286     0.330339331862    -1.095544615152     1.007825032230

  Basis Set: AUG-CC-PVTZ
    Blend: AUG-CC-PVTZ
  Basis Set: (AUG-CC-PVTZ AUX)
    Blend: AUG-CC-PVTZ-JKFIT
	 Reference Energy          =    -287.6569563643806191 [Eh]
	 Singles Energy            =      -0.0000000000000000 [Eh]
	 Same-Spin Energy          =      -0.2849230142102632 [Eh]
	 Opposite-Spin Energy      =      -0.9994320355265567 [Eh]
	 Correlation Energy        =      -1.2843550497368199 [Eh]
	 Total Energy              =    -288.9413114141174219 [Eh]

	 ================> DF-SCS-MP2 Energies <==================
	-----------------------------------------------------------
	 SCS Same-Spin Scale       =       0.3333333333333333 [-]
	 SCS Opposite-Spin Scale   =       1.2000000000000000 [-]
	 SCS Same-Spin Energy      =      -0.0949743380700877 [Eh]
	 SCS Opposite-Spin Energy  =      -1.1993184426318679 [Eh]
	 SCS Correlation Energy    =      -1.2942927807019557 [Eh]
	 SCS Total Energy          =    -288.9512491450825564 [Eh]
	-----------------------------------------------------------

  Dipole Moment: [D]
     X:     1.3428      Y:     0.4109      Z:     0.7058     Total:     1.5717

*** Psi4 exiting successfully. Buy a developer a beer!
