                               Psi4 1.4a3.dev225

  ==> Input File <==

--------------------------------------------------------------------------
#psi4
#
memory 32 gb

molecule  {
1 1
  O       -1.7781010     0.0481890    -0.8899830
  N        0.7082630     0.0057180    -0.1922720
  C       -0.2815142    -0.7188736     0.7146642
  C        0.9538210     1.4204460     0.2306060
  C        1.9887930    -0.7552220    -0.3346960
  C       -1.6515690    -0.1051770     0.5221950
  H        0.2279220     0.0414410    -1.1066860
  H       -0.2728820    -1.7522560     0.3793240
  H        0.0946000    -0.6468560     1.7315660
  H        1.3625390     1.4139280     1.2413360
  H        1.6670510     1.8686130    -0.4607680
  H        0.0151050     1.9693480     0.1947690
  H        2.4631220    -0.8193040     0.6447500
  H        1.7659200    -1.7521810    -0.7136960
  H        2.6362400    -0.2249370    -1.0326780
  H       -2.3916570    -0.7986900     0.9363150
  H       -1.7508380     0.8532310     1.0447820
  H       -2.6851960     0.3180950    -1.1185210
units angstrom
no_reorient  #important for SAPT in psi4, default
symmetry c1  #important for SAPT in psi4, default
}

set PROPERTIES_ORIGIN ["COM"]
properties('MP2/aug-cc-pvtz', properties = ['dipole'])
--------------------------------------------------------------------------

    Molecular point group: c1
  Charge       = 1
  Multiplicity = 1
  Basis Set: AUG-CC-PVTZ
    Blend: AUG-CC-PVTZ
  Basis Set: (AUG-CC-PVTZ AUX)
    Blend: AUG-CC-PVTZ-JKFIT

    Orbital Energies [Eh]
    ---------------------

    Doubly Occupied:

       1A    -20.733597     2A    -15.854792     3A    -11.458072
       4A    -11.454371     5A    -11.448813     6A    -11.448358
       7A     -1.539428     8A     -1.483249     9A     -1.208127
      10A     -1.164861    11A     -1.091596    12A     -1.024886
      13A     -0.917887    14A     -0.876461    15A     -0.853665
      16A     -0.835673    17A     -0.792248    18A     -0.757798
      19A     -0.746211    20A     -0.738976    21A     -0.724310
      22A     -0.718078    23A     -0.712919    24A     -0.674341
      25A     -0.624903

  @DF-RHF Final Energy:  -287.65901017585276

   => Energetics <=

    Nuclear Repulsion Energy =            278.2567634901320162
    One-Electron Energy =                -932.0643073406383792
    Two-Electron Energy =                 366.1485336746536063
    Total Energy =                       -287.6590101758527567
  Basis Set: (AUG-CC-PVTZ AUX)
    Blend: AUG-CC-PVTZ-RI
    Molecular point group: c1

    Geometry (in Angstrom), charge = 1, multiplicity = 1:

       Center              X                  Y                   Z               Mass
    ------------   -----------------  -----------------  -----------------  -----------------
         O           -1.742005503611     0.054637499893    -0.872442482797    15.994914619570
         N            0.744358496389     0.012166499893    -0.174731482797    14.003074004430
         C           -0.245418703611    -0.712425100107     0.732204717203    12.000000000000
         C            0.989916496389     1.426894499893     0.248146517203    12.000000000000
         C            2.024888496389    -0.748773500107    -0.317155482797    12.000000000000
         C           -1.615473503611    -0.098728500107     0.539735517203    12.000000000000
         H            0.264017496389     0.047889499893    -1.089145482797     1.007825032230
         H           -0.236786503611    -1.745807500107     0.396864517203     1.007825032230
         H            0.130695496389    -0.640407500107     1.749106517203     1.007825032230
         H            1.398634496389     1.420376499893     1.258876517203     1.007825032230
         H            1.703146496389     1.875061499893    -0.443227482797     1.007825032230
         H            0.051200496389     1.975796499893     0.212309517203     1.007825032230
         H            2.499217496389    -0.812855500107     0.662290517203     1.007825032230
         H            1.802015496389    -1.745732500107    -0.696155482797     1.007825032230
         H            2.672335496389    -0.218488500107    -1.015137482797     1.007825032230
         H           -2.355561503611    -0.792241500107     0.953855517203     1.007825032230
         H           -1.714742503611     0.859679499893     1.062322517203     1.007825032230
         H           -2.649100503611     0.324543499893    -1.100980482797     1.007825032230

  Basis Set: AUG-CC-PVTZ
    Blend: AUG-CC-PVTZ
  Basis Set: (AUG-CC-PVTZ AUX)
    Blend: AUG-CC-PVTZ-JKFIT
	 Reference Energy          =    -287.6590101758527567 [Eh]
	 Singles Energy            =      -0.0000000000000000 [Eh]
	 Same-Spin Energy          =      -0.2849504750624925 [Eh]
	 Opposite-Spin Energy      =      -0.9994570923473908 [Eh]
	 Correlation Energy        =      -1.2844075674098834 [Eh]
	 Total Energy              =    -288.9434177432626143 [Eh]

	 ================> DF-SCS-MP2 Energies <==================
	-----------------------------------------------------------
	 SCS Same-Spin Scale       =       0.3333333333333333 [-]
	 SCS Opposite-Spin Scale   =       1.2000000000000000 [-]
	 SCS Same-Spin Energy      =      -0.0949834916874975 [Eh]
	 SCS Opposite-Spin Energy  =      -1.1993485108168689 [Eh]
	 SCS Correlation Energy    =      -1.2943320025043663 [Eh]
	 SCS Total Energy          =    -288.9533421783571043 [Eh]
	-----------------------------------------------------------

  Dipole Moment: [D]
     X:     1.3421      Y:     0.2940      Z:     0.6772     Total:     1.5317

*** Psi4 exiting successfully. Buy a developer a beer!
