                               Psi4 1.4a3.dev225

  ==> Input File <==

--------------------------------------------------------------------------
#psi4
#
memory 32 gb

molecule  {
1 1
  O       -1.7781010     0.0481890    -0.8899830
  N        0.5579634     0.0459748    -0.2106484
  C       -0.2685380    -0.7093740     0.7027740
  C        0.9538210     1.4204460     0.2306060
  C        1.9887930    -0.7552220    -0.3346960
  C       -1.6515690    -0.1051770     0.5221950
  H        0.2279220     0.0414410    -1.1066860
  H       -0.2728820    -1.7522560     0.3793240
  H        0.0946000    -0.6468560     1.7315660
  H        1.3625390     1.4139280     1.2413360
  H        1.6670510     1.8686130    -0.4607680
  H        0.0151050     1.9693480     0.1947690
  H        2.4631220    -0.8193040     0.6447500
  H        1.7659200    -1.7521810    -0.7136960
  H        2.6362400    -0.2249370    -1.0326780
  H       -2.3916570    -0.7986900     0.9363150
  H       -1.7508380     0.8532310     1.0447820
  H       -2.6851960     0.3180950    -1.1185210
units angstrom
no_reorient  #important for SAPT in psi4, default
symmetry c1  #important for SAPT in psi4, default
}

set PROPERTIES_ORIGIN ["COM"]
properties('MP2/aug-cc-pvtz', properties = ['dipole'])
--------------------------------------------------------------------------

    Molecular point group: c1
  Charge       = 1
  Multiplicity = 1
  Basis Set: AUG-CC-PVTZ
    Blend: AUG-CC-PVTZ
  Basis Set: (AUG-CC-PVTZ AUX)
    Blend: AUG-CC-PVTZ-JKFIT

    Orbital Energies [Eh]
    ---------------------

    Doubly Occupied:

       1A    -20.728958     2A    -15.849708     3A    -11.462291
       4A    -11.451423     5A    -11.449445     6A    -11.447829
       7A     -1.540681     8A     -1.483704     9A     -1.205885
      10A     -1.153252    11A     -1.106623    12A     -1.033204
      13A     -0.916259    14A     -0.884073    15A     -0.844601
      16A     -0.828656    17A     -0.785889    18A     -0.763820
      19A     -0.757373    20A     -0.752800    21A     -0.729880
      22A     -0.710875    23A     -0.699914    24A     -0.656840
      25A     -0.620306

  @DF-RHF Final Energy:  -287.63485315290757

   => Energetics <=

    Nuclear Repulsion Energy =            279.1980648301984047
    One-Electron Energy =                -933.9372524272705505
    Two-Electron Energy =                 367.1043344441645786
    Total Energy =                       -287.6348531529075672
  Basis Set: (AUG-CC-PVTZ AUX)
    Blend: AUG-CC-PVTZ-RI
    Molecular point group: c1

    Geometry (in Angstrom), charge = 1, multiplicity = 1:

       Center              X                  Y                   Z               Mass
    ------------   -----------------  -----------------  -----------------  -----------------
         O           -1.720372679135     0.047115023042    -0.868002477226    15.994914619570
         N            0.615691720865     0.044900823042    -0.188667877226    14.003074004430
         C           -0.210809679135    -0.710447976958     0.724754522774    12.000000000000
         C            1.011549320865     1.419372023042     0.252586522774    12.000000000000
         C            2.046521320865    -0.756295976958    -0.312715477226    12.000000000000
         C           -1.593840679135    -0.106250976958     0.544175522774    12.000000000000
         H            0.285650320865     0.040367023042    -1.084705477226     1.007825032230
         H           -0.215153679135    -1.753329976958     0.401304522774     1.007825032230
         H            0.152328320865    -0.647929976958     1.753546522774     1.007825032230
         H            1.420267320865     1.412854023042     1.263316522774     1.007825032230
         H            1.724779320865     1.867539023042    -0.438787477226     1.007825032230
         H            0.072833320865     1.968274023042     0.216749522774     1.007825032230
         H            2.520850320865    -0.820377976958     0.666730522774     1.007825032230
         H            1.823648320865    -1.753254976958    -0.691715477226     1.007825032230
         H            2.693968320865    -0.226010976958    -1.010697477226     1.007825032230
         H           -2.333928679135    -0.799763976958     0.958295522774     1.007825032230
         H           -1.693109679135     0.852157023042     1.066762522774     1.007825032230
         H           -2.627467679135     0.317021023042    -1.096540477226     1.007825032230

  Basis Set: AUG-CC-PVTZ
    Blend: AUG-CC-PVTZ
  Basis Set: (AUG-CC-PVTZ AUX)
    Blend: AUG-CC-PVTZ-JKFIT
	 Reference Energy          =    -287.6348531529075672 [Eh]
	 Singles Energy            =      -0.0000000000000000 [Eh]
	 Same-Spin Energy          =      -0.2851818842419789 [Eh]
	 Opposite-Spin Energy      =      -1.0006948757386760 [Eh]
	 Correlation Energy        =      -1.2858767599806549 [Eh]
	 Total Energy              =    -288.9207299128882482 [Eh]

	 ================> DF-SCS-MP2 Energies <==================
	-----------------------------------------------------------
	 SCS Same-Spin Scale       =       0.3333333333333333 [-]
	 SCS Opposite-Spin Scale   =       1.2000000000000000 [-]
	 SCS Same-Spin Energy      =      -0.0950606280806596 [Eh]
	 SCS Opposite-Spin Energy  =      -1.2008338508864111 [Eh]
	 SCS Correlation Energy    =      -1.2958944789670708 [Eh]
	 SCS Total Energy          =    -288.9307476318746239 [Eh]
	-----------------------------------------------------------

  Dipole Moment: [D]
     X:     1.7677      Y:     0.2258      Z:     0.6905     Total:     1.9112

*** Psi4 exiting successfully. Buy a developer a beer!
