                               Psi4 1.4a3.dev225

  ==> Input File <==

--------------------------------------------------------------------------
#psi4
#
memory 32 gb

molecule  {
1 1
  O       -1.7781010     0.0481890    -0.8899830
  N        0.7082630     0.0057180    -0.1922720
  C       -0.2685380    -0.7093740     0.7027740
  C        0.9538210     1.4204460     0.2306060
  C        1.9887930    -0.7552220    -0.3346960
  C       -1.6515690    -0.1051770     0.5221950
  H        0.2372173     0.0407497    -1.0889908
  H       -0.2728820    -1.7522560     0.3793240
  H        0.0946000    -0.6468560     1.7315660
  H        1.3625390     1.4139280     1.2413360
  H        1.6670510     1.8686130    -0.4607680
  H        0.0151050     1.9693480     0.1947690
  H        2.4631220    -0.8193040     0.6447500
  H        1.7659200    -1.7521810    -0.7136960
  H        2.6362400    -0.2249370    -1.0326780
  H       -2.3916570    -0.7986900     0.9363150
  H       -1.7508380     0.8532310     1.0447820
  H       -2.6851960     0.3180950    -1.1185210
units angstrom
no_reorient  #important for SAPT in psi4, default
symmetry c1  #important for SAPT in psi4, default
}

set PROPERTIES_ORIGIN ["COM"]
properties('MP2/aug-cc-pvtz', properties = ['dipole'])
--------------------------------------------------------------------------

    Molecular point group: c1
  Charge       = 1
  Multiplicity = 1
  Basis Set: AUG-CC-PVTZ
    Blend: AUG-CC-PVTZ
  Basis Set: (AUG-CC-PVTZ AUX)
    Blend: AUG-CC-PVTZ-JKFIT

    Orbital Energies [Eh]
    ---------------------

    Doubly Occupied:

       1A    -20.732824     2A    -15.855178     3A    -11.457227
       4A    -11.454160     5A    -11.449873     6A    -11.449390
       7A     -1.539743     8A     -1.489614     9A     -1.206899
      10A     -1.166459    11A     -1.095253    12A     -1.026864
      13A     -0.920060    14A     -0.877789    15A     -0.854075
      16A     -0.837659    17A     -0.792178    18A     -0.757975
      19A     -0.746404    20A     -0.739679    21A     -0.725477
      22A     -0.718740    23A     -0.712198    24A     -0.674240
      25A     -0.624181

  @DF-RHF Final Energy:  -287.65992414560736

   => Energetics <=

    Nuclear Repulsion Energy =            278.6181792666728256
    One-Electron Energy =                -932.7479313196238309
    Two-Electron Energy =                 366.4698279073436993
    Total Energy =                       -287.6599241456073628
  Basis Set: (AUG-CC-PVTZ AUX)
    Blend: AUG-CC-PVTZ-RI
    Molecular point group: c1

    Geometry (in Angstrom), charge = 1, multiplicity = 1:

       Center              X                  Y                   Z               Mass
    ------------   -----------------  -----------------  -----------------  -----------------
         O           -1.743837882062     0.053379911760    -0.871056689516    15.994914619570
         N            0.742526117938     0.010908911760    -0.173345689516    14.003074004430
         C           -0.234274882062    -0.704183088240     0.721700310484    12.000000000000
         C            0.988084117938     1.425636911760     0.249532310484    12.000000000000
         C            2.023056117938    -0.750031088240    -0.315769689516    12.000000000000
         C           -1.617305882062    -0.099986088240     0.541121310484    12.000000000000
         H            0.271480417938     0.045940611760    -1.070064489516     1.007825032230
         H           -0.238618882062    -1.747065088240     0.398250310484     1.007825032230
         H            0.128863117938    -0.641665088240     1.750492310484     1.007825032230
         H            1.396802117938     1.419118911760     1.260262310484     1.007825032230
         H            1.701314117938     1.873803911760    -0.441841689516     1.007825032230
         H            0.049368117938     1.974538911760     0.213695310484     1.007825032230
         H            2.497385117938    -0.814113088240     0.663676310484     1.007825032230
         H            1.800183117938    -1.746990088240    -0.694769689516     1.007825032230
         H            2.670503117938    -0.219746088240    -1.013751689516     1.007825032230
         H           -2.357393882062    -0.793499088240     0.955241310484     1.007825032230
         H           -1.716574882062     0.858421911760     1.063708310484     1.007825032230
         H           -2.650932882062     0.323285911760    -1.099594689516     1.007825032230

  Basis Set: AUG-CC-PVTZ
    Blend: AUG-CC-PVTZ
  Basis Set: (AUG-CC-PVTZ AUX)
    Blend: AUG-CC-PVTZ-JKFIT
	 Reference Energy          =    -287.6599241456073628 [Eh]
	 Singles Energy            =      -0.0000000000000000 [Eh]
	 Same-Spin Energy          =      -0.2848211301511433 [Eh]
	 Opposite-Spin Energy      =      -0.9989850500538120 [Eh]
	 Correlation Energy        =      -1.2838061802049552 [Eh]
	 Total Energy              =    -288.9437303258123393 [Eh]

	 ================> DF-SCS-MP2 Energies <==================
	-----------------------------------------------------------
	 SCS Same-Spin Scale       =       0.3333333333333333 [-]
	 SCS Opposite-Spin Scale   =       1.2000000000000000 [-]
	 SCS Same-Spin Energy      =      -0.0949403767170478 [Eh]
	 SCS Opposite-Spin Energy  =      -1.1987820600645744 [Eh]
	 SCS Correlation Energy    =      -1.2937224367816222 [Eh]
	 SCS Total Energy          =    -288.9536465823890126 [Eh]
	-----------------------------------------------------------

  Dipole Moment: [D]
     X:     1.3915      Y:     0.3077      Z:     0.6853     Total:     1.5813

*** Psi4 exiting successfully. Buy a developer a beer!
