                               Psi4 1.4a3.dev225

  ==> Input File <==

--------------------------------------------------------------------------
#psi4
#
memory 32 gb

molecule  {
1 1
  O       -1.7781010     0.0481890    -0.8899830
  N        0.7082630     0.0057180    -0.1922720
  C       -0.2685380    -0.7093740     0.7027740
  C        0.9538210     1.4204460     0.2306060
  C        1.9887930    -0.7552220    -0.3346960
  C       -1.6515690    -0.1051770     0.5221950
  H        0.2279220     0.0414410    -1.1066860
  H       -0.2728820    -1.7522560     0.3793240
  H        0.0946000    -0.6468560     1.7315660
  H        1.3625390     1.4139280     1.2413360
  H        1.7325001     1.9097388    -0.5242115
  H        0.0151050     1.9693480     0.1947690
  H        2.4631220    -0.8193040     0.6447500
  H        1.7659200    -1.7521810    -0.7136960
  H        2.6362400    -0.2249370    -1.0326780
  H       -2.3916570    -0.7986900     0.9363150
  H       -1.7508380     0.8532310     1.0447820
  H       -2.6851960     0.3180950    -1.1185210
units angstrom
no_reorient  #important for SAPT in psi4, default
symmetry c1  #important for SAPT in psi4, default
}

set PROPERTIES_ORIGIN ["COM"]
properties('MP2/aug-cc-pvtz', properties = ['dipole'])
--------------------------------------------------------------------------

    Molecular point group: c1
  Charge       = 1
  Multiplicity = 1
  Basis Set: AUG-CC-PVTZ
    Blend: AUG-CC-PVTZ
  Basis Set: (AUG-CC-PVTZ AUX)
    Blend: AUG-CC-PVTZ-JKFIT

    Orbital Energies [Eh]
    ---------------------

    Doubly Occupied:

       1A    -20.733307     2A    -15.856797     3A    -11.459149
       4A    -11.457460     5A    -11.454456     6A    -11.449290
       7A     -1.539809     8A     -1.487025     9A     -1.206123
      10A     -1.161586    11A     -1.089901    12A     -1.025049
      13A     -0.917075    14A     -0.874853    15A     -0.852751
      16A     -0.837226    17A     -0.790337    18A     -0.755631
      19A     -0.744792    20A     -0.738974    21A     -0.719608
      22A     -0.714415    23A     -0.706240    24A     -0.673855
      25A     -0.624562

  @DF-RHF Final Energy:  -287.65247617705745

   => Energetics <=

    Nuclear Repulsion Energy =            278.0833599547648305
    One-Electron Energy =                -931.7311309268654895
    Two-Electron Energy =                 365.9952947950432645
    Total Energy =                       -287.6524761770574514
  Basis Set: (AUG-CC-PVTZ AUX)
    Blend: AUG-CC-PVTZ-RI
    Molecular point group: c1

    Geometry (in Angstrom), charge = 1, multiplicity = 1:

       Center              X                  Y                   Z               Mass
    ------------   -----------------  -----------------  -----------------  -----------------
         O           -1.744466054097     0.052912119147    -0.870149020537    15.994914619570
         N            0.741897945903     0.010441119147    -0.172438020537    14.003074004430
         C           -0.234903054097    -0.704650880853     0.722607979463    12.000000000000
         C            0.987455945903     1.425169119147     0.250439979463    12.000000000000
         C            2.022427945903    -0.750498880853    -0.314862020537    12.000000000000
         C           -1.617934054097    -0.100453880853     0.542028979463    12.000000000000
         H            0.261556945903     0.046164119147    -1.086852020537     1.007825032230
         H           -0.239247054097    -1.747532880853     0.399157979463     1.007825032230
         H            0.128234945903    -0.642132880853     1.751399979463     1.007825032230
         H            1.396173945903     1.418651119147     1.261169979463     1.007825032230
         H            1.766135045903     1.914461919147    -0.504377520537     1.007825032230
         H            0.048739945903     1.974071119147     0.214602979463     1.007825032230
         H            2.496756945903    -0.814580880853     0.664583979463     1.007825032230
         H            1.799554945903    -1.747457880853    -0.693862020537     1.007825032230
         H            2.669874945903    -0.220213880853    -1.012844020537     1.007825032230
         H           -2.358022054097    -0.793966880853     0.956148979463     1.007825032230
         H           -1.717203054097     0.857954119147     1.064615979463     1.007825032230
         H           -2.651561054097     0.322818119147    -1.098687020537     1.007825032230

  Basis Set: AUG-CC-PVTZ
    Blend: AUG-CC-PVTZ
  Basis Set: (AUG-CC-PVTZ AUX)
    Blend: AUG-CC-PVTZ-JKFIT
	 Reference Energy          =    -287.6524761770574514 [Eh]
	 Singles Energy            =      -0.0000000000000000 [Eh]
	 Same-Spin Energy          =      -0.2851425351879630 [Eh]
	 Opposite-Spin Energy      =      -1.0002587285626543 [Eh]
	 Correlation Energy        =      -1.2854012637506171 [Eh]
	 Total Energy              =    -288.9378774408080517 [Eh]

	 ================> DF-SCS-MP2 Energies <==================
	-----------------------------------------------------------
	 SCS Same-Spin Scale       =       0.3333333333333333 [-]
	 SCS Opposite-Spin Scale   =       1.2000000000000000 [-]
	 SCS Same-Spin Energy      =      -0.0950475117293210 [Eh]
	 SCS Opposite-Spin Energy  =      -1.2003104742751851 [Eh]
	 SCS Correlation Energy    =      -1.2953579860045061 [Eh]
	 SCS Total Energy          =    -288.9478341630619411 [Eh]
	-----------------------------------------------------------

  Dipole Moment: [D]
     X:     1.3655      Y:     0.3086      Z:     0.6608     Total:     1.5481

*** Psi4 exiting successfully. Buy a developer a beer!
