                               Psi4 1.4a3.dev225

  ==> Input File <==

--------------------------------------------------------------------------
#psi4
#
memory 32 gb

molecule  {
1 1
  O       -1.7781010     0.0481890    -0.8899830
  N        0.7082630     0.0057180    -0.1922720
  C       -0.2685380    -0.7093740     0.7027740
  C        0.9538210     1.4204460     0.2306060
  C        1.9887930    -0.7552220    -0.3346960
  C       -1.6515690    -0.1051770     0.5221950
  H        0.2279220     0.0414410    -1.1066860
  H       -0.2728820    -1.7522560     0.3793240
  H        0.0946000    -0.6468560     1.7315660
  H        1.3625390     1.4139280     1.2413360
  H        1.6670510     1.8686130    -0.4607680
  H        0.0151050     1.9693480     0.1947690
  H        2.4631220    -0.8193040     0.6447500
  H        1.7240661    -1.7636657    -0.6512422
  H        2.6362400    -0.2249370    -1.0326780
  H       -2.3916570    -0.7986900     0.9363150
  H       -1.7508380     0.8532310     1.0447820
  H       -2.6851960     0.3180950    -1.1185210
units angstrom
no_reorient  #important for SAPT in psi4, default
symmetry c1  #important for SAPT in psi4, default
}

set PROPERTIES_ORIGIN ["COM"]
properties('MP2/aug-cc-pvtz', properties = ['dipole'])
--------------------------------------------------------------------------

    Molecular point group: c1
  Charge       = 1
  Multiplicity = 1
  Basis Set: AUG-CC-PVTZ
    Blend: AUG-CC-PVTZ
  Basis Set: (AUG-CC-PVTZ AUX)
    Blend: AUG-CC-PVTZ-JKFIT

    Orbital Energies [Eh]
    ---------------------

    Doubly Occupied:

       1A    -20.733178     2A    -15.855730     3A    -11.457257
       4A    -11.454296     5A    -11.449933     6A    -11.448910
       7A     -1.539678     8A     -1.487178     9A     -1.206710
      10A     -1.166515    11A     -1.092800    12A     -1.025107
      13A     -0.918232    14A     -0.877311    15A     -0.852644
      16A     -0.839427    17A     -0.792103    18A     -0.757299
      19A     -0.744256    20A     -0.742401    21A     -0.724183
      22A     -0.717343    23A     -0.712179    24A     -0.674146
      25A     -0.624434

  @DF-RHF Final Energy:  -287.65875824416310

   => Energetics <=

    Nuclear Repulsion Energy =            278.5958904678063845
    One-Electron Energy =                -932.7227961601253128
    Two-Electron Energy =                 366.4681474481558325
    Total Energy =                       -287.6587582441630957
  Basis Set: (AUG-CC-PVTZ AUX)
    Blend: AUG-CC-PVTZ-RI
    Molecular point group: c1

    Geometry (in Angstrom), charge = 1, multiplicity = 1:

       Center              X                  Y                   Z               Mass
    ------------   -----------------  -----------------  -----------------  -----------------
         O           -1.743265694657     0.053500653580    -0.871557387614    15.994914619570
         N            0.743098305343     0.011029653580    -0.173846387614    14.003074004430
         C           -0.233702694657    -0.704062346420     0.721199612386    12.000000000000
         C            0.988656305343     1.425757653580     0.249031612386    12.000000000000
         C            2.023628305343    -0.749910346420    -0.316270387614    12.000000000000
         C           -1.616733694657    -0.099865346420     0.540620612386    12.000000000000
         H            0.262757305343     0.046752653580    -1.088260387614     1.007825032230
         H           -0.238046694657    -1.746944346420     0.397749612386     1.007825032230
         H            0.129435305343    -0.641544346420     1.749991612386     1.007825032230
         H            1.397374305343     1.419239653580     1.259761612386     1.007825032230
         H            1.701886305343     1.873924653580    -0.442342387614     1.007825032230
         H            0.049940305343     1.974659653580     0.213194612386     1.007825032230
         H            2.497957305343    -0.813992346420     0.663175612386     1.007825032230
         H            1.758901405343    -1.758354046420    -0.632816587614     1.007825032230
         H            2.671075305343    -0.219625346420    -1.014252387614     1.007825032230
         H           -2.356821694657    -0.793378346420     0.954740612386     1.007825032230
         H           -1.716002694657     0.858542653580     1.063207612386     1.007825032230
         H           -2.650360694657     0.323406653580    -1.100095387614     1.007825032230

  Basis Set: AUG-CC-PVTZ
    Blend: AUG-CC-PVTZ
  Basis Set: (AUG-CC-PVTZ AUX)
    Blend: AUG-CC-PVTZ-JKFIT
	 Reference Energy          =    -287.6587582441630957 [Eh]
	 Singles Energy            =      -0.0000000000000000 [Eh]
	 Same-Spin Energy          =      -0.2850796913487982 [Eh]
	 Opposite-Spin Energy      =      -0.9995154197408329 [Eh]
	 Correlation Energy        =      -1.2845951110896312 [Eh]
	 Total Energy              =    -288.9433533552527251 [Eh]

	 ================> DF-SCS-MP2 Energies <==================
	-----------------------------------------------------------
	 SCS Same-Spin Scale       =       0.3333333333333333 [-]
	 SCS Opposite-Spin Scale   =       1.2000000000000000 [-]
	 SCS Same-Spin Energy      =      -0.0950265637829327 [Eh]
	 SCS Opposite-Spin Energy  =      -1.1994185036889995 [Eh]
	 SCS Correlation Energy    =      -1.2944450674719321 [Eh]
	 SCS Total Energy          =    -288.9532033116350362 [Eh]
	-----------------------------------------------------------

  Dipole Moment: [D]
     X:     1.3609      Y:     0.3111      Z:     0.6929     Total:     1.5584

*** Psi4 exiting successfully. Buy a developer a beer!
