                               Psi4 1.4a3.dev225

  ==> Input File <==

--------------------------------------------------------------------------
#psi4
#
memory 32 gb

molecule  {
1 1
  O       -1.7781010     0.0481890    -0.8899830
  N        0.7082630     0.0057180    -0.1922720
  C       -0.2685380    -0.7093740     0.7027740
  C        0.8503986     1.4351337     0.2286175
  C        1.9887930    -0.7552220    -0.3346960
  C       -1.6515690    -0.1051770     0.5221950
  H        0.2279220     0.0414410    -1.1066860
  H       -0.2728820    -1.7522560     0.3793240
  H        0.0946000    -0.6468560     1.7315660
  H        1.3625390     1.4139280     1.2413360
  H        1.6670510     1.8686130    -0.4607680
  H        0.0151050     1.9693480     0.1947690
  H        2.4631220    -0.8193040     0.6447500
  H        1.7659200    -1.7521810    -0.7136960
  H        2.6362400    -0.2249370    -1.0326780
  H       -2.3916570    -0.7986900     0.9363150
  H       -1.7508380     0.8532310     1.0447820
  H       -2.6851960     0.3180950    -1.1185210
units angstrom
no_reorient  #important for SAPT in psi4, default
symmetry c1  #important for SAPT in psi4, default
}

set PROPERTIES_ORIGIN ["COM"]
properties('MP2/aug-cc-pvtz', properties = ['dipole'])
--------------------------------------------------------------------------

    Molecular point group: c1
  Charge       = 1
  Multiplicity = 1
  Basis Set: AUG-CC-PVTZ
    Blend: AUG-CC-PVTZ
  Basis Set: (AUG-CC-PVTZ AUX)
    Blend: AUG-CC-PVTZ-JKFIT

    Orbital Energies [Eh]
    ---------------------

    Doubly Occupied:

       1A    -20.733692     2A    -15.856938     3A    -11.456116
       4A    -11.454567     5A    -11.451690     6A    -11.450792
       7A     -1.540389     8A     -1.487419     9A     -1.205319
      10A     -1.171238    11A     -1.091632    12A     -1.024569
      13A     -0.923822    14A     -0.875780    15A     -0.858532
      16A     -0.840331    17A     -0.791622    18A     -0.756001
      19A     -0.745924    20A     -0.740993    21A     -0.736105
      22A     -0.710450    23A     -0.699258    24A     -0.673783
      25A     -0.625020

  @DF-RHF Final Energy:  -287.64479239392091

   => Energetics <=

    Nuclear Repulsion Energy =            278.8565107320130778
    One-Electron Energy =                -933.1986421938233889
    Two-Electron Energy =                 366.6973390678894589
    Total Energy =                       -287.6447923939209090
  Basis Set: (AUG-CC-PVTZ AUX)
    Blend: AUG-CC-PVTZ-RI
    Molecular point group: c1

    Geometry (in Angstrom), charge = 1, multiplicity = 1:

       Center              X                  Y                   Z               Mass
    ------------   -----------------  -----------------  -----------------  -----------------
         O           -1.729958310329     0.051415815864    -0.870593876870    15.994914619570
         N            0.756405689671     0.008944815864    -0.172882876870    14.003074004430
         C           -0.220395310329    -0.706147184136     0.722163123130    12.000000000000
         C            0.898541289671     1.438360515864     0.248006623130    12.000000000000
         C            2.036935689671    -0.751995184136    -0.315306876870    12.000000000000
         C           -1.603426310329    -0.101950184136     0.541584123130    12.000000000000
         H            0.276064689671     0.044667815864    -1.087296876870     1.007825032230
         H           -0.224739310329    -1.749029184136     0.398713123130     1.007825032230
         H            0.142742689671    -0.643629184136     1.750955123130     1.007825032230
         H            1.410681689671     1.417154815864     1.260725123130     1.007825032230
         H            1.715193689671     1.871839815864    -0.441378876870     1.007825032230
         H            0.063247689671     1.972574815864     0.214158123130     1.007825032230
         H            2.511264689671    -0.816077184136     0.664139123130     1.007825032230
         H            1.814062689671    -1.748954184136    -0.694306876870     1.007825032230
         H            2.684382689671    -0.221710184136    -1.013288876870     1.007825032230
         H           -2.343514310329    -0.795463184136     0.955704123130     1.007825032230
         H           -1.702695310329     0.856457815864     1.064171123130     1.007825032230
         H           -2.637053310329     0.321321815864    -1.099131876870     1.007825032230

  Basis Set: AUG-CC-PVTZ
    Blend: AUG-CC-PVTZ
  Basis Set: (AUG-CC-PVTZ AUX)
    Blend: AUG-CC-PVTZ-JKFIT
	 Reference Energy          =    -287.6447923939209090 [Eh]
	 Singles Energy            =      -0.0000000000000000 [Eh]
	 Same-Spin Energy          =      -0.2853262931570508 [Eh]
	 Opposite-Spin Energy      =      -1.0001589899606174 [Eh]
	 Correlation Energy        =      -1.2854852831176682 [Eh]
	 Total Energy              =    -288.9302776770385890 [Eh]

	 ================> DF-SCS-MP2 Energies <==================
	-----------------------------------------------------------
	 SCS Same-Spin Scale       =       0.3333333333333333 [-]
	 SCS Opposite-Spin Scale   =       1.2000000000000000 [-]
	 SCS Same-Spin Energy      =      -0.0951087643856836 [Eh]
	 SCS Opposite-Spin Energy  =      -1.2001907879527407 [Eh]
	 SCS Correlation Energy    =      -1.2952995523384243 [Eh]
	 SCS Total Energy          =    -288.9400919462593151 [Eh]
	-----------------------------------------------------------

  Dipole Moment: [D]
     X:     1.4143      Y:     0.2663      Z:     0.6440     Total:     1.5766

*** Psi4 exiting successfully. Buy a developer a beer!
