                               Psi4 1.4a3.dev225

  ==> Input File <==

--------------------------------------------------------------------------
#psi4
#
memory 32 gb

molecule  {
1 1
  O       -1.7781010     0.0481890    -0.8899830
  N        0.7082630     0.0057180    -0.1922720
  C       -0.2685380    -0.7093740     0.7027740
  C        0.9538210     1.4204460     0.2306060
  C        1.9887930    -0.7552220    -0.3346960
  C       -1.6515690    -0.1051770     0.5221950
  H        0.2279220     0.0414410    -1.1066860
  H       -0.2728820    -1.7522560     0.3793240
  H        0.0946000    -0.6468560     1.7315660
  H        1.3625390     1.4139280     1.2413360
  H        1.6539612     1.8603878    -0.4480793
  H        0.0151050     1.9693480     0.1947690
  H        2.4631220    -0.8193040     0.6447500
  H        1.7659200    -1.7521810    -0.7136960
  H        2.6362400    -0.2249370    -1.0326780
  H       -2.3916570    -0.7986900     0.9363150
  H       -1.7508380     0.8532310     1.0447820
  H       -2.6851960     0.3180950    -1.1185210
units angstrom
no_reorient  #important for SAPT in psi4, default
symmetry c1  #important for SAPT in psi4, default
}

set PROPERTIES_ORIGIN ["COM"]
properties('MP2/aug-cc-pvtz', properties = ['dipole'])
--------------------------------------------------------------------------

    Molecular point group: c1
  Charge       = 1
  Multiplicity = 1
  Basis Set: AUG-CC-PVTZ
    Blend: AUG-CC-PVTZ
  Basis Set: (AUG-CC-PVTZ AUX)
    Blend: AUG-CC-PVTZ-JKFIT

    Orbital Energies [Eh]
    ---------------------

    Doubly Occupied:

       1A    -20.733108     2A    -15.856154     3A    -11.456972
       4A    -11.454126     5A    -11.449588     6A    -11.446987
       7A     -1.539603     8A     -1.487156     9A     -1.206829
      10A     -1.167179    11A     -1.093710    12A     -1.024918
      13A     -0.919646    14A     -0.877695    15A     -0.853751
      16A     -0.837316    17A     -0.792495    18A     -0.758445
      19A     -0.746401    20A     -0.739687    21A     -0.726938
      22A     -0.717353    23A     -0.711839    24A     -0.674129
      25A     -0.624325

  @DF-RHF Final Energy:  -287.65942519827348

   => Energetics <=

    Nuclear Repulsion Energy =            278.6050050446814907
    One-Electron Energy =                -932.7361576681907991
    Two-Electron Energy =                 366.4717274252357697
    Total Energy =                       -287.6594251982734818
  Basis Set: (AUG-CC-PVTZ AUX)
    Blend: AUG-CC-PVTZ-RI
    Molecular point group: c1

    Geometry (in Angstrom), charge = 1, multiplicity = 1:

       Center              X                  Y                   Z               Mass
    ------------   -----------------  -----------------  -----------------  -----------------
         O           -1.743587468130     0.053464190745    -0.871000683630    15.994914619570
         N            0.742776531870     0.010993190745    -0.173289683630    14.003074004430
         C           -0.234024468130    -0.704098809255     0.721756316370    12.000000000000
         C            0.988334531870     1.425721190745     0.249588316370    12.000000000000
         C            2.023306531870    -0.749946809255    -0.315713683630    12.000000000000
         C           -1.617055468130    -0.099901809255     0.541177316370    12.000000000000
         H            0.262435531870     0.046716190745    -1.087703683630     1.007825032230
         H           -0.238368468130    -1.746980809255     0.398306316370     1.007825032230
         H            0.129113531870    -0.641580809255     1.750548316370     1.007825032230
         H            1.397052531870     1.419203190745     1.260318316370     1.007825032230
         H            1.688474731870     1.865662990745    -0.429096983630     1.007825032230
         H            0.049618531870     1.974623190745     0.213751316370     1.007825032230
         H            2.497635531870    -0.814028809255     0.663732316370     1.007825032230
         H            1.800433531870    -1.746905809255    -0.694713683630     1.007825032230
         H            2.670753531870    -0.219661809255    -1.013695683630     1.007825032230
         H           -2.357143468130    -0.793414809255     0.955297316370     1.007825032230
         H           -1.716324468130     0.858506190745     1.063764316370     1.007825032230
         H           -2.650682468130     0.323370190745    -1.099538683630     1.007825032230

  Basis Set: AUG-CC-PVTZ
    Blend: AUG-CC-PVTZ
  Basis Set: (AUG-CC-PVTZ AUX)
    Blend: AUG-CC-PVTZ-JKFIT
	 Reference Energy          =    -287.6594251982734818 [Eh]
	 Singles Energy            =      -0.0000000000000000 [Eh]
	 Same-Spin Energy          =      -0.2849947299960611 [Eh]
	 Opposite-Spin Energy      =      -0.9992704868830363 [Eh]
	 Correlation Energy        =      -1.2842652168790973 [Eh]
	 Total Energy              =    -288.9436904151525596 [Eh]

	 ================> DF-SCS-MP2 Energies <==================
	-----------------------------------------------------------
	 SCS Same-Spin Scale       =       0.3333333333333333 [-]
	 SCS Opposite-Spin Scale   =       1.2000000000000000 [-]
	 SCS Same-Spin Energy      =      -0.0949982433320204 [Eh]
	 SCS Opposite-Spin Energy  =      -1.1991245842596436 [Eh]
	 SCS Correlation Energy    =      -1.2941228275916641 [Eh]
	 SCS Total Energy          =    -288.9535480258651319 [Eh]
	-----------------------------------------------------------

  Dipole Moment: [D]
     X:     1.3692      Y:     0.3080      Z:     0.6628     Total:     1.5520

*** Psi4 exiting successfully. Buy a developer a beer!
