                               Psi4 1.4a3.dev225

  ==> Input File <==

--------------------------------------------------------------------------
#psi4
#
memory 32 gb

molecule  {
1 1
  O       -1.7781010     0.0481890    -0.8899830
  N        0.7082630     0.0057180    -0.1922720
  C       -0.2685380    -0.7093740     0.7027740
  C        0.9538210     1.4204460     0.2306060
  C        1.9460046    -0.7297955    -0.3299370
  C       -1.6515690    -0.1051770     0.5221950
  H        0.2279220     0.0414410    -1.1066860
  H       -0.2728820    -1.7522560     0.3793240
  H        0.0946000    -0.6468560     1.7315660
  H        1.3625390     1.4139280     1.2413360
  H        1.6670510     1.8686130    -0.4607680
  H        0.0151050     1.9693480     0.1947690
  H        2.4631220    -0.8193040     0.6447500
  H        1.7659200    -1.7521810    -0.7136960
  H        2.6362400    -0.2249370    -1.0326780
  H       -2.3916570    -0.7986900     0.9363150
  H       -1.7508380     0.8532310     1.0447820
  H       -2.6851960     0.3180950    -1.1185210
units angstrom
no_reorient  #important for SAPT in psi4, default
symmetry c1  #important for SAPT in psi4, default
}

set PROPERTIES_ORIGIN ["COM"]
properties('MP2/aug-cc-pvtz', properties = ['dipole'])
--------------------------------------------------------------------------

    Molecular point group: c1
  Charge       = 1
  Multiplicity = 1
  Basis Set: AUG-CC-PVTZ
    Blend: AUG-CC-PVTZ
  Basis Set: (AUG-CC-PVTZ AUX)
    Blend: AUG-CC-PVTZ-JKFIT

    Orbital Energies [Eh]
    ---------------------

    Doubly Occupied:

       1A    -20.734149     2A    -15.858692     3A    -11.458456
       4A    -11.455226     5A    -11.450556     6A    -11.448315
       7A     -1.541867     8A     -1.497528     9A     -1.209486
      10A     -1.168393    11A     -1.091244    12A     -1.027744
      13A     -0.923671    14A     -0.879829    15A     -0.857579
      16A     -0.840841    17A     -0.795924    18A     -0.757545
      19A     -0.741803    20A     -0.737143    21A     -0.722687
      22A     -0.717664    23A     -0.708458    24A     -0.674238
      25A     -0.625392

  @DF-RHF Final Energy:  -287.65705275113919

   => Energetics <=

    Nuclear Repulsion Energy =            279.4129476847389810
    One-Electron Energy =                -934.2911377981226906
    Two-Electron Energy =                 367.2211373622444626
    Total Energy =                       -287.6570527511391901
  Basis Set: (AUG-CC-PVTZ AUX)
    Blend: AUG-CC-PVTZ-RI
    Molecular point group: c1

    Geometry (in Angstrom), charge = 1, multiplicity = 1:

       Center              X                  Y                   Z               Mass
    ------------   -----------------  -----------------  -----------------  -----------------
         O           -1.738034597862     0.049985436266    -0.871492625924    15.994914619570
         N            0.748329402138     0.007514436266    -0.173781625924    14.003074004430
         C           -0.228471597862    -0.707577563734     0.721264374076    12.000000000000
         C            0.993887402138     1.422242436266     0.249096374076    12.000000000000
         C            1.986071002138    -0.727999063734    -0.311446625924    12.000000000000
         C           -1.611502597862    -0.103380563734     0.540685374076    12.000000000000
         H            0.267988402138     0.043237436266    -1.088195625924     1.007825032230
         H           -0.232815597862    -1.750459563734     0.397814374076     1.007825032230
         H            0.134666402138    -0.645059563734     1.750056374076     1.007825032230
         H            1.402605402138     1.415724436266     1.259826374076     1.007825032230
         H            1.707117402138     1.870409436266    -0.442277625924     1.007825032230
         H            0.055171402138     1.971144436266     0.213259374076     1.007825032230
         H            2.503188402138    -0.817507563734     0.663240374076     1.007825032230
         H            1.805986402138    -1.750384563734    -0.695205625924     1.007825032230
         H            2.676306402138    -0.223140563734    -1.014187625924     1.007825032230
         H           -2.351590597862    -0.796893563734     0.954805374076     1.007825032230
         H           -1.710771597862     0.855027436266     1.063272374076     1.007825032230
         H           -2.645129597862     0.319891436266    -1.100030625924     1.007825032230

  Basis Set: AUG-CC-PVTZ
    Blend: AUG-CC-PVTZ
  Basis Set: (AUG-CC-PVTZ AUX)
    Blend: AUG-CC-PVTZ-JKFIT
	 Reference Energy          =    -287.6570527511391901 [Eh]
	 Singles Energy            =      -0.0000000000000000 [Eh]
	 Same-Spin Energy          =      -0.2854235503075625 [Eh]
	 Opposite-Spin Energy      =      -0.9994869509568418 [Eh]
	 Correlation Energy        =      -1.2849105012644042 [Eh]
	 Total Energy              =    -288.9419632524035819 [Eh]

	 ================> DF-SCS-MP2 Energies <==================
	-----------------------------------------------------------
	 SCS Same-Spin Scale       =       0.3333333333333333 [-]
	 SCS Opposite-Spin Scale   =       1.2000000000000000 [-]
	 SCS Same-Spin Energy      =      -0.0951411834358542 [Eh]
	 SCS Opposite-Spin Energy  =      -1.1993843411482101 [Eh]
	 SCS Correlation Energy    =      -1.2945255245840643 [Eh]
	 SCS Total Energy          =    -288.9515782757232500 [Eh]
	-----------------------------------------------------------

  Dipole Moment: [D]
     X:     1.3019      Y:     0.3443      Z:     0.6768     Total:     1.5072

*** Psi4 exiting successfully. Buy a developer a beer!
