                               Psi4 1.4a3.dev225

  ==> Input File <==

--------------------------------------------------------------------------
#psi4
#
memory 32 gb

molecule  {
1 1
  O       -1.7781010     0.0481890    -0.8899830
  N        0.7082630     0.0057180    -0.1922720
  C       -0.2685380    -0.7093740     0.7027740
  C        0.9538210     1.4204460     0.2306060
  C        1.9887930    -0.7552220    -0.3346960
  C       -1.6515690    -0.1051770     0.5221950
  H        0.2279220     0.0414410    -1.1066860
  H       -0.2728820    -1.7522560     0.3793240
  H        0.0946000    -0.6468560     1.7315660
  H        1.3625390     1.4139280     1.2413360
  H        1.6670510     1.8686130    -0.4607680
  H        0.0151050     1.9693480     0.1947690
  H        2.4631220    -0.8193040     0.6447500
  H        1.7553467    -1.7555101    -0.6982439
  H        2.6362400    -0.2249370    -1.0326780
  H       -2.3916570    -0.7986900     0.9363150
  H       -1.7508380     0.8532310     1.0447820
  H       -2.6851960     0.3180950    -1.1185210
units angstrom
no_reorient  #important for SAPT in psi4, default
symmetry c1  #important for SAPT in psi4, default
}

set PROPERTIES_ORIGIN ["COM"]
properties('MP2/aug-cc-pvtz', properties = ['dipole'])
--------------------------------------------------------------------------

    Molecular point group: c1
  Charge       = 1
  Multiplicity = 1
  Basis Set: AUG-CC-PVTZ
    Blend: AUG-CC-PVTZ
  Basis Set: (AUG-CC-PVTZ AUX)
    Blend: AUG-CC-PVTZ-JKFIT

    Orbital Energies [Eh]
    ---------------------

    Doubly Occupied:

       1A    -20.733145     2A    -15.856115     3A    -11.457091
       4A    -11.454202     5A    -11.449636     6A    -11.449055
       7A     -1.539640     8A     -1.487123     9A     -1.206663
      10A     -1.166151    11A     -1.092944    12A     -1.024965
      13A     -0.918877    14A     -0.877176    15A     -0.853327
      16A     -0.837796    17A     -0.792038    18A     -0.757525
      19A     -0.745530    20A     -0.740292    21A     -0.725073
      22A     -0.717222    23A     -0.711845    24A     -0.674124
      25A     -0.624376

  @DF-RHF Final Energy:  -287.65932914797344

   => Energetics <=

    Nuclear Repulsion Energy =            278.5330359963193700
    One-Electron Energy =                -932.6008646260953583
    Two-Electron Energy =                 366.4084994818024938
    Total Energy =                       -287.6593291479734376
  Basis Set: (AUG-CC-PVTZ AUX)
    Blend: AUG-CC-PVTZ-RI
    Molecular point group: c1

    Geometry (in Angstrom), charge = 1, multiplicity = 1:

       Center              X                  Y                   Z               Mass
    ------------   -----------------  -----------------  -----------------  -----------------
         O           -1.743615619296     0.053409419864    -0.871031596776    15.994914619570
         N            0.742748380704     0.010938419864    -0.173320596776    14.003074004430
         C           -0.234052619296    -0.704153580136     0.721725403224    12.000000000000
         C            0.988306380704     1.425666419864     0.249557403224    12.000000000000
         C            2.023278380704    -0.750001580136    -0.315744596776    12.000000000000
         C           -1.617083619296    -0.099956580136     0.541146403224    12.000000000000
         H            0.262407380704     0.046661419864    -1.087734596776     1.007825032230
         H           -0.238396619296    -1.747035580136     0.398275403224     1.007825032230
         H            0.129085380704    -0.641635580136     1.750517403224     1.007825032230
         H            1.397024380704     1.419148419864     1.260287403224     1.007825032230
         H            1.701536380704     1.873833419864    -0.441816596776     1.007825032230
         H            0.049590380704     1.974568419864     0.213720403224     1.007825032230
         H            2.497607380704    -0.814083580136     0.663701403224     1.007825032230
         H            1.789832080704    -1.750289680136    -0.679292496776     1.007825032230
         H            2.670725380704    -0.219716580136    -1.013726596776     1.007825032230
         H           -2.357171619296    -0.793469580136     0.955266403224     1.007825032230
         H           -1.716352619296     0.858451419864     1.063733403224     1.007825032230
         H           -2.650710619296     0.323315419864    -1.099569596776     1.007825032230

  Basis Set: AUG-CC-PVTZ
    Blend: AUG-CC-PVTZ
  Basis Set: (AUG-CC-PVTZ AUX)
    Blend: AUG-CC-PVTZ-JKFIT
	 Reference Energy          =    -287.6593291479734376 [Eh]
	 Singles Energy            =      -0.0000000000000000 [Eh]
	 Same-Spin Energy          =      -0.2850259585508984 [Eh]
	 Opposite-Spin Energy      =      -0.9994295267258847 [Eh]
	 Correlation Energy        =      -1.2844554852767831 [Eh]
	 Total Energy              =    -288.9437846332502318 [Eh]

	 ================> DF-SCS-MP2 Energies <==================
	-----------------------------------------------------------
	 SCS Same-Spin Scale       =       0.3333333333333333 [-]
	 SCS Opposite-Spin Scale   =       1.2000000000000000 [-]
	 SCS Same-Spin Energy      =      -0.0950086528502995 [Eh]
	 SCS Opposite-Spin Energy  =      -1.1993154320710615 [Eh]
	 SCS Correlation Energy    =      -1.2943240849213609 [Eh]
	 SCS Total Energy          =    -288.9536532328947942 [Eh]
	-----------------------------------------------------------

  Dipole Moment: [D]
     X:     1.3668      Y:     0.3088      Z:     0.6700     Total:     1.5532

*** Psi4 exiting successfully. Buy a developer a beer!
