                               Psi4 1.4a3.dev225

  ==> Input File <==

--------------------------------------------------------------------------
#psi4
#
memory 32 gb

molecule  {
1 1
  O       -1.7781010     0.0481890    -0.8899830
  N        0.7082630     0.0057180    -0.1922720
  C       -0.3983002    -0.8043697     0.8216756
  C        0.9538210     1.4204460     0.2306060
  C        1.9887930    -0.7552220    -0.3346960
  C       -1.6515690    -0.1051770     0.5221950
  H        0.2279220     0.0414410    -1.1066860
  H       -0.2728820    -1.7522560     0.3793240
  H        0.0946000    -0.6468560     1.7315660
  H        1.3625390     1.4139280     1.2413360
  H        1.6670510     1.8686130    -0.4607680
  H        0.0151050     1.9693480     0.1947690
  H        2.4631220    -0.8193040     0.6447500
  H        1.7659200    -1.7521810    -0.7136960
  H        2.6362400    -0.2249370    -1.0326780
  H       -2.3916570    -0.7986900     0.9363150
  H       -1.7508380     0.8532310     1.0447820
  H       -2.6851960     0.3180950    -1.1185210
units angstrom
no_reorient  #important for SAPT in psi4, default
symmetry c1  #important for SAPT in psi4, default
}

set PROPERTIES_ORIGIN ["COM"]
properties('MP2/aug-cc-pvtz', properties = ['dipole'])
--------------------------------------------------------------------------

    Molecular point group: c1
  Charge       = 1
  Multiplicity = 1
  Basis Set: AUG-CC-PVTZ
    Blend: AUG-CC-PVTZ
  Basis Set: (AUG-CC-PVTZ AUX)
    Blend: AUG-CC-PVTZ-JKFIT

    Orbital Energies [Eh]
    ---------------------

    Doubly Occupied:

       1A    -20.738901     2A    -15.835829     3A    -11.473314
       4A    -11.459250     5A    -11.440878     6A    -11.440426
       7A     -1.541038     8A     -1.451720     9A     -1.224867
      10A     -1.153565    11A     -1.078201    12A     -1.028552
      13A     -0.909298    14A     -0.871626    15A     -0.857038
      16A     -0.823575    17A     -0.794666    18A     -0.768710
      19A     -0.752162    20A     -0.741388    21A     -0.721153
      22A     -0.714316    23A     -0.705277    24A     -0.660062
      25A     -0.626258

  @DF-RHF Final Energy:  -287.63299188584671

   => Energetics <=

    Nuclear Repulsion Energy =            276.0268808161238780
    One-Electron Energy =                -927.6956115402437035
    Two-Electron Energy =                 364.0357388382730619
    Total Energy =                       -287.6329918858467067
  Basis Set: (AUG-CC-PVTZ AUX)
    Blend: AUG-CC-PVTZ-RI
    Molecular point group: c1

    Geometry (in Angstrom), charge = 1, multiplicity = 1:

       Center              X                  Y                   Z               Mass
    ------------   -----------------  -----------------  -----------------  -----------------
         O           -1.726449919025     0.066025353020    -0.886696116660    15.994914619570
         N            0.759914080975     0.023554353020    -0.188985116660    14.003074004430
         C           -0.346649119025    -0.786533346980     0.824962483340    12.000000000000
         C            1.005472080975     1.438282353020     0.233892883340    12.000000000000
         C            2.040444080975    -0.737385646980    -0.331409116660    12.000000000000
         C           -1.599917919025    -0.087340646980     0.525481883340    12.000000000000
         H            0.279573080975     0.059277353020    -1.103399116660     1.007825032230
         H           -0.221230919025    -1.734419646980     0.382610883340     1.007825032230
         H            0.146251080975    -0.629019646980     1.734852883340     1.007825032230
         H            1.414190080975     1.431764353020     1.244622883340     1.007825032230
         H            1.718702080975     1.886449353020    -0.457481116660     1.007825032230
         H            0.066756080975     1.987184353020     0.198055883340     1.007825032230
         H            2.514773080975    -0.801467646980     0.648036883340     1.007825032230
         H            1.817571080975    -1.734344646980    -0.710409116660     1.007825032230
         H            2.687891080975    -0.207100646980    -1.029391116660     1.007825032230
         H           -2.340005919025    -0.780853646980     0.939601883340     1.007825032230
         H           -1.699186919025     0.871067353020     1.048068883340     1.007825032230
         H           -2.633544919025     0.335931353020    -1.115234116660     1.007825032230

  Basis Set: AUG-CC-PVTZ
    Blend: AUG-CC-PVTZ
  Basis Set: (AUG-CC-PVTZ AUX)
    Blend: AUG-CC-PVTZ-JKFIT
	 Reference Energy          =    -287.6329918858467067 [Eh]
	 Singles Energy            =      -0.0000000000000000 [Eh]
	 Same-Spin Energy          =      -0.2853239278099871 [Eh]
	 Opposite-Spin Energy      =      -1.0014143466008367 [Eh]
	 Correlation Energy        =      -1.2867382744108238 [Eh]
	 Total Energy              =    -288.9197301602575294 [Eh]

	 ================> DF-SCS-MP2 Energies <==================
	-----------------------------------------------------------
	 SCS Same-Spin Scale       =       0.3333333333333333 [-]
	 SCS Opposite-Spin Scale   =       1.2000000000000000 [-]
	 SCS Same-Spin Energy      =      -0.0951079759366623 [Eh]
	 SCS Opposite-Spin Energy  =      -1.2016972159210040 [Eh]
	 SCS Correlation Energy    =      -1.2968051918576664 [Eh]
	 SCS Total Energy          =    -288.9297970777043929 [Eh]
	-----------------------------------------------------------

  Dipole Moment: [D]
     X:     1.0217      Y:     0.1445      Z:     0.8334     Total:     1.3264

*** Psi4 exiting successfully. Buy a developer a beer!
