                               Psi4 1.4a3.dev225

  ==> Input File <==

--------------------------------------------------------------------------
#psi4
#
memory 32 gb

molecule  {
1 1
  O       -1.7781010     0.0481890    -0.8899830
  N        0.7082630     0.0057180    -0.1922720
  C       -0.2685380    -0.7093740     0.7027740
  C        0.9538210     1.4204460     0.2306060
  C        1.9887930    -0.7552220    -0.3346960
  C       -1.6515690    -0.1051770     0.5221950
  H        0.2279220     0.0414410    -1.1066860
  H       -0.2728820    -1.7522560     0.3793240
  H        0.0946000    -0.6468560     1.7315660
  H        1.3625390     1.4139280     1.2413360
  H        1.6801408     1.8768382    -0.4734567
  H        0.0151050     1.9693480     0.1947690
  H        2.4631220    -0.8193040     0.6447500
  H        1.7659200    -1.7521810    -0.7136960
  H        2.6362400    -0.2249370    -1.0326780
  H       -2.3916570    -0.7986900     0.9363150
  H       -1.7508380     0.8532310     1.0447820
  H       -2.6851960     0.3180950    -1.1185210
units angstrom
no_reorient  #important for SAPT in psi4, default
symmetry c1  #important for SAPT in psi4, default
}

set PROPERTIES_ORIGIN ["COM"]
properties('MP2/aug-cc-pvtz', properties = ['dipole'])
--------------------------------------------------------------------------

    Molecular point group: c1
  Charge       = 1
  Multiplicity = 1
  Basis Set: AUG-CC-PVTZ
    Blend: AUG-CC-PVTZ
  Basis Set: (AUG-CC-PVTZ AUX)
    Blend: AUG-CC-PVTZ-JKFIT

    Orbital Energies [Eh]
    ---------------------

    Doubly Occupied:

       1A    -20.733164     2A    -15.856342     3A    -11.457114
       4A    -11.454223     5A    -11.451182     6A    -11.449486
       7A     -1.539659     8A     -1.487072     9A     -1.206503
      10A     -1.164994    11A     -1.092321    12A     -1.024938
      13A     -0.918607    14A     -0.876610    15A     -0.853381
      16A     -0.837253    17A     -0.791596    18A     -0.757070
      19A     -0.745752    20A     -0.739398    21A     -0.723389
      22A     -0.716874    23A     -0.711421    24A     -0.674082
      25A     -0.624394

  @DF-RHF Final Energy:  -287.65880952491852

   => Energetics <=

    Nuclear Repulsion Energy =            278.4230635099629581
    One-Electron Energy =                -932.3900956194404444
    Two-Electron Energy =                 366.3082225845589619
    Total Energy =                       -287.6588095249185244
  Basis Set: (AUG-CC-PVTZ AUX)
    Blend: AUG-CC-PVTZ-RI
    Molecular point group: c1

    Geometry (in Angstrom), charge = 1, multiplicity = 1:

       Center              X                  Y                   Z               Mass
    ------------   -----------------  -----------------  -----------------  -----------------
         O           -1.743880329746     0.053280166133    -0.870716795932    15.994914619570
         N            0.742483670254     0.010809166133    -0.173005795932    14.003074004430
         C           -0.234317329746    -0.704282833867     0.722040204068    12.000000000000
         C            0.988041670254     1.425537166133     0.249872204068    12.000000000000
         C            2.023013670254    -0.750130833867    -0.315429795932    12.000000000000
         C           -1.617348329746    -0.100085833867     0.541461204068    12.000000000000
         H            0.262142670254     0.046532166133    -1.087419795932     1.007825032230
         H           -0.238661329746    -1.747164833867     0.398590204068     1.007825032230
         H            0.128820670254    -0.641764833867     1.750832204068     1.007825032230
         H            1.396759670254     1.419019166133     1.260602204068     1.007825032230
         H            1.714361470254     1.881929366133    -0.454190495932     1.007825032230
         H            0.049325670254     1.974439166133     0.214035204068     1.007825032230
         H            2.497342670254    -0.814212833867     0.664016204068     1.007825032230
         H            1.800140670254    -1.747089833867    -0.694429795932     1.007825032230
         H            2.670460670254    -0.219845833867    -1.013411795932     1.007825032230
         H           -2.357436329746    -0.793598833867     0.955581204068     1.007825032230
         H           -1.716617329746     0.858322166133     1.064048204068     1.007825032230
         H           -2.650975329746     0.323186166133    -1.099254795932     1.007825032230

  Basis Set: AUG-CC-PVTZ
    Blend: AUG-CC-PVTZ
  Basis Set: (AUG-CC-PVTZ AUX)
    Blend: AUG-CC-PVTZ-JKFIT
	 Reference Energy          =    -287.6588095249185244 [Eh]
	 Singles Energy            =      -0.0000000000000000 [Eh]
	 Same-Spin Energy          =      -0.2850375423832395 [Eh]
	 Opposite-Spin Energy      =      -0.9995624419950621 [Eh]
	 Correlation Energy        =      -1.2845999843783016 [Eh]
	 Total Energy              =    -288.9434095092968278 [Eh]

	 ================> DF-SCS-MP2 Energies <==================
	-----------------------------------------------------------
	 SCS Same-Spin Scale       =       0.3333333333333333 [-]
	 SCS Opposite-Spin Scale   =       1.2000000000000000 [-]
	 SCS Same-Spin Energy      =      -0.0950125141277465 [Eh]
	 SCS Opposite-Spin Energy  =      -1.1994749303940744 [Eh]
	 SCS Correlation Energy    =      -1.2944874445218209 [Eh]
	 SCS Total Energy          =    -288.9532969694403732 [Eh]
	-----------------------------------------------------------

  Dipole Moment: [D]
     X:     1.3685      Y:     0.3088      Z:     0.6619     Total:     1.5512

*** Psi4 exiting successfully. Buy a developer a beer!
