                               Psi4 1.4a3.dev225

  ==> Input File <==

--------------------------------------------------------------------------
#psi4
#
memory 32 gb

molecule  {
1 1
  O       -1.7781010     0.0481890    -0.8899830
  N        0.7082630     0.0057180    -0.1922720
  C       -0.2036569    -0.6618761     0.6433232
  C        0.9538210     1.4204460     0.2306060
  C        1.9887930    -0.7552220    -0.3346960
  C       -1.6515690    -0.1051770     0.5221950
  H        0.2279220     0.0414410    -1.1066860
  H       -0.2728820    -1.7522560     0.3793240
  H        0.0946000    -0.6468560     1.7315660
  H        1.3625390     1.4139280     1.2413360
  H        1.6670510     1.8686130    -0.4607680
  H        0.0151050     1.9693480     0.1947690
  H        2.4631220    -0.8193040     0.6447500
  H        1.7659200    -1.7521810    -0.7136960
  H        2.6362400    -0.2249370    -1.0326780
  H       -2.3916570    -0.7986900     0.9363150
  H       -1.7508380     0.8532310     1.0447820
  H       -2.6851960     0.3180950    -1.1185210
units angstrom
no_reorient  #important for SAPT in psi4, default
symmetry c1  #important for SAPT in psi4, default
}

set PROPERTIES_ORIGIN ["COM"]
properties('MP2/aug-cc-pvtz', properties = ['dipole'])
--------------------------------------------------------------------------

    Molecular point group: c1
  Charge       = 1
  Multiplicity = 1
  Basis Set: AUG-CC-PVTZ
    Blend: AUG-CC-PVTZ
  Basis Set: (AUG-CC-PVTZ AUX)
    Blend: AUG-CC-PVTZ-JKFIT

    Orbital Energies [Eh]
    ---------------------

    Doubly Occupied:

       1A    -20.731216     2A    -15.861514     3A    -11.454325
       4A    -11.453595     5A    -11.452787     6A    -11.452490
       7A     -1.543771     8A     -1.506566     9A     -1.201258
      10A     -1.171934    11A     -1.099308    12A     -1.027184
      13A     -0.925514    14A     -0.880965    15A     -0.853822
      16A     -0.845839    17A     -0.791287    18A     -0.759044
      19A     -0.749881    20A     -0.745321    21A     -0.728183
      22A     -0.715334    23A     -0.693956    24A     -0.666698
      25A     -0.621077

  @DF-RHF Final Energy:  -287.64975665878211

   => Energetics <=

    Nuclear Repulsion Energy =            279.8448728777111114
    One-Electron Energy =                -935.1235227490102488
    Two-Electron Energy =                 367.6288932125170845
    Total Energy =                       -287.6497566587821098
  Basis Set: (AUG-CC-PVTZ AUX)
    Blend: AUG-CC-PVTZ-RI
    Molecular point group: c1

    Geometry (in Angstrom), charge = 1, multiplicity = 1:

       Center              X                  Y                   Z               Mass
    ------------   -----------------  -----------------  -----------------  -----------------
         O           -1.752375888895     0.047045584489    -0.862940051342    15.994914619570
         N            0.733988111105     0.004574584489    -0.165229051342    14.003074004430
         C           -0.177931788895    -0.663019515511     0.670366148658    12.000000000000
         C            0.979546111105     1.419302584489     0.257648948658    12.000000000000
         C            2.014518111105    -0.756365415511    -0.307653051342    12.000000000000
         C           -1.625843888895    -0.106320415511     0.549237948658    12.000000000000
         H            0.253647111105     0.040297584489    -1.079643051342     1.007825032230
         H           -0.247156888895    -1.753399415511     0.406366948658     1.007825032230
         H            0.120325111105    -0.647999415511     1.758608948658     1.007825032230
         H            1.388264111105     1.412784584489     1.268378948658     1.007825032230
         H            1.692776111105     1.867469584489    -0.433725051342     1.007825032230
         H            0.040830111105     1.968204584489     0.221811948658     1.007825032230
         H            2.488847111105    -0.820447415511     0.671792948658     1.007825032230
         H            1.791645111105    -1.753324415511    -0.686653051342     1.007825032230
         H            2.661965111105    -0.226080415511    -1.005635051342     1.007825032230
         H           -2.365931888895    -0.799833415511     0.963357948658     1.007825032230
         H           -1.725112888895     0.852087584489     1.071824948658     1.007825032230
         H           -2.659470888895     0.316951584489    -1.091478051342     1.007825032230

  Basis Set: AUG-CC-PVTZ
    Blend: AUG-CC-PVTZ
  Basis Set: (AUG-CC-PVTZ AUX)
    Blend: AUG-CC-PVTZ-JKFIT
	 Reference Energy          =    -287.6497566587821098 [Eh]
	 Singles Energy            =      -0.0000000000000000 [Eh]
	 Same-Spin Energy          =      -0.2857689228361927 [Eh]
	 Opposite-Spin Energy      =      -0.9999114624764170 [Eh]
	 Correlation Energy        =      -1.2856803853126098 [Eh]
	 Total Energy              =    -288.9354370440947264 [Eh]

	 ================> DF-SCS-MP2 Energies <==================
	-----------------------------------------------------------
	 SCS Same-Spin Scale       =       0.3333333333333333 [-]
	 SCS Opposite-Spin Scale   =       1.2000000000000000 [-]
	 SCS Same-Spin Energy      =      -0.0952563076120642 [Eh]
	 SCS Opposite-Spin Energy  =      -1.1998937549717004 [Eh]
	 SCS Correlation Energy    =      -1.2951500625837646 [Eh]
	 SCS Total Energy          =    -288.9449067213658964 [Eh]
	-----------------------------------------------------------

  Dipole Moment: [D]
     X:     1.4756      Y:     0.3744      Z:     0.5963     Total:     1.6349

*** Psi4 exiting successfully. Buy a developer a beer!
