                               Psi4 1.4a3.dev225

  ==> Input File <==

--------------------------------------------------------------------------
#psi4
#
memory 32 gb

molecule  {
1 1
  O       -1.7781010     0.0481890    -0.8899830
  N        0.7082630     0.0057180    -0.1922720
  C       -0.2685380    -0.7093740     0.7027740
  C        0.9538210     1.4204460     0.2306060
  C        1.9887930    -0.7552220    -0.3346960
  C       -1.6515690    -0.1051770     0.5221950
  H        0.2279220     0.0414410    -1.1066860
  H       -0.2728820    -1.7522560     0.3793240
  H        0.0946000    -0.6468560     1.7315660
  H        1.3625390     1.4139280     1.2413360
  H        1.6670510     1.8686130    -0.4607680
  H        0.0151050     1.9693480     0.1947690
  H        2.4631220    -0.8193040     0.6447500
  H        1.7659200    -1.7521810    -0.7136960
  H        2.6362400    -0.2249370    -1.0326780
  H       -2.3916570    -0.7986900     0.9363150
  H       -1.7508380     0.8532310     1.0447820
  H       -2.7783650     0.3458174    -1.1419945
units angstrom
no_reorient  #important for SAPT in psi4, default
symmetry c1  #important for SAPT in psi4, default
}

set PROPERTIES_ORIGIN ["COM"]
properties('MP2/aug-cc-pvtz', properties = ['dipole'])
--------------------------------------------------------------------------

    Molecular point group: c1
  Charge       = 1
  Multiplicity = 1
  Basis Set: AUG-CC-PVTZ
    Blend: AUG-CC-PVTZ
  Basis Set: (AUG-CC-PVTZ AUX)
    Blend: AUG-CC-PVTZ-JKFIT

    Orbital Energies [Eh]
    ---------------------

    Doubly Occupied:

       1A    -20.738827     2A    -15.855492     3A    -11.456051
       4A    -11.452309     5A    -11.448943     6A    -11.448403
       7A     -1.524767     8A     -1.482197     9A     -1.202121
      10A     -1.165341    11A     -1.091408    12A     -1.019346
      13A     -0.915943    14A     -0.869900    15A     -0.843046
      16A     -0.835765    17A     -0.788931    18A     -0.756616
      19A     -0.744200    20A     -0.735867    21A     -0.724226
      22A     -0.715532    23A     -0.709887    24A     -0.667797
      25A     -0.620713

  @DF-RHF Final Energy:  -287.64609964227913

   => Energetics <=

    Nuclear Repulsion Energy =            277.9303732181558075
    One-Electron Energy =                -931.5256918911715047
    Two-Electron Energy =                 365.9492190307366286
    Total Energy =                       -287.6460996422791254
  Basis Set: (AUG-CC-PVTZ AUX)
    Blend: AUG-CC-PVTZ-RI
    Molecular point group: c1

    Geometry (in Angstrom), charge = 1, multiplicity = 1:

       Center              X                  Y                   Z               Mass
    ------------   -----------------  -----------------  -----------------  -----------------
         O           -1.742691651390     0.053062058084    -0.870596150317    15.994914619570
         N            0.743672348610     0.010591058084    -0.172885150317    14.003074004430
         C           -0.233128651390    -0.704500941916     0.722160849683    12.000000000000
         C            0.989230348610     1.425319058084     0.249992849683    12.000000000000
         C            2.024202348610    -0.750348941916    -0.315309150317    12.000000000000
         C           -1.616159651390    -0.100303941916     0.541581849683    12.000000000000
         H            0.263331348610     0.046314058084    -1.087299150317     1.007825032230
         H           -0.237472651390    -1.747382941916     0.398710849683     1.007825032230
         H            0.130009348610    -0.641982941916     1.750952849683     1.007825032230
         H            1.397948348610     1.418801058084     1.260722849683     1.007825032230
         H            1.702460348610     1.873486058084    -0.441381150317     1.007825032230
         H            0.050514348610     1.974221058084     0.214155849683     1.007825032230
         H            2.498531348610    -0.814430941916     0.664136849683     1.007825032230
         H            1.801329348610    -1.747307941916    -0.694309150317     1.007825032230
         H            2.671649348610    -0.220063941916    -1.013291150317     1.007825032230
         H           -2.356247651390    -0.793816941916     0.955701849683     1.007825032230
         H           -1.715428651390     0.858104058084     1.064168849683     1.007825032230
         H           -2.742955651390     0.350690458084    -1.122607650317     1.007825032230

  Basis Set: AUG-CC-PVTZ
    Blend: AUG-CC-PVTZ
  Basis Set: (AUG-CC-PVTZ AUX)
    Blend: AUG-CC-PVTZ-JKFIT
	 Reference Energy          =    -287.6460996422791254 [Eh]
	 Singles Energy            =      -0.0000000000000000 [Eh]
	 Same-Spin Energy          =      -0.2861724681688840 [Eh]
	 Opposite-Spin Energy      =      -1.0025470441445634 [Eh]
	 Correlation Energy        =      -1.2887195123134474 [Eh]
	 Total Energy              =    -288.9348191545925602 [Eh]

	 ================> DF-SCS-MP2 Energies <==================
	-----------------------------------------------------------
	 SCS Same-Spin Scale       =       0.3333333333333333 [-]
	 SCS Opposite-Spin Scale   =       1.2000000000000000 [-]
	 SCS Same-Spin Energy      =      -0.0953908227229613 [Eh]
	 SCS Opposite-Spin Energy  =      -1.2030564529734760 [Eh]
	 SCS Correlation Energy    =      -1.2984472756964374 [Eh]
	 SCS Total Energy          =    -288.9445469179755719 [Eh]
	-----------------------------------------------------------

  Dipole Moment: [D]
     X:     1.2355      Y:     0.3457      Z:     0.5993     Total:     1.4160

*** Psi4 exiting successfully. Buy a developer a beer!
