                               Psi4 1.4a3.dev225

  ==> Input File <==

--------------------------------------------------------------------------
#psi4
#
memory 32 gb

molecule  {
1 1
  O       -1.7781010     0.0481890    -0.8899830
  N        0.7082630     0.0057180    -0.1922720
  C       -0.2685380    -0.7093740     0.7027740
  C        0.9538210     1.4204460     0.2306060
  C        1.9887930    -0.7552220    -0.3346960
  C       -1.6515690    -0.1051770     0.5221950
  H        0.2279220     0.0414410    -1.1066860
  H       -0.2728820    -1.7522560     0.3793240
  H        0.0946000    -0.6468560     1.7315660
  H        1.3625390     1.4139280     1.2413360
  H        1.6670510     1.8686130    -0.4607680
  H        0.0151050     1.9693480     0.1947690
  H        2.5066328    -0.8251823     0.7345957
  H        1.7659200    -1.7521810    -0.7136960
  H        2.6362400    -0.2249370    -1.0326780
  H       -2.3916570    -0.7986900     0.9363150
  H       -1.7508380     0.8532310     1.0447820
  H       -2.6851960     0.3180950    -1.1185210
units angstrom
no_reorient  #important for SAPT in psi4, default
symmetry c1  #important for SAPT in psi4, default
}

set PROPERTIES_ORIGIN ["COM"]
properties('MP2/aug-cc-pvtz', properties = ['dipole'])
--------------------------------------------------------------------------

    Molecular point group: c1
  Charge       = 1
  Multiplicity = 1
  Basis Set: AUG-CC-PVTZ
    Blend: AUG-CC-PVTZ
  Basis Set: (AUG-CC-PVTZ AUX)
    Blend: AUG-CC-PVTZ-JKFIT

    Orbital Energies [Eh]
    ---------------------

    Doubly Occupied:

       1A    -20.733202     2A    -15.857002     3A    -11.459772
       4A    -11.456977     5A    -11.454138     6A    -11.449012
       7A     -1.539702     8A     -1.487082     9A     -1.205988
      10A     -1.162611    11A     -1.088092    12A     -1.024421
      13A     -0.919234    14A     -0.874882    15A     -0.853517
      16A     -0.837229    17A     -0.790127    18A     -0.755022
      19A     -0.739930    20A     -0.734711    21A     -0.724480
      22A     -0.714305    23A     -0.709604    24A     -0.673393
      25A     -0.624368

  @DF-RHF Final Energy:  -287.65255402127116

   => Energetics <=

    Nuclear Repulsion Energy =            278.1061712871830309
    One-Electron Energy =                -931.7798469516072828
    Two-Electron Energy =                 366.0211216431531511
    Total Energy =                       -287.6525540212711576
  Basis Set: (AUG-CC-PVTZ AUX)
    Blend: AUG-CC-PVTZ-RI
    Molecular point group: c1

    Geometry (in Angstrom), charge = 1, multiplicity = 1:

       Center              X                  Y                   Z               Mass
    ------------   -----------------  -----------------  -----------------  -----------------
         O           -1.744220638354     0.053437936833    -0.871863810787    15.994914619570
         N            0.742143361646     0.010966936833    -0.174152810787    14.003074004430
         C           -0.234657638354    -0.704125063167     0.720893189213    12.000000000000
         C            0.987701361646     1.425694936833     0.248725189213    12.000000000000
         C            2.022673361646    -0.749973063167    -0.316576810787    12.000000000000
         C           -1.617688638354    -0.099928063167     0.540314189213    12.000000000000
         H            0.261802361646     0.046689936833    -1.088566810787     1.007825032230
         H           -0.239001638354    -1.747007063167     0.397443189213     1.007825032230
         H            0.128480361646    -0.641607063167     1.749685189213     1.007825032230
         H            1.396419361646     1.419176936833     1.259455189213     1.007825032230
         H            1.700931361646     1.873861936833    -0.442648810787     1.007825032230
         H            0.048985361646     1.974596936833     0.212888189213     1.007825032230
         H            2.540513161646    -0.819933363167     0.752714889213     1.007825032230
         H            1.799800361646    -1.746932063167    -0.695576810787     1.007825032230
         H            2.670120361646    -0.219688063167    -1.014558810787     1.007825032230
         H           -2.357776638354    -0.793441063167     0.954434189213     1.007825032230
         H           -1.716957638354     0.858479936833     1.062901189213     1.007825032230
         H           -2.651315638354     0.323343936833    -1.100401810787     1.007825032230

  Basis Set: AUG-CC-PVTZ
    Blend: AUG-CC-PVTZ
  Basis Set: (AUG-CC-PVTZ AUX)
    Blend: AUG-CC-PVTZ-JKFIT
	 Reference Energy          =    -287.6525540212711576 [Eh]
	 Singles Energy            =      -0.0000000000000000 [Eh]
	 Same-Spin Energy          =      -0.2851316792813438 [Eh]
	 Opposite-Spin Energy      =      -1.0002168584866786 [Eh]
	 Correlation Energy        =      -1.2853485377680225 [Eh]
	 Total Energy              =    -288.9379025590391734 [Eh]

	 ================> DF-SCS-MP2 Energies <==================
	-----------------------------------------------------------
	 SCS Same-Spin Scale       =       0.3333333333333333 [-]
	 SCS Opposite-Spin Scale   =       1.2000000000000000 [-]
	 SCS Same-Spin Energy      =      -0.0950438930937813 [Eh]
	 SCS Opposite-Spin Energy  =      -1.2002602301840144 [Eh]
	 SCS Correlation Energy    =      -1.2953041232777955 [Eh]
	 SCS Total Energy          =    -288.9478581445489453 [Eh]
	-----------------------------------------------------------

  Dipole Moment: [D]
     X:     1.3714      Y:     0.3064      Z:     0.6622     Total:     1.5534

*** Psi4 exiting successfully. Buy a developer a beer!
