                               Psi4 1.4a3.dev225

  ==> Input File <==

--------------------------------------------------------------------------
#psi4
#
memory 32 gb

molecule  {
1 1
  O       -1.7781010     0.0481890    -0.8899830
  N        0.7082630     0.0057180    -0.1922720
  C       -0.2685380    -0.7093740     0.7027740
  C        0.9538210     1.4204460     0.2306060
  C        1.9887930    -0.7552220    -0.3346960
  C       -1.6515690    -0.1051770     0.5221950
  H        0.2279220     0.0414410    -1.1066860
  H       -0.2728820    -1.7522560     0.3793240
  H        0.0946000    -0.6468560     1.7315660
  H        1.3625390     1.4139280     1.2413360
  H        1.6670510     1.8686130    -0.4607680
  H        0.0151050     1.9693480     0.1947690
  H        2.4196112    -0.8134257     0.5549043
  H        1.7659200    -1.7521810    -0.7136960
  H        2.6362400    -0.2249370    -1.0326780
  H       -2.3916570    -0.7986900     0.9363150
  H       -1.7508380     0.8532310     1.0447820
  H       -2.6851960     0.3180950    -1.1185210
units angstrom
no_reorient  #important for SAPT in psi4, default
symmetry c1  #important for SAPT in psi4, default
}

set PROPERTIES_ORIGIN ["COM"]
properties('MP2/aug-cc-pvtz', properties = ['dipole'])
--------------------------------------------------------------------------

    Molecular point group: c1
  Charge       = 1
  Multiplicity = 1
  Basis Set: AUG-CC-PVTZ
    Blend: AUG-CC-PVTZ
  Basis Set: (AUG-CC-PVTZ AUX)
    Blend: AUG-CC-PVTZ-JKFIT

    Orbital Energies [Eh]
    ---------------------

    Doubly Occupied:

       1A    -20.733114     2A    -15.855676     3A    -11.457136
       4A    -11.454239     5A    -11.449219     6A    -11.438556
       7A     -1.539622     8A     -1.487413     9A     -1.207990
      10A     -1.171499    11A     -1.099055    12A     -1.025474
      13A     -0.919060    14A     -0.880606    15A     -0.853785
      16A     -0.837678    17A     -0.796398    18A     -0.766971
      19A     -0.751520    20A     -0.739381    21A     -0.725488
      22A     -0.718378    23A     -0.712001    24A     -0.674501
      25A     -0.624379

  @DF-RHF Final Energy:  -287.65320081775457

   => Energetics <=

    Nuclear Repulsion Energy =            278.9716278750696574
    One-Electron Energy =                -933.4113787957199975
    Two-Electron Energy =                 366.7865501028957738
    Total Energy =                       -287.6532008177545663
  Basis Set: (AUG-CC-PVTZ AUX)
    Blend: AUG-CC-PVTZ-RI
    Molecular point group: c1

    Geometry (in Angstrom), charge = 1, multiplicity = 1:

       Center              X                  Y                   Z               Mass
    ------------   -----------------  -----------------  -----------------  -----------------
         O           -1.743247159523     0.053306420046    -0.869853668776    15.994914619570
         N            0.743116840477     0.010835420046    -0.172142668776    14.003074004430
         C           -0.233684159523    -0.704256579954     0.722903331224    12.000000000000
         C            0.988674840477     1.425563420046     0.250735331224    12.000000000000
         C            2.023646840477    -0.750104579954    -0.314566668776    12.000000000000
         C           -1.616715159523    -0.100059579954     0.542324331224    12.000000000000
         H            0.262775840477     0.046558420046    -1.086556668776     1.007825032230
         H           -0.238028159523    -1.747138579954     0.399453331224     1.007825032230
         H            0.129453840477    -0.641738579954     1.751695331224     1.007825032230
         H            1.397392840477     1.419045420046     1.261465331224     1.007825032230
         H            1.701904840477     1.873730420046    -0.440638668776     1.007825032230
         H            0.049958840477     1.974465420046     0.214898331224     1.007825032230
         H            2.454465040477    -0.808308279954     0.575033631224     1.007825032230
         H            1.800773840477    -1.747063579954    -0.693566668776     1.007825032230
         H            2.671093840477    -0.219819579954    -1.012548668776     1.007825032230
         H           -2.356803159523    -0.793572579954     0.956444331224     1.007825032230
         H           -1.715984159523     0.858348420046     1.064911331224     1.007825032230
         H           -2.650342159523     0.323212420046    -1.098391668776     1.007825032230

  Basis Set: AUG-CC-PVTZ
    Blend: AUG-CC-PVTZ
  Basis Set: (AUG-CC-PVTZ AUX)
    Blend: AUG-CC-PVTZ-JKFIT
	 Reference Energy          =    -287.6532008177545663 [Eh]
	 Singles Energy            =      -0.0000000000000000 [Eh]
	 Same-Spin Energy          =      -0.2849492496602631 [Eh]
	 Opposite-Spin Energy      =      -0.9988775401517114 [Eh]
	 Correlation Energy        =      -1.2838267898119744 [Eh]
	 Total Energy              =    -288.9370276075665629 [Eh]

	 ================> DF-SCS-MP2 Energies <==================
	-----------------------------------------------------------
	 SCS Same-Spin Scale       =       0.3333333333333333 [-]
	 SCS Opposite-Spin Scale   =       1.2000000000000000 [-]
	 SCS Same-Spin Energy      =      -0.0949830832200877 [Eh]
	 SCS Opposite-Spin Energy  =      -1.1986530481820536 [Eh]
	 SCS Correlation Energy    =      -1.2936361314021414 [Eh]
	 SCS Total Energy          =    -288.9468369491567046 [Eh]
	-----------------------------------------------------------

  Dipole Moment: [D]
     X:     1.3628      Y:     0.3118      Z:     0.6599     Total:     1.5460

*** Psi4 exiting successfully. Buy a developer a beer!
