                               Psi4 1.4a3.dev225

  ==> Input File <==

--------------------------------------------------------------------------
#psi4
#
memory 32 gb

molecule  {
1 1
  O       -1.7781010     0.0481890    -0.8899830
  N        0.7082630     0.0057180    -0.1922720
  C       -0.2685380    -0.7093740     0.7027740
  C        0.9538210     1.4204460     0.2306060
  C        1.9887930    -0.7552220    -0.3346960
  C       -1.6515690    -0.1051770     0.5221950
  H        0.2279220     0.0414410    -1.1066860
  H       -0.2728820    -1.7522560     0.3793240
  H        0.0946000    -0.6468560     1.7315660
  H        1.3476281     1.4241622     1.2472526
  H        1.6670510     1.8686130    -0.4607680
  H        0.0151050     1.9693480     0.1947690
  H        2.4631220    -0.8193040     0.6447500
  H        1.7659200    -1.7521810    -0.7136960
  H        2.6362400    -0.2249370    -1.0326780
  H       -2.3916570    -0.7986900     0.9363150
  H       -1.7508380     0.8532310     1.0447820
  H       -2.6851960     0.3180950    -1.1185210
units angstrom
no_reorient  #important for SAPT in psi4, default
symmetry c1  #important for SAPT in psi4, default
}

set PROPERTIES_ORIGIN ["COM"]
properties('MP2/aug-cc-pvtz', properties = ['dipole'])
--------------------------------------------------------------------------

    Molecular point group: c1
  Charge       = 1
  Multiplicity = 1
  Basis Set: AUG-CC-PVTZ
    Blend: AUG-CC-PVTZ
  Basis Set: (AUG-CC-PVTZ AUX)
    Blend: AUG-CC-PVTZ-JKFIT

    Orbital Energies [Eh]
    ---------------------

    Doubly Occupied:

       1A    -20.733129     2A    -15.856401     3A    -11.457081
       4A    -11.454193     5A    -11.449507     6A    -11.449004
       7A     -1.539627     8A     -1.487113     9A     -1.206641
      10A     -1.166069    11A     -1.092957    12A     -1.024966
      13A     -0.919127    14A     -0.877178    15A     -0.853347
      16A     -0.837668    17A     -0.791997    18A     -0.757839
      19A     -0.745805    20A     -0.739440    21A     -0.725348
      22A     -0.716785    23A     -0.711674    24A     -0.674177
      25A     -0.624360

  @DF-RHF Final Energy:  -287.65934894884663

   => Energetics <=

    Nuclear Repulsion Energy =            278.5034520116105909
    One-Electron Energy =                -932.5427401210133667
    Two-Electron Energy =                 366.3799391605562050
    Total Energy =                       -287.6593489488466275
  Basis Set: (AUG-CC-PVTZ AUX)
    Blend: AUG-CC-PVTZ-RI
    Molecular point group: c1

    Geometry (in Angstrom), charge = 1, multiplicity = 1:

       Center              X                  Y                   Z               Mass
    ------------   -----------------  -----------------  -----------------  -----------------
         O           -1.743567096150     0.053257692185    -0.870924926623    15.994914619570
         N            0.742796903850     0.010786692185    -0.173213926623    14.003074004430
         C           -0.234004096150    -0.704305307815     0.721832073377    12.000000000000
         C            0.988354903850     1.425514692185     0.249664073377    12.000000000000
         C            2.023326903850    -0.750153307815    -0.315637926623    12.000000000000
         C           -1.617035096150    -0.100108307815     0.541253073377    12.000000000000
         H            0.262455903850     0.046509692185    -1.087627926623     1.007825032230
         H           -0.238348096150    -1.747187307815     0.398382073377     1.007825032230
         H            0.129133903850    -0.641787307815     1.750624073377     1.007825032230
         H            1.382162003850     1.429230892185     1.266310673377     1.007825032230
         H            1.701584903850     1.873681692185    -0.441709926623     1.007825032230
         H            0.049638903850     1.974416692185     0.213827073377     1.007825032230
         H            2.497655903850    -0.814235307815     0.663808073377     1.007825032230
         H            1.800453903850    -1.747112307815    -0.694637926623     1.007825032230
         H            2.670773903850    -0.219868307815    -1.013619926623     1.007825032230
         H           -2.357123096150    -0.793621307815     0.955373073377     1.007825032230
         H           -1.716304096150     0.858299692185     1.063840073377     1.007825032230
         H           -2.650662096150     0.323163692185    -1.099462926623     1.007825032230

  Basis Set: AUG-CC-PVTZ
    Blend: AUG-CC-PVTZ
  Basis Set: (AUG-CC-PVTZ AUX)
    Blend: AUG-CC-PVTZ-JKFIT
	 Reference Energy          =    -287.6593489488466275 [Eh]
	 Singles Energy            =      -0.0000000000000000 [Eh]
	 Same-Spin Energy          =      -0.2850075379017166 [Eh]
	 Opposite-Spin Energy      =      -0.9993998175309895 [Eh]
	 Correlation Energy        =      -1.2844073554327062 [Eh]
	 Total Energy              =    -288.9437563042793613 [Eh]

	 ================> DF-SCS-MP2 Energies <==================
	-----------------------------------------------------------
	 SCS Same-Spin Scale       =       0.3333333333333333 [-]
	 SCS Opposite-Spin Scale   =       1.2000000000000000 [-]
	 SCS Same-Spin Energy      =      -0.0950025126339055 [Eh]
	 SCS Opposite-Spin Energy  =      -1.1992797810371874 [Eh]
	 SCS Correlation Energy    =      -1.2942822936710929 [Eh]
	 SCS Total Energy          =    -288.9536312425177016 [Eh]
	-----------------------------------------------------------

  Dipole Moment: [D]
     X:     1.3635      Y:     0.3104      Z:     0.6671     Total:     1.5493

*** Psi4 exiting successfully. Buy a developer a beer!
