                               Psi4 1.4a3.dev225

  ==> Input File <==

--------------------------------------------------------------------------
#psi4
#
memory 32 gb

molecule  {
1 1
  O       -1.7781010     0.0481890    -0.8899830
  N        0.7082630     0.0057180    -0.1922720
  C       -0.2685380    -0.7093740     0.7027740
  C        0.9538210     1.4204460     0.2306060
  C        1.9887930    -0.7552220    -0.3346960
  C       -1.6515690    -0.1051770     0.5221950
  H        0.2279220     0.0414410    -1.1066860
  H       -0.2862642    -1.7410008     0.3454596
  H        0.0946000    -0.6468560     1.7315660
  H        1.3625390     1.4139280     1.2413360
  H        1.6670510     1.8686130    -0.4607680
  H        0.0151050     1.9693480     0.1947690
  H        2.4631220    -0.8193040     0.6447500
  H        1.7659200    -1.7521810    -0.7136960
  H        2.6362400    -0.2249370    -1.0326780
  H       -2.3916570    -0.7986900     0.9363150
  H       -1.7508380     0.8532310     1.0447820
  H       -2.6851960     0.3180950    -1.1185210
units angstrom
no_reorient  #important for SAPT in psi4, default
symmetry c1  #important for SAPT in psi4, default
}

set PROPERTIES_ORIGIN ["COM"]
properties('MP2/aug-cc-pvtz', properties = ['dipole'])
--------------------------------------------------------------------------

    Molecular point group: c1
  Charge       = 1
  Multiplicity = 1
  Basis Set: AUG-CC-PVTZ
    Blend: AUG-CC-PVTZ
  Basis Set: (AUG-CC-PVTZ AUX)
    Blend: AUG-CC-PVTZ-JKFIT

    Orbital Energies [Eh]
    ---------------------

    Doubly Occupied:

       1A    -20.733279     2A    -15.855980     3A    -11.457252
       4A    -11.454046     5A    -11.449477     6A    -11.448976
       7A     -1.539786     8A     -1.487118     9A     -1.206946
      10A     -1.165990    11A     -1.092991    12A     -1.024276
      13A     -0.919670    14A     -0.876523    15A     -0.853930
      16A     -0.837455    17A     -0.792213    18A     -0.757348
      19A     -0.745919    20A     -0.740364    21A     -0.724980
      22A     -0.716357    23A     -0.712780    24A     -0.673829
      25A     -0.624445

  @DF-RHF Final Energy:  -287.65917763450807

   => Energetics <=

    Nuclear Repulsion Energy =            278.5568113479886279
    One-Electron Energy =                -932.6481186668697774
    Two-Electron Energy =                 366.4321296843730806
    Total Energy =                       -287.6591776345080689
  Basis Set: (AUG-CC-PVTZ AUX)
    Blend: AUG-CC-PVTZ-RI
    Molecular point group: c1

    Geometry (in Angstrom), charge = 1, multiplicity = 1:

       Center              X                  Y                   Z               Mass
    ------------   -----------------  -----------------  -----------------  -----------------
         O           -1.743584197158     0.053246270631    -0.870479911117    15.994914619570
         N            0.742779802842     0.010775270631    -0.172768911117    14.003074004430
         C           -0.234021197158    -0.704316729369     0.722277088883    12.000000000000
         C            0.988337802842     1.425503270631     0.250109088883    12.000000000000
         C            2.023309802842    -0.750164729369    -0.315192911117    12.000000000000
         C           -1.617052197158    -0.100119729369     0.541698088883    12.000000000000
         H            0.262438802842     0.046498270631    -1.087182911117     1.007825032230
         H           -0.251747397158    -1.735943529369     0.364962688883     1.007825032230
         H            0.129116802842    -0.641798729369     1.751069088883     1.007825032230
         H            1.397055802842     1.418985270631     1.260839088883     1.007825032230
         H            1.701567802842     1.873670270631    -0.441264911117     1.007825032230
         H            0.049621802842     1.974405270631     0.214272088883     1.007825032230
         H            2.497638802842    -0.814246729369     0.664253088883     1.007825032230
         H            1.800436802842    -1.747123729369    -0.694192911117     1.007825032230
         H            2.670756802842    -0.219879729369    -1.013174911117     1.007825032230
         H           -2.357140197158    -0.793632729369     0.955818088883     1.007825032230
         H           -1.716321197158     0.858288270631     1.064285088883     1.007825032230
         H           -2.650679197158     0.323152270631    -1.099017911117     1.007825032230

  Basis Set: AUG-CC-PVTZ
    Blend: AUG-CC-PVTZ
  Basis Set: (AUG-CC-PVTZ AUX)
    Blend: AUG-CC-PVTZ-JKFIT
	 Reference Energy          =    -287.6591776345080689 [Eh]
	 Singles Energy            =      -0.0000000000000000 [Eh]
	 Same-Spin Energy          =      -0.2850490914704329 [Eh]
	 Opposite-Spin Energy      =      -0.9994715784767344 [Eh]
	 Correlation Energy        =      -1.2845206699471674 [Eh]
	 Total Energy              =    -288.9436983044552107 [Eh]

	 ================> DF-SCS-MP2 Energies <==================
	-----------------------------------------------------------
	 SCS Same-Spin Scale       =       0.3333333333333333 [-]
	 SCS Opposite-Spin Scale   =       1.2000000000000000 [-]
	 SCS Same-Spin Energy      =      -0.0950163638234776 [Eh]
	 SCS Opposite-Spin Energy  =      -1.1993658941720813 [Eh]
	 SCS Correlation Energy    =      -1.2943822579955588 [Eh]
	 SCS Total Energy          =    -288.9535598925036197 [Eh]
	-----------------------------------------------------------

  Dipole Moment: [D]
     X:     1.3605      Y:     0.3151      Z:     0.6542     Total:     1.5421

*** Psi4 exiting successfully. Buy a developer a beer!
