                               Psi4 1.4a3.dev225

  ==> Input File <==

--------------------------------------------------------------------------
#psi4
#
memory 32 gb

molecule  {
1 1
  O       -1.7781010     0.0481890    -0.8899830
  N        0.7082630     0.0057180    -0.1922720
  C       -0.2685380    -0.7093740     0.7027740
  C        0.9538210     1.4204460     0.2306060
  C        1.9887930    -0.7552220    -0.3346960
  C       -1.6338239    -0.1266854     0.7202417
  H        0.2279220     0.0414410    -1.1066860
  H       -0.2728820    -1.7522560     0.3793240
  H        0.0946000    -0.6468560     1.7315660
  H        1.3625390     1.4139280     1.2413360
  H        1.6670510     1.8686130    -0.4607680
  H        0.0151050     1.9693480     0.1947690
  H        2.4631220    -0.8193040     0.6447500
  H        1.7659200    -1.7521810    -0.7136960
  H        2.6362400    -0.2249370    -1.0326780
  H       -2.3916570    -0.7986900     0.9363150
  H       -1.7508380     0.8532310     1.0447820
  H       -2.6851960     0.3180950    -1.1185210
units angstrom
no_reorient  #important for SAPT in psi4, default
symmetry c1  #important for SAPT in psi4, default
}

set PROPERTIES_ORIGIN ["COM"]
properties('MP2/aug-cc-pvtz', properties = ['dipole'])
--------------------------------------------------------------------------

    Molecular point group: c1
  Charge       = 1
  Multiplicity = 1
  Basis Set: AUG-CC-PVTZ
    Blend: AUG-CC-PVTZ
  Basis Set: (AUG-CC-PVTZ AUX)
    Blend: AUG-CC-PVTZ-JKFIT

    Orbital Energies [Eh]
    ---------------------

    Doubly Occupied:

       1A    -20.711342     2A    -15.859748     3A    -11.463562
       4A    -11.460338     5A    -11.451787     6A    -11.450889
       7A     -1.504034     8A     -1.460730     9A     -1.222240
      10A     -1.167974    11A     -1.101680    12A     -1.031581
      13A     -0.919505    14A     -0.875429    15A     -0.846135
      16A     -0.828149    17A     -0.798266    18A     -0.758604
      19A     -0.739619    20A     -0.733849    21A     -0.727169
      22A     -0.715451    23A     -0.706742    24A     -0.656471
      25A     -0.629981

  @DF-RHF Final Energy:  -287.62786228389575

   => Energetics <=

    Nuclear Repulsion Energy =            276.5626522140476027
    One-Electron Energy =                -928.7384763366894731
    Two-Electron Energy =                 364.5479618387461187
    Total Energy =                       -287.6278622838957517
  Basis Set: (AUG-CC-PVTZ AUX)
    Blend: AUG-CC-PVTZ-RI
    Molecular point group: c1

    Geometry (in Angstrom), charge = 1, multiplicity = 1:

       Center              X                  Y                   Z               Mass
    ------------   -----------------  -----------------  -----------------  -----------------
         O           -1.746097499062     0.056237040114    -0.897238033479    15.994914619570
         N            0.740266500938     0.013766040114    -0.199527033479    14.003074004430
         C           -0.236534499062    -0.701325959886     0.695518966521    12.000000000000
         C            0.985824500938     1.428494040114     0.223350966521    12.000000000000
         C            2.020796500938    -0.747173959886    -0.341951033479    12.000000000000
         C           -1.601820399062    -0.118637359886     0.712986666521    12.000000000000
         H            0.259925500938     0.049489040114    -1.113941033479     1.007825032230
         H           -0.240878499062    -1.744207959886     0.372068966521     1.007825032230
         H            0.126603500938    -0.638807959886     1.724310966521     1.007825032230
         H            1.394542500938     1.421976040114     1.234080966521     1.007825032230
         H            1.699054500938     1.876661040114    -0.468023033479     1.007825032230
         H            0.047108500938     1.977396040114     0.187513966521     1.007825032230
         H            2.495125500938    -0.811255959886     0.637494966521     1.007825032230
         H            1.797923500938    -1.744132959886    -0.720951033479     1.007825032230
         H            2.668243500938    -0.216888959886    -1.039933033479     1.007825032230
         H           -2.359653499062    -0.790641959886     0.929059966521     1.007825032230
         H           -1.718834499062     0.861279040114     1.037526966521     1.007825032230
         H           -2.653192499062     0.326143040114    -1.125776033479     1.007825032230

  Basis Set: AUG-CC-PVTZ
    Blend: AUG-CC-PVTZ
  Basis Set: (AUG-CC-PVTZ AUX)
    Blend: AUG-CC-PVTZ-JKFIT
	 Reference Energy          =    -287.6278622838957517 [Eh]
	 Singles Energy            =      -0.0000000000000000 [Eh]
	 Same-Spin Energy          =      -0.2860996249482500 [Eh]
	 Opposite-Spin Energy      =      -1.0040094996056963 [Eh]
	 Correlation Energy        =      -1.2901091245539462 [Eh]
	 Total Energy              =    -288.9179714084497164 [Eh]

	 ================> DF-SCS-MP2 Energies <==================
	-----------------------------------------------------------
	 SCS Same-Spin Scale       =       0.3333333333333333 [-]
	 SCS Opposite-Spin Scale   =       1.2000000000000000 [-]
	 SCS Same-Spin Energy      =      -0.0953665416494167 [Eh]
	 SCS Opposite-Spin Energy  =      -1.2048113995268355 [Eh]
	 SCS Correlation Energy    =      -1.3001779411762522 [Eh]
	 SCS Total Energy          =    -288.9280402250719817 [Eh]
	-----------------------------------------------------------

  Dipole Moment: [D]
     X:     1.5507      Y:     0.2661      Z:     1.0648     Total:     1.8998

*** Psi4 exiting successfully. Buy a developer a beer!
