                               Psi4 1.4a3.dev225

  ==> Input File <==

--------------------------------------------------------------------------
#psi4
#
memory 32 gb

molecule  {
1 1
  O       -1.7781010     0.0481890    -0.8899830
  N        0.7082630     0.0057180    -0.1922720
  C       -0.2685380    -0.7093740     0.7027740
  C        0.9538210     1.4204460     0.2306060
  C        1.9887930    -0.7552220    -0.3346960
  C       -1.6509514    -0.0821272     0.6257544
  H        0.2279220     0.0414410    -1.1066860
  H       -0.2728820    -1.7522560     0.3793240
  H        0.0946000    -0.6468560     1.7315660
  H        1.3625390     1.4139280     1.2413360
  H        1.6670510     1.8686130    -0.4607680
  H        0.0151050     1.9693480     0.1947690
  H        2.4631220    -0.8193040     0.6447500
  H        1.7659200    -1.7521810    -0.7136960
  H        2.6362400    -0.2249370    -1.0326780
  H       -2.3916570    -0.7986900     0.9363150
  H       -1.7508380     0.8532310     1.0447820
  H       -2.6851960     0.3180950    -1.1185210
units angstrom
no_reorient  #important for SAPT in psi4, default
symmetry c1  #important for SAPT in psi4, default
}

set PROPERTIES_ORIGIN ["COM"]
properties('MP2/aug-cc-pvtz', properties = ['dipole'])
--------------------------------------------------------------------------

    Molecular point group: c1
  Charge       = 1
  Multiplicity = 1
  Basis Set: AUG-CC-PVTZ
    Blend: AUG-CC-PVTZ
  Basis Set: (AUG-CC-PVTZ AUX)
    Blend: AUG-CC-PVTZ-JKFIT

    Orbital Energies [Eh]
    ---------------------

    Doubly Occupied:

       1A    -20.723362     2A    -15.857266     3A    -11.460440
       4A    -11.455138     5A    -11.450298     6A    -11.450021
       7A     -1.513105     8A     -1.478753     9A     -1.210484
      10A     -1.166854    11A     -1.097584    12A     -1.029468
      13A     -0.919065    14A     -0.872056    15A     -0.842566
      16A     -0.839420    17A     -0.794438    18A     -0.757615
      19A     -0.739883    20A     -0.735406    21A     -0.726156
      22A     -0.714915    23A     -0.698692    24A     -0.679173
      25A     -0.634219

  @DF-RHF Final Energy:  -287.64772757218503

   => Energetics <=

    Nuclear Repulsion Energy =            277.3437573111280017
    One-Electron Energy =                -930.2902131140497204
    Two-Electron Energy =                 365.2987282307366854
    Total Energy =                       -287.6477275721850333
  Basis Set: (AUG-CC-PVTZ AUX)
    Blend: AUG-CC-PVTZ-RI
    Molecular point group: c1

    Geometry (in Angstrom), charge = 1, multiplicity = 1:

       Center              X                  Y                   Z               Mass
    ------------   -----------------  -----------------  -----------------  -----------------
         O           -1.743816161616     0.050302006385    -0.884652576426    15.994914619570
         N            0.742547838384     0.007831006385    -0.186941576426    14.003074004430
         C           -0.234253161616    -0.707260993615     0.708104423574    12.000000000000
         C            0.988105838384     1.422559006385     0.235936423574    12.000000000000
         C            2.023077838384    -0.753108993615    -0.329365576426    12.000000000000
         C           -1.616666561616    -0.080014193615     0.631084823574    12.000000000000
         H            0.262206838384     0.043554006385    -1.101355576426     1.007825032230
         H           -0.238597161616    -1.750142993615     0.384654423574     1.007825032230
         H            0.128884838384    -0.644742993615     1.736896423574     1.007825032230
         H            1.396823838384     1.416041006385     1.246666423574     1.007825032230
         H            1.701335838384     1.870726006385    -0.455437576426     1.007825032230
         H            0.049389838384     1.971461006385     0.200099423574     1.007825032230
         H            2.497406838384    -0.817190993615     0.650080423574     1.007825032230
         H            1.800204838384    -1.750067993615    -0.708365576426     1.007825032230
         H            2.670524838384    -0.222823993615    -1.027347576426     1.007825032230
         H           -2.357372161616    -0.796576993615     0.941645423574     1.007825032230
         H           -1.716553161616     0.855344006385     1.050112423574     1.007825032230
         H           -2.650911161616     0.320208006385    -1.113190576426     1.007825032230

  Basis Set: AUG-CC-PVTZ
    Blend: AUG-CC-PVTZ
  Basis Set: (AUG-CC-PVTZ AUX)
    Blend: AUG-CC-PVTZ-JKFIT
	 Reference Energy          =    -287.6477275721850333 [Eh]
	 Singles Energy            =      -0.0000000000000000 [Eh]
	 Same-Spin Energy          =      -0.2852830908247130 [Eh]
	 Opposite-Spin Energy      =      -1.0014188849052363 [Eh]
	 Correlation Energy        =      -1.2867019757299494 [Eh]
	 Total Energy              =    -288.9344295479149878 [Eh]

	 ================> DF-SCS-MP2 Energies <==================
	-----------------------------------------------------------
	 SCS Same-Spin Scale       =       0.3333333333333333 [-]
	 SCS Opposite-Spin Scale   =       1.2000000000000000 [-]
	 SCS Same-Spin Energy      =      -0.0950943636082377 [Eh]
	 SCS Opposite-Spin Energy  =      -1.2017026618862836 [Eh]
	 SCS Correlation Energy    =      -1.2967970254945214 [Eh]
	 SCS Total Energy          =    -288.9445245976795604 [Eh]
	-----------------------------------------------------------

  Dipole Moment: [D]
     X:     1.4512      Y:     0.2992      Z:     0.8840     Total:     1.7254

*** Psi4 exiting successfully. Buy a developer a beer!
