                               Psi4 1.4a3.dev225

  ==> Input File <==

--------------------------------------------------------------------------
#psi4
#
memory 32 gb

molecule  {
1 1
  O       -1.7781010     0.0481890    -0.8899830
  N        0.7082630     0.0057180    -0.1922720
  C       -0.2685380    -0.7093740     0.7027740
  C        0.9538210     1.4204460     0.2306060
  C        1.9887930    -0.7552220    -0.3346960
  C       -1.6515690    -0.1051770     0.5221950
  H        0.2279220     0.0414410    -1.1066860
  H       -0.2728820    -1.7522560     0.3793240
  H        0.0946000    -0.6468560     1.7315660
  H        1.3625390     1.4139280     1.2413360
  H        1.6016019     1.8274872    -0.3973245
  H        0.0151050     1.9693480     0.1947690
  H        2.4631220    -0.8193040     0.6447500
  H        1.7659200    -1.7521810    -0.7136960
  H        2.6362400    -0.2249370    -1.0326780
  H       -2.3916570    -0.7986900     0.9363150
  H       -1.7508380     0.8532310     1.0447820
  H       -2.6851960     0.3180950    -1.1185210
units angstrom
no_reorient  #important for SAPT in psi4, default
symmetry c1  #important for SAPT in psi4, default
}

set PROPERTIES_ORIGIN ["COM"]
properties('MP2/aug-cc-pvtz', properties = ['dipole'])
--------------------------------------------------------------------------

    Molecular point group: c1
  Charge       = 1
  Multiplicity = 1
  Basis Set: AUG-CC-PVTZ
    Blend: AUG-CC-PVTZ
  Basis Set: (AUG-CC-PVTZ AUX)
    Blend: AUG-CC-PVTZ-JKFIT

    Orbital Energies [Eh]
    ---------------------

    Doubly Occupied:

       1A    -20.733026     2A    -15.855862     3A    -11.456755
       4A    -11.453976     5A    -11.449794     6A    -11.438296
       7A     -1.539536     8A     -1.487461     9A     -1.207930
      10A     -1.172674    11A     -1.096787    12A     -1.024955
      13A     -0.922420    14A     -0.880268    15A     -0.854584
      16A     -0.837539    17A     -0.795007    18A     -0.762767
      19A     -0.747795    20A     -0.740372    21A     -0.732225
      22A     -0.717615    23A     -0.712058    24A     -0.674181
      25A     -0.624224

  @DF-RHF Final Energy:  -287.65325048348450

   => Energetics <=

    Nuclear Repulsion Energy =            278.9973833859129968
    One-Electron Energy =                -933.4650566549083806
    Two-Electron Energy =                 366.8144227855109420
    Total Energy =                       -287.6532504834844985
  Basis Set: (AUG-CC-PVTZ AUX)
    Blend: AUG-CC-PVTZ-RI
    Molecular point group: c1

    Geometry (in Angstrom), charge = 1, multiplicity = 1:

       Center              X                  Y                   Z               Mass
    ------------   -----------------  -----------------  -----------------  -----------------
         O           -1.743001743779     0.053832237732    -0.871568459026    15.994914619570
         N            0.743362256221     0.011361237732    -0.173857459026    14.003074004430
         C           -0.233438743779    -0.703730762268     0.721188540974    12.000000000000
         C            0.988920256221     1.426089237732     0.249020540974    12.000000000000
         C            2.023892256221    -0.749578762268    -0.316281459026    12.000000000000
         C           -1.616469743779    -0.099533762268     0.540609540974    12.000000000000
         H            0.263021256221     0.047084237732    -1.088271459026     1.007825032230
         H           -0.237782743779    -1.746612762268     0.397738540974     1.007825032230
         H            0.129699256221    -0.641212762268     1.749980540974     1.007825032230
         H            1.397638256221     1.419571237732     1.259750540974     1.007825032230
         H            1.636701156221     1.833130437732    -0.378909959026     1.007825032230
         H            0.050204256221     1.974991237732     0.213183540974     1.007825032230
         H            2.498221256221    -0.813660762268     0.663164540974     1.007825032230
         H            1.801019256221    -1.746537762268    -0.695281459026     1.007825032230
         H            2.671339256221    -0.219293762268    -1.014263459026     1.007825032230
         H           -2.356557743779    -0.793046762268     0.954729540974     1.007825032230
         H           -1.715738743779     0.858874237732     1.063196540974     1.007825032230
         H           -2.650096743779     0.323738237732    -1.100106459026     1.007825032230

  Basis Set: AUG-CC-PVTZ
    Blend: AUG-CC-PVTZ
  Basis Set: (AUG-CC-PVTZ AUX)
    Blend: AUG-CC-PVTZ-JKFIT
	 Reference Energy          =    -287.6532504834844985 [Eh]
	 Singles Energy            =      -0.0000000000000000 [Eh]
	 Same-Spin Energy          =      -0.2849397675849630 [Eh]
	 Opposite-Spin Energy      =      -0.9988342012673135 [Eh]
	 Correlation Energy        =      -1.2837739688522765 [Eh]
	 Total Energy              =    -288.9370244523368001 [Eh]

	 ================> DF-SCS-MP2 Energies <==================
	-----------------------------------------------------------
	 SCS Same-Spin Scale       =       0.3333333333333333 [-]
	 SCS Opposite-Spin Scale   =       1.2000000000000000 [-]
	 SCS Same-Spin Energy      =      -0.0949799225283210 [Eh]
	 SCS Opposite-Spin Energy  =      -1.1986010415207762 [Eh]
	 SCS Correlation Energy    =      -1.2935809640490972 [Eh]
	 SCS Total Energy          =    -288.9468314475336115 [Eh]
	-----------------------------------------------------------

  Dipole Moment: [D]
     X:     1.3688      Y:     0.3042      Z:     0.6657     Total:     1.5522

*** Psi4 exiting successfully. Buy a developer a beer!
