                               Psi4 1.4a3.dev225

  ==> Input File <==

--------------------------------------------------------------------------
#psi4
#
memory 32 gb

molecule  {
1 1
  O       -1.7781010     0.0481890    -0.8899830
  N        0.7082630     0.0057180    -0.1922720
  C       -0.2685380    -0.7093740     0.7027740
  C        0.9538210     1.4204460     0.2306060
  C        1.9887930    -0.7552220    -0.3346960
  C       -1.6515690    -0.1051770     0.5221950
  H        0.2279220     0.0414410    -1.1066860
  H       -0.2728820    -1.7522560     0.3793240
  H        0.0946000    -0.6468560     1.7315660
  H        1.3465832     1.4056328     1.2475556
  H        1.6670510     1.8686130    -0.4607680
  H        0.0151050     1.9693480     0.1947690
  H        2.4631220    -0.8193040     0.6447500
  H        1.7659200    -1.7521810    -0.7136960
  H        2.6362400    -0.2249370    -1.0326780
  H       -2.3916570    -0.7986900     0.9363150
  H       -1.7508380     0.8532310     1.0447820
  H       -2.6851960     0.3180950    -1.1185210
units angstrom
no_reorient  #important for SAPT in psi4, default
symmetry c1  #important for SAPT in psi4, default
}

set PROPERTIES_ORIGIN ["COM"]
properties('MP2/aug-cc-pvtz', properties = ['dipole'])
--------------------------------------------------------------------------

    Molecular point group: c1
  Charge       = 1
  Multiplicity = 1
  Basis Set: AUG-CC-PVTZ
    Blend: AUG-CC-PVTZ
  Basis Set: (AUG-CC-PVTZ AUX)
    Blend: AUG-CC-PVTZ-JKFIT

    Orbital Energies [Eh]
    ---------------------

    Doubly Occupied:

       1A    -20.733131     2A    -15.856089     3A    -11.457080
       4A    -11.454202     5A    -11.449499     6A    -11.449198
       7A     -1.539626     8A     -1.487106     9A     -1.206647
      10A     -1.166128    11A     -1.092904    12A     -1.024991
      13A     -0.919089    14A     -0.877237    15A     -0.853410
      16A     -0.837175    17A     -0.791958    18A     -0.758210
      19A     -0.745712    20A     -0.739397    21A     -0.725396
      22A     -0.717254    23A     -0.711723    24A     -0.674142
      25A     -0.624369

  @DF-RHF Final Energy:  -287.65932332149646

   => Energetics <=

    Nuclear Repulsion Energy =            278.5342023769549655
    One-Electron Energy =                -932.6037063509664904
    Two-Electron Energy =                 366.4101806525150096
    Total Energy =                       -287.6593233214964584
  Basis Set: (AUG-CC-PVTZ AUX)
    Blend: AUG-CC-PVTZ-RI
    Molecular point group: c1

    Geometry (in Angstrom), charge = 1, multiplicity = 1:

       Center              X                  Y                   Z               Mass
    ------------   -----------------  -----------------  -----------------  -----------------
         O           -1.743555407236     0.053464973810    -0.870928316173    15.994914619570
         N            0.742808592764     0.010993973810    -0.173217316173    14.003074004430
         C           -0.233992407236    -0.704098026190     0.721828683827    12.000000000000
         C            0.988366592764     1.425721973810     0.249660683827    12.000000000000
         C            2.023338592764    -0.749946026190    -0.315641316173    12.000000000000
         C           -1.617023407236    -0.099901026190     0.541249683827    12.000000000000
         H            0.262467592764     0.046716973810    -1.087631316173     1.007825032230
         H           -0.238336407236    -1.746980026190     0.398378683827     1.007825032230
         H            0.129145592764    -0.641580026190     1.750620683827     1.007825032230
         H            1.381128792764     1.410908773810     1.266610283827     1.007825032230
         H            1.701596592764     1.873888973810    -0.441713316173     1.007825032230
         H            0.049650592764     1.974623973810     0.213823683827     1.007825032230
         H            2.497667592764    -0.814028026190     0.663804683827     1.007825032230
         H            1.800465592764    -1.746905026190    -0.694641316173     1.007825032230
         H            2.670785592764    -0.219661026190    -1.013623316173     1.007825032230
         H           -2.357111407236    -0.793414026190     0.955369683827     1.007825032230
         H           -1.716292407236     0.858506973810     1.063836683827     1.007825032230
         H           -2.650650407236     0.323370973810    -1.099466316173     1.007825032230

  Basis Set: AUG-CC-PVTZ
    Blend: AUG-CC-PVTZ
  Basis Set: (AUG-CC-PVTZ AUX)
    Blend: AUG-CC-PVTZ-JKFIT
	 Reference Energy          =    -287.6593233214964584 [Eh]
	 Singles Energy            =      -0.0000000000000000 [Eh]
	 Same-Spin Energy          =      -0.2850252698322240 [Eh]
	 Opposite-Spin Energy      =      -0.9994313701246995 [Eh]
	 Correlation Energy        =      -1.2844566399569235 [Eh]
	 Total Energy              =    -288.9437799614534015 [Eh]

	 ================> DF-SCS-MP2 Energies <==================
	-----------------------------------------------------------
	 SCS Same-Spin Scale       =       0.3333333333333333 [-]
	 SCS Opposite-Spin Scale   =       1.2000000000000000 [-]
	 SCS Same-Spin Energy      =      -0.0950084232774080 [Eh]
	 SCS Opposite-Spin Energy  =      -1.1993176441496394 [Eh]
	 SCS Correlation Energy    =      -1.2943260674270474 [Eh]
	 SCS Total Energy          =    -288.9536493889235089 [Eh]
	-----------------------------------------------------------

  Dipole Moment: [D]
     X:     1.3614      Y:     0.3075      Z:     0.6615     Total:     1.5445

*** Psi4 exiting successfully. Buy a developer a beer!
