                               Psi4 1.4a3.dev225

  ==> Input File <==

--------------------------------------------------------------------------
#psi4
#
memory 32 gb

molecule  {
1 1
  O       -1.7781010     0.0481890    -0.8899830
  N        0.7082630     0.0057180    -0.1922720
  C       -0.2685380    -0.7093740     0.7027740
  C        0.9538210     1.4204460     0.2306060
  C        1.9887930    -0.7552220    -0.3346960
  C       -1.6515690    -0.1051770     0.5221950
  H        0.2279220     0.0414410    -1.1066860
  H       -0.2728820    -1.7522560     0.3793240
  H        0.0946000    -0.6468560     1.7315660
  H        1.3625390     1.4139280     1.2413360
  H        1.6670510     1.8686130    -0.4607680
  H        0.0151050     1.9693480     0.1947690
  H        2.4718242    -0.8204797     0.6627191
  H        1.7659200    -1.7521810    -0.7136960
  H        2.6362400    -0.2249370    -1.0326780
  H       -2.3916570    -0.7986900     0.9363150
  H       -1.7508380     0.8532310     1.0447820
  H       -2.6851960     0.3180950    -1.1185210
units angstrom
no_reorient  #important for SAPT in psi4, default
symmetry c1  #important for SAPT in psi4, default
}

set PROPERTIES_ORIGIN ["COM"]
properties('MP2/aug-cc-pvtz', properties = ['dipole'])
--------------------------------------------------------------------------

    Molecular point group: c1
  Charge       = 1
  Multiplicity = 1
  Basis Set: AUG-CC-PVTZ
    Blend: AUG-CC-PVTZ
  Basis Set: (AUG-CC-PVTZ AUX)
    Blend: AUG-CC-PVTZ-JKFIT

    Orbital Energies [Eh]
    ---------------------

    Doubly Occupied:

       1A    -20.733145     2A    -15.856382     3A    -11.457025
       4A    -11.454163     5A    -11.451655     6A    -11.449080
       7A     -1.539639     8A     -1.487083     9A     -1.206480
      10A     -1.165216    11A     -1.091919    12A     -1.024819
      13A     -0.919120    14A     -0.876602    15A     -0.853539
      16A     -0.837245    17A     -0.791502    18A     -0.756746
      19A     -0.743880    20A     -0.739579    21A     -0.725079
      22A     -0.716751    23A     -0.711554    24A     -0.674004
      25A     -0.624358

  @DF-RHF Final Energy:  -287.65882342436038

   => Energetics <=

    Nuclear Repulsion Energy =            278.4278524752315889
    One-Electron Energy =                -932.4002235192514263
    Two-Electron Energy =                 366.3135476196594595
    Total Energy =                       -287.6588234243603779
  Basis Set: (AUG-CC-PVTZ AUX)
    Blend: AUG-CC-PVTZ-RI
    Molecular point group: c1

    Geometry (in Angstrom), charge = 1, multiplicity = 1:

       Center              X                  Y                   Z               Mass
    ------------   -----------------  -----------------  -----------------  -----------------
         O           -1.743831247269     0.053385330565    -0.871059753535    15.994914619570
         N            0.742532752731     0.010914330565    -0.173348753535    14.003074004430
         C           -0.234268247269    -0.704177669435     0.721697246465    12.000000000000
         C            0.988090752731     1.425642330565     0.249529246465    12.000000000000
         C            2.023062752731    -0.750025669435    -0.315772753535    12.000000000000
         C           -1.617299247269    -0.099980669435     0.541118246465    12.000000000000
         H            0.262191752731     0.046637330565    -1.087762753535     1.007825032230
         H           -0.238612247269    -1.747059669435     0.398247246465     1.007825032230
         H            0.128869752731    -0.641659669435     1.750489246465     1.007825032230
         H            1.396808752731     1.419124330565     1.260259246465     1.007825032230
         H            1.701320752731     1.873809330565    -0.441844753535     1.007825032230
         H            0.049374752731     1.974544330565     0.213692246465     1.007825032230
         H            2.506093952731    -0.815283369435     0.681642346465     1.007825032230
         H            1.800189752731    -1.746984669435    -0.694772753535     1.007825032230
         H            2.670509752731    -0.219740669435    -1.013754753535     1.007825032230
         H           -2.357387247269    -0.793493669435     0.955238246465     1.007825032230
         H           -1.716568247269     0.858427330565     1.063705246465     1.007825032230
         H           -2.650926247269     0.323291330565    -1.099597753535     1.007825032230

  Basis Set: AUG-CC-PVTZ
    Blend: AUG-CC-PVTZ
  Basis Set: (AUG-CC-PVTZ AUX)
    Blend: AUG-CC-PVTZ-JKFIT
	 Reference Energy          =    -287.6588234243603779 [Eh]
	 Singles Energy            =      -0.0000000000000000 [Eh]
	 Same-Spin Energy          =      -0.2850354614531823 [Eh]
	 Opposite-Spin Energy      =      -0.9995536743583914 [Eh]
	 Correlation Energy        =      -1.2845891358115735 [Eh]
	 Total Energy              =    -288.9434125601719643 [Eh]

	 ================> DF-SCS-MP2 Energies <==================
	-----------------------------------------------------------
	 SCS Same-Spin Scale       =       0.3333333333333333 [-]
	 SCS Opposite-Spin Scale   =       1.2000000000000000 [-]
	 SCS Same-Spin Energy      =      -0.0950118204843941 [Eh]
	 SCS Opposite-Spin Energy  =      -1.1994644092300697 [Eh]
	 SCS Correlation Energy    =      -1.2944762297144639 [Eh]
	 SCS Total Energy          =    -288.9532996540748400 [Eh]
	-----------------------------------------------------------

  Dipole Moment: [D]
     X:     1.3696      Y:     0.3080      Z:     0.6625     Total:     1.5523

*** Psi4 exiting successfully. Buy a developer a beer!
