                               Psi4 1.4a3.dev225

  ==> Input File <==

--------------------------------------------------------------------------
#psi4
#
memory 32 gb

molecule  {
1 1
  O       -1.7781010     0.0481890    -0.8899830
  N        0.7082630     0.0057180    -0.1922720
  C       -0.2685380    -0.7093740     0.7027740
  C        0.9538210     1.4204460     0.2306060
  C        1.9887930    -0.7552220    -0.3346960
  C       -1.6471327    -0.1105541     0.5717067
  H        0.2279220     0.0414410    -1.1066860
  H       -0.2728820    -1.7522560     0.3793240
  H        0.0946000    -0.6468560     1.7315660
  H        1.3625390     1.4139280     1.2413360
  H        1.6670510     1.8686130    -0.4607680
  H        0.0151050     1.9693480     0.1947690
  H        2.4631220    -0.8193040     0.6447500
  H        1.7659200    -1.7521810    -0.7136960
  H        2.6362400    -0.2249370    -1.0326780
  H       -2.3916570    -0.7986900     0.9363150
  H       -1.7508380     0.8532310     1.0447820
  H       -2.6851960     0.3180950    -1.1185210
units angstrom
no_reorient  #important for SAPT in psi4, default
symmetry c1  #important for SAPT in psi4, default
}

set PROPERTIES_ORIGIN ["COM"]
properties('MP2/aug-cc-pvtz', properties = ['dipole'])
--------------------------------------------------------------------------

    Molecular point group: c1
  Charge       = 1
  Multiplicity = 1
  Basis Set: AUG-CC-PVTZ
    Blend: AUG-CC-PVTZ
  Basis Set: (AUG-CC-PVTZ AUX)
    Blend: AUG-CC-PVTZ-JKFIT

    Orbital Energies [Eh]
    ---------------------

    Doubly Occupied:

       1A    -20.727983     2A    -15.857064     3A    -11.458347
       4A    -11.454278     5A    -11.450089     6A    -11.449555
       7A     -1.524276     8A     -1.484150     9A     -1.210575
      10A     -1.166518    11A     -1.095260    12A     -1.026121
      13A     -0.918867    14A     -0.874207    15A     -0.847432
      16A     -0.838836    17A     -0.792515    18A     -0.757149
      19A     -0.741255    20A     -0.737956    21A     -0.725729
      22A     -0.714383    23A     -0.708167    24A     -0.679397
      25A     -0.629378

  @DF-RHF Final Energy:  -287.65647295427118

   => Energetics <=

    Nuclear Repulsion Energy =            278.0110256766294015
    One-Electron Energy =                -931.5960274381944828
    Two-Electron Energy =                 365.9285288072939011
    Total Energy =                       -287.6564729542711802
  Basis Set: (AUG-CC-PVTZ AUX)
    Blend: AUG-CC-PVTZ-RI
    Molecular point group: c1

    Geometry (in Angstrom), charge = 1, multiplicity = 1:

       Center              X                  Y                   Z               Mass
    ------------   -----------------  -----------------  -----------------  -----------------
         O           -1.744324802299     0.054088393858    -0.877453566536    15.994914619570
         N            0.742039197701     0.011617393858    -0.179742566536    14.003074004430
         C           -0.234761802299    -0.703474606142     0.715303433464    12.000000000000
         C            0.987597197701     1.426345393858     0.243135433464    12.000000000000
         C            2.022569197701    -0.749322606142    -0.322166566536    12.000000000000
         C           -1.613356502299    -0.104654706142     0.584236133464    12.000000000000
         H            0.261698197701     0.047340393858    -1.094156566536     1.007825032230
         H           -0.239105802299    -1.746356606142     0.391853433464     1.007825032230
         H            0.128376197701    -0.640956606142     1.744095433464     1.007825032230
         H            1.396315197701     1.419827393858     1.253865433464     1.007825032230
         H            1.700827197701     1.874512393858    -0.448238566536     1.007825032230
         H            0.048881197701     1.975247393858     0.207298433464     1.007825032230
         H            2.496898197701    -0.813404606142     0.657279433464     1.007825032230
         H            1.799696197701    -1.746281606142    -0.701166566536     1.007825032230
         H            2.670016197701    -0.219037606142    -1.020148566536     1.007825032230
         H           -2.357880802299    -0.792790606142     0.948844433464     1.007825032230
         H           -1.717061802299     0.859130393858     1.057311433464     1.007825032230
         H           -2.651419802299     0.323994393858    -1.105991566536     1.007825032230

  Basis Set: AUG-CC-PVTZ
    Blend: AUG-CC-PVTZ
  Basis Set: (AUG-CC-PVTZ AUX)
    Blend: AUG-CC-PVTZ-JKFIT
	 Reference Energy          =    -287.6564729542711802 [Eh]
	 Singles Energy            =      -0.0000000000000000 [Eh]
	 Same-Spin Energy          =      -0.2851129154720504 [Eh]
	 Opposite-Spin Energy      =      -1.0002413141875353 [Eh]
	 Correlation Energy        =      -1.2853542296595857 [Eh]
	 Total Energy              =    -288.9418271839307408 [Eh]

	 ================> DF-SCS-MP2 Energies <==================
	-----------------------------------------------------------
	 SCS Same-Spin Scale       =       0.3333333333333333 [-]
	 SCS Opposite-Spin Scale   =       1.2000000000000000 [-]
	 SCS Same-Spin Energy      =      -0.0950376384906835 [Eh]
	 SCS Opposite-Spin Energy  =      -1.2002895770250424 [Eh]
	 SCS Correlation Energy    =      -1.2953272155157258 [Eh]
	 SCS Total Energy          =    -288.9518001697869067 [Eh]
	-----------------------------------------------------------

  Dipole Moment: [D]
     X:     1.4149      Y:     0.2975      Z:     0.7801     Total:     1.6428

*** Psi4 exiting successfully. Buy a developer a beer!
