                               Psi4 1.4a3.dev225

  ==> Input File <==

--------------------------------------------------------------------------
#psi4
#
memory 32 gb

molecule  {
1 1
  O       -1.7781010     0.0481890    -0.8899830
  N        0.7082630     0.0057180    -0.1922720
  C       -0.2685380    -0.7093740     0.7027740
  C        0.9538210     1.4204460     0.2306060
  C        1.9887930    -0.7552220    -0.3346960
  C       -1.6515690    -0.1051770     0.5221950
  H        0.2279220     0.0414410    -1.1066860
  H       -0.2728820    -1.7522560     0.3793240
  H        0.0946000    -0.6468560     1.7315660
  H        1.3625390     1.4139280     1.2413360
  H        1.6670510     1.8686130    -0.4607680
  H        0.0151050     1.9693480     0.1947690
  H        2.4631220    -0.8193040     0.6447500
  H        1.7659200    -1.7521810    -0.7136960
  H        2.5174158    -0.3222588    -0.9045793
  H       -2.3916570    -0.7986900     0.9363150
  H       -1.7508380     0.8532310     1.0447820
  H       -2.6851960     0.3180950    -1.1185210
units angstrom
no_reorient  #important for SAPT in psi4, default
symmetry c1  #important for SAPT in psi4, default
}

set PROPERTIES_ORIGIN ["COM"]
properties('MP2/aug-cc-pvtz', properties = ['dipole'])
--------------------------------------------------------------------------

    Molecular point group: c1
  Charge       = 1
  Multiplicity = 1
  Basis Set: AUG-CC-PVTZ
    Blend: AUG-CC-PVTZ
  Basis Set: (AUG-CC-PVTZ AUX)
    Blend: AUG-CC-PVTZ-JKFIT

    Orbital Energies [Eh]
    ---------------------

    Doubly Occupied:

       1A    -20.732998     2A    -15.855682     3A    -11.456588
       4A    -11.453823     5A    -11.449626     6A    -11.427869
       7A     -1.539544     8A     -1.488121     9A     -1.212718
      10A     -1.177690    11A     -1.104649    12A     -1.024894
      13A     -0.923690    14A     -0.877004    15A     -0.860967
      16A     -0.848379    17A     -0.791902    18A     -0.771764
      19A     -0.752854    20A     -0.744204    21A     -0.726392
      22A     -0.717636    23A     -0.712013    24A     -0.675949
      25A     -0.624203

  @DF-RHF Final Energy:  -287.62452259381467

   => Energetics <=

    Nuclear Repulsion Energy =            279.5243501297694593
    One-Electron Energy =                -934.3954273874372802
    Two-Electron Energy =                 367.2465546638531464
    Total Energy =                       -287.6245225938146746
  Basis Set: (AUG-CC-PVTZ AUX)
    Blend: AUG-CC-PVTZ-RI
    Molecular point group: c1

    Geometry (in Angstrom), charge = 1, multiplicity = 1:

       Center              X                  Y                   Z               Mass
    ------------   -----------------  -----------------  -----------------  -----------------
         O           -1.742404656045     0.054460881843    -0.872291733116    15.994914619570
         N            0.743959343955     0.011989881843    -0.174580733116    14.003074004430
         C           -0.232841656045    -0.703102118157     0.720465266884    12.000000000000
         C            0.989517343955     1.426717881843     0.248297266884    12.000000000000
         C            2.024489343955    -0.748950118157    -0.317004733116    12.000000000000
         C           -1.615872656045    -0.098905118157     0.539886266884    12.000000000000
         H            0.263618343955     0.047712881843    -1.088994733116     1.007825032230
         H           -0.237185656045    -1.745984118157     0.397015266884     1.007825032230
         H            0.130296343955    -0.640584118157     1.749257266884     1.007825032230
         H            1.398235343955     1.420199881843     1.259027266884     1.007825032230
         H            1.702747343955     1.874884881843    -0.443076733116     1.007825032230
         H            0.050801343955     1.975619881843     0.212460266884     1.007825032230
         H            2.498818343955    -0.813032118157     0.662441266884     1.007825032230
         H            1.801616343955    -1.745909118157    -0.696004733116     1.007825032230
         H            2.553112143955    -0.315986918157    -0.886888033116     1.007825032230
         H           -2.355960656045    -0.792418118157     0.954006266884     1.007825032230
         H           -1.715141656045     0.859502881843     1.062473266884     1.007825032230
         H           -2.649499656045     0.324366881843    -1.100829733116     1.007825032230

  Basis Set: AUG-CC-PVTZ
    Blend: AUG-CC-PVTZ
  Basis Set: (AUG-CC-PVTZ AUX)
    Blend: AUG-CC-PVTZ-JKFIT
	 Reference Energy          =    -287.6245225938146746 [Eh]
	 Singles Energy            =      -0.0000000000000000 [Eh]
	 Same-Spin Energy          =      -0.2849536509695157 [Eh]
	 Opposite-Spin Energy      =      -0.9986427989733052 [Eh]
	 Correlation Energy        =      -1.2835964499428210 [Eh]
	 Total Energy              =    -288.9081190437574946 [Eh]

	 ================> DF-SCS-MP2 Energies <==================
	-----------------------------------------------------------
	 SCS Same-Spin Scale       =       0.3333333333333333 [-]
	 SCS Opposite-Spin Scale   =       1.2000000000000000 [-]
	 SCS Same-Spin Energy      =      -0.0949845503231719 [Eh]
	 SCS Opposite-Spin Energy  =      -1.1983713587679663 [Eh]
	 SCS Correlation Energy    =      -1.2933559090911382 [Eh]
	 SCS Total Energy          =    -288.9178785029058076 [Eh]
	-----------------------------------------------------------

  Dipole Moment: [D]
     X:     1.3612      Y:     0.3074      Z:     0.6749     Total:     1.5501

*** Psi4 exiting successfully. Buy a developer a beer!
