                               Psi4 1.4a3.dev225

  ==> Input File <==

--------------------------------------------------------------------------
#psi4
#
memory 32 gb

molecule  {
1 1
  O       -1.7781010     0.0481890    -0.8899830
  N        0.7082630     0.0057180    -0.1922720
  C       -0.2685380    -0.7093740     0.7027740
  C        1.0051149     1.4105117     0.2308279
  C        1.9887930    -0.7552220    -0.3346960
  C       -1.6515690    -0.1051770     0.5221950
  H        0.2279220     0.0414410    -1.1066860
  H       -0.2728820    -1.7522560     0.3793240
  H        0.0946000    -0.6468560     1.7315660
  H        1.3625390     1.4139280     1.2413360
  H        1.6670510     1.8686130    -0.4607680
  H        0.0151050     1.9693480     0.1947690
  H        2.4631220    -0.8193040     0.6447500
  H        1.7659200    -1.7521810    -0.7136960
  H        2.6362400    -0.2249370    -1.0326780
  H       -2.3916570    -0.7986900     0.9363150
  H       -1.7508380     0.8532310     1.0447820
  H       -2.6851960     0.3180950    -1.1185210
units angstrom
no_reorient  #important for SAPT in psi4, default
symmetry c1  #important for SAPT in psi4, default
}

set PROPERTIES_ORIGIN ["COM"]
properties('MP2/aug-cc-pvtz', properties = ['dipole'])
--------------------------------------------------------------------------

    Molecular point group: c1
  Charge       = 1
  Multiplicity = 1
  Basis Set: AUG-CC-PVTZ
    Blend: AUG-CC-PVTZ
  Basis Set: (AUG-CC-PVTZ AUX)
    Blend: AUG-CC-PVTZ-JKFIT

    Orbital Energies [Eh]
    ---------------------

    Doubly Occupied:

       1A    -20.732935     2A    -15.856404     3A    -11.457672
       4A    -11.454047     5A    -11.449403     6A    -11.448804
       7A     -1.539380     8A     -1.487313     9A     -1.207619
      10A     -1.164127    11A     -1.094371    12A     -1.025326
      13A     -0.919060    14A     -0.878070    15A     -0.851837
      16A     -0.837045    17A     -0.792586    18A     -0.764171
      19A     -0.746131    20A     -0.739613    21A     -0.725983
      22A     -0.714455    23A     -0.706640    24A     -0.673736
      25A     -0.624079

  @DF-RHF Final Energy:  -287.65629102493574

   => Energetics <=

    Nuclear Repulsion Energy =            278.3736655709699903
    One-Electron Energy =                -932.2783014745348282
    Two-Electron Energy =                 366.2483448786291547
    Total Energy =                       -287.6562910249357401
  Basis Set: (AUG-CC-PVTZ AUX)
    Blend: AUG-CC-PVTZ-RI
    Molecular point group: c1

    Geometry (in Angstrom), charge = 1, multiplicity = 1:

       Center              X                  Y                   Z               Mass
    ------------   -----------------  -----------------  -----------------  -----------------
         O           -1.750566109992     0.054695400777    -0.870888296271    15.994914619570
         N            0.735797890008     0.012224400777    -0.173177296271    14.003074004430
         C           -0.241003109992    -0.702867599223     0.721868703729    12.000000000000
         C            1.032649790008     1.417018100777     0.249922603729    12.000000000000
         C            2.016327890008    -0.748715599223    -0.315601296271    12.000000000000
         C           -1.624034109992    -0.098670599223     0.541289703729    12.000000000000
         H            0.255456890008     0.047947400777    -1.087591296271     1.007825032230
         H           -0.245347109992    -1.745749599223     0.398418703729     1.007825032230
         H            0.122134890008    -0.640349599223     1.750660703729     1.007825032230
         H            1.390073890008     1.420434400777     1.260430703729     1.007825032230
         H            1.694585890008     1.875119400777    -0.441673296271     1.007825032230
         H            0.042639890008     1.975854400777     0.213863703729     1.007825032230
         H            2.490656890008    -0.812797599223     0.663844703729     1.007825032230
         H            1.793454890008    -1.745674599223    -0.694601296271     1.007825032230
         H            2.663774890008    -0.218430599223    -1.013583296271     1.007825032230
         H           -2.364122109992    -0.792183599223     0.955409703729     1.007825032230
         H           -1.723303109992     0.859737400777     1.063876703729     1.007825032230
         H           -2.657661109992     0.324601400777    -1.099426296271     1.007825032230

  Basis Set: AUG-CC-PVTZ
    Blend: AUG-CC-PVTZ
  Basis Set: (AUG-CC-PVTZ AUX)
    Blend: AUG-CC-PVTZ-JKFIT
	 Reference Energy          =    -287.6562910249357401 [Eh]
	 Singles Energy            =      -0.0000000000000000 [Eh]
	 Same-Spin Energy          =      -0.2850578541341244 [Eh]
	 Opposite-Spin Energy      =      -0.9995704441166653 [Eh]
	 Correlation Energy        =      -1.2846282982507897 [Eh]
	 Total Energy              =    -288.9409193231865061 [Eh]

	 ================> DF-SCS-MP2 Energies <==================
	-----------------------------------------------------------
	 SCS Same-Spin Scale       =       0.3333333333333333 [-]
	 SCS Opposite-Spin Scale   =       1.2000000000000000 [-]
	 SCS Same-Spin Energy      =      -0.0950192847113748 [Eh]
	 SCS Opposite-Spin Energy  =      -1.1994845329399983 [Eh]
	 SCS Correlation Energy    =      -1.2945038176513732 [Eh]
	 SCS Total Energy          =    -288.9507948425871291 [Eh]
	-----------------------------------------------------------

  Dipole Moment: [D]
     X:     1.3499      Y:     0.3138      Z:     0.6703     Total:     1.5395

*** Psi4 exiting successfully. Buy a developer a beer!
