                               Psi4 1.4a3.dev225

  ==> Input File <==

--------------------------------------------------------------------------
#psi4
#
memory 32 gb

molecule  {
1 1
  O       -1.7781010     0.0481890    -0.8899830
  N        0.7082630     0.0057180    -0.1922720
  C       -0.2685380    -0.7093740     0.7027740
  C        0.9505400     1.4015433     0.2249558
  C        1.9887930    -0.7552220    -0.3346960
  C       -1.6515690    -0.1051770     0.5221950
  H        0.2279220     0.0414410    -1.1066860
  H       -0.2728820    -1.7522560     0.3793240
  H        0.0946000    -0.6468560     1.7315660
  H        1.3625390     1.4139280     1.2413360
  H        1.6670510     1.8686130    -0.4607680
  H        0.0151050     1.9693480     0.1947690
  H        2.4631220    -0.8193040     0.6447500
  H        1.7659200    -1.7521810    -0.7136960
  H        2.6362400    -0.2249370    -1.0326780
  H       -2.3916570    -0.7986900     0.9363150
  H       -1.7508380     0.8532310     1.0447820
  H       -2.6851960     0.3180950    -1.1185210
units angstrom
no_reorient  #important for SAPT in psi4, default
symmetry c1  #important for SAPT in psi4, default
}

set PROPERTIES_ORIGIN ["COM"]
properties('MP2/aug-cc-pvtz', properties = ['dipole'])
--------------------------------------------------------------------------

    Molecular point group: c1
  Charge       = 1
  Multiplicity = 1
  Basis Set: AUG-CC-PVTZ
    Blend: AUG-CC-PVTZ
  Basis Set: (AUG-CC-PVTZ AUX)
    Blend: AUG-CC-PVTZ-JKFIT

    Orbital Energies [Eh]
    ---------------------

    Doubly Occupied:

       1A    -20.733374     2A    -15.857289     3A    -11.457613
       4A    -11.454423     5A    -11.450107     6A    -11.448513
       7A     -1.540356     8A     -1.491114     9A     -1.207612
      10A     -1.166797    11A     -1.092742    12A     -1.025689
      13A     -0.920805    14A     -0.878078    15A     -0.854262
      16A     -0.839434    17A     -0.793295    18A     -0.755527
      19A     -0.746482    20A     -0.739809    21A     -0.721847
      22A     -0.715445    23A     -0.713427    24A     -0.674354
      25A     -0.624615

  @DF-RHF Final Energy:  -287.65897981097828

   => Energetics <=

    Nuclear Repulsion Energy =            278.8650493604085341
    One-Electron Energy =                -933.2420412086428314
    Two-Electron Energy =                 366.7180120372560168
    Total Energy =                       -287.6589798109782805
  Basis Set: (AUG-CC-PVTZ AUX)
    Blend: AUG-CC-PVTZ-RI
    Molecular point group: c1

    Geometry (in Angstrom), charge = 1, multiplicity = 1:

       Center              X                  Y                   Z               Mass
    ------------   -----------------  -----------------  -----------------  -----------------
         O           -1.743296878465     0.055889967804    -0.870106148169    15.994914619570
         N            0.743067121535     0.013418967804    -0.172395148169    14.003074004430
         C           -0.233733878465    -0.701673032196     0.722650851831    12.000000000000
         C            0.985344121535     1.409244267804     0.244832651831    12.000000000000
         C            2.023597121535    -0.747521032196    -0.314819148169    12.000000000000
         C           -1.616764878465    -0.097476032196     0.542071851831    12.000000000000
         H            0.262726121535     0.049141967804    -1.086809148169     1.007825032230
         H           -0.238077878465    -1.744555032196     0.399200851831     1.007825032230
         H            0.129404121535    -0.639155032196     1.751442851831     1.007825032230
         H            1.397343121535     1.421628967804     1.261212851831     1.007825032230
         H            1.701855121535     1.876313967804    -0.440891148169     1.007825032230
         H            0.049909121535     1.977048967804     0.214645851831     1.007825032230
         H            2.497926121535    -0.811603032196     0.664626851831     1.007825032230
         H            1.800724121535    -1.744480032196    -0.693819148169     1.007825032230
         H            2.671044121535    -0.217236032196    -1.012801148169     1.007825032230
         H           -2.356852878465    -0.790989032196     0.956191851831     1.007825032230
         H           -1.716033878465     0.860931967804     1.064658851831     1.007825032230
         H           -2.650391878465     0.325795967804    -1.098644148169     1.007825032230

  Basis Set: AUG-CC-PVTZ
    Blend: AUG-CC-PVTZ
  Basis Set: (AUG-CC-PVTZ AUX)
    Blend: AUG-CC-PVTZ-JKFIT
	 Reference Energy          =    -287.6589798109782805 [Eh]
	 Singles Energy            =      -0.0000000000000000 [Eh]
	 Same-Spin Energy          =      -0.2851731016436981 [Eh]
	 Opposite-Spin Energy      =      -0.9994314074987253 [Eh]
	 Correlation Energy        =      -1.2846045091424234 [Eh]
	 Total Energy              =    -288.9435843201206922 [Eh]

	 ================> DF-SCS-MP2 Energies <==================
	-----------------------------------------------------------
	 SCS Same-Spin Scale       =       0.3333333333333333 [-]
	 SCS Opposite-Spin Scale   =       1.2000000000000000 [-]
	 SCS Same-Spin Energy      =      -0.0950577005478994 [Eh]
	 SCS Opposite-Spin Energy  =      -1.1993176889984702 [Eh]
	 SCS Correlation Energy    =      -1.2943753895463697 [Eh]
	 SCS Total Energy          =    -288.9533552005246406 [Eh]
	-----------------------------------------------------------

  Dipole Moment: [D]
     X:     1.3621      Y:     0.2837      Z:     0.6573     Total:     1.5388

*** Psi4 exiting successfully. Buy a developer a beer!
