                               Psi4 1.4a3.dev225

  ==> Input File <==

--------------------------------------------------------------------------
#psi4
#
memory 32 gb

molecule  {
1 1
  O       -1.7781010     0.0481890    -0.8899830
  N        0.7082630     0.0057180    -0.1922720
  C       -0.2477771    -0.6665085     0.6793978
  C        0.9538210     1.4204460     0.2306060
  C        1.9887930    -0.7552220    -0.3346960
  C       -1.6515690    -0.1051770     0.5221950
  H        0.2279220     0.0414410    -1.1066860
  H       -0.2728820    -1.7522560     0.3793240
  H        0.0946000    -0.6468560     1.7315660
  H        1.3625390     1.4139280     1.2413360
  H        1.6670510     1.8686130    -0.4607680
  H        0.0151050     1.9693480     0.1947690
  H        2.4631220    -0.8193040     0.6447500
  H        1.7659200    -1.7521810    -0.7136960
  H        2.6362400    -0.2249370    -1.0326780
  H       -2.3916570    -0.7986900     0.9363150
  H       -1.7508380     0.8532310     1.0447820
  H       -2.6851960     0.3180950    -1.1185210
units angstrom
no_reorient  #important for SAPT in psi4, default
symmetry c1  #important for SAPT in psi4, default
}

set PROPERTIES_ORIGIN ["COM"]
properties('MP2/aug-cc-pvtz', properties = ['dipole'])
--------------------------------------------------------------------------

    Molecular point group: c1
  Charge       = 1
  Multiplicity = 1
  Basis Set: AUG-CC-PVTZ
    Blend: AUG-CC-PVTZ
  Basis Set: (AUG-CC-PVTZ AUX)
    Blend: AUG-CC-PVTZ-JKFIT

    Orbital Energies [Eh]
    ---------------------

    Doubly Occupied:

       1A    -20.732451     2A    -15.859287     3A    -11.455879
       4A    -11.453497     5A    -11.451504     6A    -11.450504
       7A     -1.541414     8A     -1.496546     9A     -1.205854
      10A     -1.168602    11A     -1.097207    12A     -1.025108
      13A     -0.921449    14A     -0.878684    15A     -0.854043
      16A     -0.841261    17A     -0.792291    18A     -0.757818
      19A     -0.746889    20A     -0.743142    21A     -0.726389
      22A     -0.715606    23A     -0.702250    24A     -0.674620
      25A     -0.622426

  @DF-RHF Final Energy:  -287.65649157066832

   => Energetics <=

    Nuclear Repulsion Energy =            279.2907582207457722
    One-Electron Energy =                -934.0650540704509694
    Two-Electron Energy =                 367.1178042790368181
    Total Energy =                       -287.6564915706683223
  Basis Set: (AUG-CC-PVTZ AUX)
    Blend: AUG-CC-PVTZ-RI
    Molecular point group: c1

    Geometry (in Angstrom), charge = 1, multiplicity = 1:

       Center              X                  Y                   Z               Mass
    ------------   -----------------  -----------------  -----------------  -----------------
         O           -1.746499195601     0.047662607848    -0.867745092115    15.994914619570
         N            0.739864804399     0.005191607848    -0.170034092115    14.003074004430
         C           -0.216175295601    -0.667034892152     0.701635707885    12.000000000000
         C            0.985422804399     1.419919607848     0.252843907885    12.000000000000
         C            2.020394804399    -0.755748392152    -0.312458092115    12.000000000000
         C           -1.619967195601    -0.105703392152     0.544432907885    12.000000000000
         H            0.259523804399     0.040914607848    -1.084448092115     1.007825032230
         H           -0.241280195601    -1.752782392152     0.401561907885     1.007825032230
         H            0.126201804399    -0.647382392152     1.753803907885     1.007825032230
         H            1.394140804399     1.413401607848     1.263573907885     1.007825032230
         H            1.698652804399     1.868086607848    -0.438530092115     1.007825032230
         H            0.046706804399     1.968821607848     0.217006907885     1.007825032230
         H            2.494723804399    -0.819830392152     0.666987907885     1.007825032230
         H            1.797521804399    -1.752707392152    -0.691458092115     1.007825032230
         H            2.667841804399    -0.225463392152    -1.010440092115     1.007825032230
         H           -2.360055195601    -0.799216392152     0.958552907885     1.007825032230
         H           -1.719236195601     0.852704607848     1.067019907885     1.007825032230
         H           -2.653594195601     0.317568607848    -1.096283092115     1.007825032230

  Basis Set: AUG-CC-PVTZ
    Blend: AUG-CC-PVTZ
  Basis Set: (AUG-CC-PVTZ AUX)
    Blend: AUG-CC-PVTZ-JKFIT
	 Reference Energy          =    -287.6564915706683223 [Eh]
	 Singles Energy            =      -0.0000000000000000 [Eh]
	 Same-Spin Energy          =      -0.2854070101155544 [Eh]
	 Opposite-Spin Energy      =      -0.9996200657995306 [Eh]
	 Correlation Energy        =      -1.2850270759150850 [Eh]
	 Total Energy              =    -288.9415186465834040 [Eh]

	 ================> DF-SCS-MP2 Energies <==================
	-----------------------------------------------------------
	 SCS Same-Spin Scale       =       0.3333333333333333 [-]
	 SCS Opposite-Spin Scale   =       1.2000000000000000 [-]
	 SCS Same-Spin Energy      =      -0.0951356700385181 [Eh]
	 SCS Opposite-Spin Energy  =      -1.1995440789594367 [Eh]
	 SCS Correlation Energy    =      -1.2946797489979549 [Eh]
	 SCS Total Energy          =    -288.9511713196662868 [Eh]
	-----------------------------------------------------------

  Dipole Moment: [D]
     X:     1.4308      Y:     0.3346      Z:     0.6292     Total:     1.5985

*** Psi4 exiting successfully. Buy a developer a beer!
