                               Psi4 1.4a3.dev225

  ==> Input File <==

--------------------------------------------------------------------------
#psi4
#
memory 32 gb

molecule  {
1 1
  O       -1.7781010     0.0481890    -0.8899830
  N        0.7082630     0.0057180    -0.1922720
  C       -0.2685380    -0.7093740     0.7027740
  C        0.9423987     1.4287564     0.2086294
  C        1.9887930    -0.7552220    -0.3346960
  C       -1.6515690    -0.1051770     0.5221950
  H        0.2279220     0.0414410    -1.1066860
  H       -0.2728820    -1.7522560     0.3793240
  H        0.0946000    -0.6468560     1.7315660
  H        1.3625390     1.4139280     1.2413360
  H        1.6670510     1.8686130    -0.4607680
  H        0.0151050     1.9693480     0.1947690
  H        2.4631220    -0.8193040     0.6447500
  H        1.7659200    -1.7521810    -0.7136960
  H        2.6362400    -0.2249370    -1.0326780
  H       -2.3916570    -0.7986900     0.9363150
  H       -1.7508380     0.8532310     1.0447820
  H       -2.6851960     0.3180950    -1.1185210
units angstrom
no_reorient  #important for SAPT in psi4, default
symmetry c1  #important for SAPT in psi4, default
}

set PROPERTIES_ORIGIN ["COM"]
properties('MP2/aug-cc-pvtz', properties = ['dipole'])
--------------------------------------------------------------------------

    Molecular point group: c1
  Charge       = 1
  Multiplicity = 1
  Basis Set: AUG-CC-PVTZ
    Blend: AUG-CC-PVTZ
  Basis Set: (AUG-CC-PVTZ AUX)
    Blend: AUG-CC-PVTZ-JKFIT

    Orbital Energies [Eh]
    ---------------------

    Doubly Occupied:

       1A    -20.733197     2A    -15.856190     3A    -11.457185
       4A    -11.454319     5A    -11.449762     6A    -11.449215
       7A     -1.539717     8A     -1.487049     9A     -1.206754
      10A     -1.166654    11A     -1.092522    12A     -1.024448
      13A     -0.919681    14A     -0.877594    15A     -0.854238
      16A     -0.837233    17A     -0.792762    18A     -0.752959
      19A     -0.745932    20A     -0.740130    21A     -0.729556
      22A     -0.715204    23A     -0.711769    24A     -0.674154
      25A     -0.624531

  @DF-RHF Final Energy:  -287.65860734927219

   => Energetics <=

    Nuclear Repulsion Energy =            278.5105679261854448
    One-Electron Energy =                -932.5528406116110318
    Two-Electron Energy =                 366.3836653361533990
    Total Energy =                       -287.6586073492721880
  Basis Set: (AUG-CC-PVTZ AUX)
    Blend: AUG-CC-PVTZ-RI
    Molecular point group: c1

    Geometry (in Angstrom), charge = 1, multiplicity = 1:

       Center              X                  Y                   Z               Mass
    ------------   -----------------  -----------------  -----------------  -----------------
         O           -1.742212478958     0.052265255262    -0.867931515112    15.994914619570
         N            0.744151521042     0.009794255262    -0.170220515112    14.003074004430
         C           -0.232649478958    -0.705297744738     0.724825484888    12.000000000000
         C            0.978287221042     1.432832655262     0.230680884888    12.000000000000
         C            2.024681521042    -0.751145744738    -0.312644515112    12.000000000000
         C           -1.615680478958    -0.101100744738     0.544246484888    12.000000000000
         H            0.263810521042     0.045517255262    -1.084634515112     1.007825032230
         H           -0.236993478958    -1.748179744738     0.401375484888     1.007825032230
         H            0.130488521042    -0.642779744738     1.753617484888     1.007825032230
         H            1.398427521042     1.418004255262     1.263387484888     1.007825032230
         H            1.702939521042     1.872689255262    -0.438716515112     1.007825032230
         H            0.050993521042     1.973424255262     0.216820484888     1.007825032230
         H            2.499010521042    -0.815227744738     0.666801484888     1.007825032230
         H            1.801808521042    -1.748104744738    -0.691644515112     1.007825032230
         H            2.672128521042    -0.220860744738    -1.010626515112     1.007825032230
         H           -2.355768478958    -0.794613744738     0.958366484888     1.007825032230
         H           -1.714949478958     0.857307255262     1.066833484888     1.007825032230
         H           -2.649307478958     0.322171255262    -1.096469515112     1.007825032230

  Basis Set: AUG-CC-PVTZ
    Blend: AUG-CC-PVTZ
  Basis Set: (AUG-CC-PVTZ AUX)
    Blend: AUG-CC-PVTZ-JKFIT
	 Reference Energy          =    -287.6586073492721880 [Eh]
	 Singles Energy            =      -0.0000000000000000 [Eh]
	 Same-Spin Energy          =      -0.2850146815064526 [Eh]
	 Opposite-Spin Energy      =      -0.9994087779867021 [Eh]
	 Correlation Energy        =      -1.2844234594931547 [Eh]
	 Total Energy              =    -288.9430308087653430 [Eh]

	 ================> DF-SCS-MP2 Energies <==================
	-----------------------------------------------------------
	 SCS Same-Spin Scale       =       0.3333333333333333 [-]
	 SCS Opposite-Spin Scale   =       1.2000000000000000 [-]
	 SCS Same-Spin Energy      =      -0.0950048938354842 [Eh]
	 SCS Opposite-Spin Energy  =      -1.1992905335840425 [Eh]
	 SCS Correlation Energy    =      -1.2942954274195266 [Eh]
	 SCS Total Energy          =    -288.9529027766917011 [Eh]
	-----------------------------------------------------------

  Dipole Moment: [D]
     X:     1.3695      Y:     0.3002      Z:     0.6614     Total:     1.5501

*** Psi4 exiting successfully. Buy a developer a beer!
