                               Psi4 1.4a3.dev225

  ==> Input File <==

--------------------------------------------------------------------------
#psi4
#
memory 32 gb

molecule  {
1 1
  O       -1.7781010     0.0481890    -0.8899830
  N        0.7082630     0.0057180    -0.1922720
  C       -0.2685380    -0.7093740     0.7027740
  C        0.9077178     1.4510774     0.1419940
  C        1.9887930    -0.7552220    -0.3346960
  C       -1.6515690    -0.1051770     0.5221950
  H        0.2279220     0.0414410    -1.1066860
  H       -0.2728820    -1.7522560     0.3793240
  H        0.0946000    -0.6468560     1.7315660
  H        1.3625390     1.4139280     1.2413360
  H        1.6670510     1.8686130    -0.4607680
  H        0.0151050     1.9693480     0.1947690
  H        2.4631220    -0.8193040     0.6447500
  H        1.7659200    -1.7521810    -0.7136960
  H        2.6362400    -0.2249370    -1.0326780
  H       -2.3916570    -0.7986900     0.9363150
  H       -1.7508380     0.8532310     1.0447820
  H       -2.6851960     0.3180950    -1.1185210
units angstrom
no_reorient  #important for SAPT in psi4, default
symmetry c1  #important for SAPT in psi4, default
}

set PROPERTIES_ORIGIN ["COM"]
properties('MP2/aug-cc-pvtz', properties = ['dipole'])
--------------------------------------------------------------------------

    Molecular point group: c1
  Charge       = 1
  Multiplicity = 1
  Basis Set: AUG-CC-PVTZ
    Blend: AUG-CC-PVTZ
  Basis Set: (AUG-CC-PVTZ AUX)
    Blend: AUG-CC-PVTZ-JKFIT

    Orbital Energies [Eh]
    ---------------------

    Doubly Occupied:

       1A    -20.733498     2A    -15.856543     3A    -11.457749
       4A    -11.454824     5A    -11.450767     6A    -11.450598
       7A     -1.540128     8A     -1.487241     9A     -1.207233
      10A     -1.169020    11A     -1.091798    12A     -1.023492
      13A     -0.921352    14A     -0.879568    15A     -0.857010
      16A     -0.838771    17A     -0.795572    18A     -0.754649
      19A     -0.743733    20A     -0.741054    21A     -0.735109
      22A     -0.713732    23A     -0.698429    24A     -0.673582
      25A     -0.625123

  @DF-RHF Final Energy:  -287.64767819497507

   => Energetics <=

    Nuclear Repulsion Energy =            278.5172774172131653
    One-Electron Energy =                -932.5287567496917518
    Two-Electron Energy =                 366.3638011375034580
    Total Energy =                       -287.6476781949750716
  Basis Set: (AUG-CC-PVTZ AUX)
    Blend: AUG-CC-PVTZ-RI
    Molecular point group: c1

    Geometry (in Angstrom), charge = 1, multiplicity = 1:

       Center              X                  Y                   Z               Mass
    ------------   -----------------  -----------------  -----------------  -----------------
         O           -1.737593075318     0.049292157429    -0.859055857062    15.994914619570
         N            0.748770924682     0.006821157429    -0.161344857062    14.003074004430
         C           -0.228030075318    -0.708270842571     0.733701142938    12.000000000000
         C            0.948225724682     1.452180557429     0.172921142938    12.000000000000
         C            2.029300924682    -0.754118842571    -0.303768857062    12.000000000000
         C           -1.611061075318    -0.104073842571     0.553122142938    12.000000000000
         H            0.268429924682     0.042544157429    -1.075758857062     1.007825032230
         H           -0.232374075318    -1.751152842571     0.410251142938     1.007825032230
         H            0.135107924682    -0.645752842571     1.762493142938     1.007825032230
         H            1.403046924682     1.415031157429     1.272263142938     1.007825032230
         H            1.707558924682     1.869716157429    -0.429840857062     1.007825032230
         H            0.055612924682     1.970451157429     0.225696142938     1.007825032230
         H            2.503629924682    -0.818200842571     0.675677142938     1.007825032230
         H            1.806427924682    -1.751077842571    -0.682768857062     1.007825032230
         H            2.676747924682    -0.223833842571    -1.001750857062     1.007825032230
         H           -2.351149075318    -0.797586842571     0.967242142938     1.007825032230
         H           -1.710330075318     0.854334157429     1.075709142938     1.007825032230
         H           -2.644688075318     0.319198157429    -1.087593857062     1.007825032230

  Basis Set: AUG-CC-PVTZ
    Blend: AUG-CC-PVTZ
  Basis Set: (AUG-CC-PVTZ AUX)
    Blend: AUG-CC-PVTZ-JKFIT
	 Reference Energy          =    -287.6476781949750716 [Eh]
	 Singles Energy            =      -0.0000000000000000 [Eh]
	 Same-Spin Energy          =      -0.2851846412817576 [Eh]
	 Opposite-Spin Energy      =      -0.9998754918075583 [Eh]
	 Correlation Energy        =      -1.2850601330893159 [Eh]
	 Total Energy              =    -288.9327383280643744 [Eh]

	 ================> DF-SCS-MP2 Energies <==================
	-----------------------------------------------------------
	 SCS Same-Spin Scale       =       0.3333333333333333 [-]
	 SCS Opposite-Spin Scale   =       1.2000000000000000 [-]
	 SCS Same-Spin Energy      =      -0.0950615470939192 [Eh]
	 SCS Opposite-Spin Energy  =      -1.1998505901690699 [Eh]
	 SCS Correlation Energy    =      -1.2949121372629890 [Eh]
	 SCS Total Energy          =    -288.9425903322380691 [Eh]
	-----------------------------------------------------------

  Dipole Moment: [D]
     X:     1.3672      Y:     0.2668      Z:     0.6502     Total:     1.5373

*** Psi4 exiting successfully. Buy a developer a beer!
