                               Psi4 1.4a3.dev225

  ==> Input File <==

--------------------------------------------------------------------------
#psi4
#
memory 32 gb

molecule  {
1 1
  O       -1.7781010     0.0481890    -0.8899830
  N        0.7082630     0.0057180    -0.1922720
  C       -0.2685380    -0.7093740     0.7027740
  C        0.9538210     1.4204460     0.2306060
  C        1.9887930    -0.7552220    -0.3346960
  C       -1.6515690    -0.1051770     0.5221950
  H        0.2279220     0.0414410    -1.1066860
  H       -0.2728820    -1.7522560     0.3793240
  H        0.0946000    -0.6468560     1.7315660
  H        1.3625390     1.4139280     1.2413360
  H        1.6343264     1.8480501    -0.4290462
  H        0.0151050     1.9693480     0.1947690
  H        2.4631220    -0.8193040     0.6447500
  H        1.7659200    -1.7521810    -0.7136960
  H        2.6362400    -0.2249370    -1.0326780
  H       -2.3916570    -0.7986900     0.9363150
  H       -1.7508380     0.8532310     1.0447820
  H       -2.6851960     0.3180950    -1.1185210
units angstrom
no_reorient  #important for SAPT in psi4, default
symmetry c1  #important for SAPT in psi4, default
}

set PROPERTIES_ORIGIN ["COM"]
properties('MP2/aug-cc-pvtz', properties = ['dipole'])
--------------------------------------------------------------------------

    Molecular point group: c1
  Charge       = 1
  Multiplicity = 1
  Basis Set: AUG-CC-PVTZ
    Blend: AUG-CC-PVTZ
  Basis Set: (AUG-CC-PVTZ AUX)
    Blend: AUG-CC-PVTZ-JKFIT

    Orbital Energies [Eh]
    ---------------------

    Doubly Occupied:

       1A    -20.733072     2A    -15.856030     3A    -11.456880
       4A    -11.454063     5A    -11.449665     6A    -11.443766
       7A     -1.539571     8A     -1.487249     9A     -1.207157
      10A     -1.169057    11A     -1.094822    12A     -1.024920
      13A     -0.920569    14A     -0.878599    15A     -0.854051
      16A     -0.837384    17A     -0.793317    18A     -0.759837
      19A     -0.746931    20A     -0.739934    21A     -0.729306
      22A     -0.717497    23A     -0.711964    24A     -0.674152
      25A     -0.624282

  @DF-RHF Final Energy:  -287.65841892177542

   => Energetics <=

    Nuclear Repulsion Energy =            278.7474249547320255
    One-Electron Energy =                -933.0035375618444959
    Two-Electron Energy =                 366.5976936853371058
    Total Energy =                       -287.6584189217754215
  Basis Set: (AUG-CC-PVTZ AUX)
    Blend: AUG-CC-PVTZ-RI
    Molecular point group: c1

    Geometry (in Angstrom), charge = 1, multiplicity = 1:

       Center              X                  Y                   Z               Mass
    ------------   -----------------  -----------------  -----------------  -----------------
         O           -1.743367820799     0.053602208086    -0.871213599963    15.994914619570
         N            0.742996179201     0.011131208086    -0.173502599963    14.003074004430
         C           -0.233804820799    -0.703960791914     0.721543400037    12.000000000000
         C            0.988554179201     1.425859208086     0.249375400037    12.000000000000
         C            2.023526179201    -0.749808791914    -0.315926599963    12.000000000000
         C           -1.616835820799    -0.099763791914     0.540964400037    12.000000000000
         H            0.262655179201     0.046854208086    -1.087916599963     1.007825032230
         H           -0.238148820799    -1.746842791914     0.398093400037     1.007825032230
         H            0.129333179201    -0.641442791914     1.750335400037     1.007825032230
         H            1.397272179201     1.419341208086     1.260105400037     1.007825032230
         H            1.669059579201     1.853463308086    -0.410276799963     1.007825032230
         H            0.049838179201     1.974761208086     0.213538400037     1.007825032230
         H            2.497855179201    -0.813890791914     0.663519400037     1.007825032230
         H            1.800653179201    -1.746767791914    -0.694926599963     1.007825032230
         H            2.670973179201    -0.219523791914    -1.013908599963     1.007825032230
         H           -2.356923820799    -0.793276791914     0.955084400037     1.007825032230
         H           -1.716104820799     0.858644208086     1.063551400037     1.007825032230
         H           -2.650462820799     0.323508208086    -1.099751599963     1.007825032230

  Basis Set: AUG-CC-PVTZ
    Blend: AUG-CC-PVTZ
  Basis Set: (AUG-CC-PVTZ AUX)
    Blend: AUG-CC-PVTZ-JKFIT
	 Reference Energy          =    -287.6584189217754215 [Eh]
	 Singles Energy            =      -0.0000000000000000 [Eh]
	 Same-Spin Energy          =      -0.2849686702094020 [Eh]
	 Opposite-Spin Energy      =      -0.9990816634851998 [Eh]
	 Correlation Energy        =      -1.2840503336946019 [Eh]
	 Total Energy              =    -288.9424692554700300 [Eh]

	 ================> DF-SCS-MP2 Energies <==================
	-----------------------------------------------------------
	 SCS Same-Spin Scale       =       0.3333333333333333 [-]
	 SCS Opposite-Spin Scale   =       1.2000000000000000 [-]
	 SCS Same-Spin Energy      =      -0.0949895567364673 [Eh]
	 SCS Opposite-Spin Energy  =      -1.1988979961822397 [Eh]
	 SCS Correlation Energy    =      -1.2938875529187071 [Eh]
	 SCS Total Energy          =    -288.9523064746941259 [Eh]
	-----------------------------------------------------------

  Dipole Moment: [D]
     X:     1.3693      Y:     0.3069      Z:     0.6637     Total:     1.5524

*** Psi4 exiting successfully. Buy a developer a beer!
