                               Psi4 1.4a3.dev225

  ==> Input File <==

--------------------------------------------------------------------------
#psi4
#
memory 32 gb

molecule  {
1 1
  O       -1.7781010     0.0481890    -0.8899830
  N        0.7082630     0.0057180    -0.1922720
  C       -0.2685380    -0.7093740     0.7027740
  C        0.9538210     1.4204460     0.2306060
  C        1.9887930    -0.7552220    -0.3346960
  C       -1.6515690    -0.1051770     0.5221950
  H        0.2279220     0.0414410    -1.1066860
  H       -0.2728820    -1.7522560     0.3793240
  H        0.0946000    -0.6468560     1.7315660
  H        1.3625390     1.4139280     1.2413360
  H        1.6670510     1.8686130    -0.4607680
  H        0.0151050     1.9693480     0.1947690
  H        2.4631220    -0.8193040     0.6447500
  H        1.7765612    -1.7485482    -0.7290326
  H        2.6362400    -0.2249370    -1.0326780
  H       -2.3916570    -0.7986900     0.9363150
  H       -1.7508380     0.8532310     1.0447820
  H       -2.6851960     0.3180950    -1.1185210
units angstrom
no_reorient  #important for SAPT in psi4, default
symmetry c1  #important for SAPT in psi4, default
}

set PROPERTIES_ORIGIN ["COM"]
properties('MP2/aug-cc-pvtz', properties = ['dipole'])
--------------------------------------------------------------------------

    Molecular point group: c1
  Charge       = 1
  Multiplicity = 1
  Basis Set: AUG-CC-PVTZ
    Blend: AUG-CC-PVTZ
  Basis Set: (AUG-CC-PVTZ AUX)
    Blend: AUG-CC-PVTZ-JKFIT

    Orbital Energies [Eh]
    ---------------------

    Doubly Occupied:

       1A    -20.733125     2A    -15.856375     3A    -11.456991
       4A    -11.454145     5A    -11.449438     6A    -11.449143
       7A     -1.539619     8A     -1.487097     9A     -1.206643
      10A     -1.165940    11A     -1.093064    12A     -1.024887
      13A     -0.919328    14A     -0.877095    15A     -0.853799
      16A     -0.836779    17A     -0.792003    18A     -0.757904
      19A     -0.746604    20A     -0.738818    21A     -0.725164
      22A     -0.717128    23A     -0.711501    24A     -0.674089
      25A     -0.624341

  @DF-RHF Final Energy:  -287.65934073953963

   => Energetics <=

    Nuclear Repulsion Energy =            278.4932850100929045
    One-Electron Energy =                -932.5232128505145965
    Two-Electron Energy =                 366.3705871008820623
    Total Energy =                       -287.6593407395396298
  Basis Set: (AUG-CC-PVTZ AUX)
    Blend: AUG-CC-PVTZ-RI
    Molecular point group: c1

    Geometry (in Angstrom), charge = 1, multiplicity = 1:

       Center              X                  Y                   Z               Mass
    ------------   -----------------  -----------------  -----------------  -----------------
         O           -1.743852938153     0.053331539634    -0.870687174843    15.994914619570
         N            0.742511061847     0.010860539634    -0.172976174843    14.003074004430
         C           -0.234289938153    -0.704231460366     0.722069825157    12.000000000000
         C            0.988069061847     1.425588539634     0.249901825157    12.000000000000
         C            2.023041061847    -0.750079460366    -0.315400174843    12.000000000000
         C           -1.617320938153    -0.100034460366     0.541490825157    12.000000000000
         H            0.262170061847     0.046583539634    -1.087390174843     1.007825032230
         H           -0.238633938153    -1.747113460366     0.398619825157     1.007825032230
         H            0.128848061847    -0.641713460366     1.750861825157     1.007825032230
         H            1.396787061847     1.419070539634     1.260631825157     1.007825032230
         H            1.701299061847     1.873755539634    -0.441472174843     1.007825032230
         H            0.049353061847     1.974490539634     0.214064825157     1.007825032230
         H            2.497370061847    -0.814161460366     0.664045825157     1.007825032230
         H            1.810809261847    -1.743405660366    -0.709736774843     1.007825032230
         H            2.670488061847    -0.219794460366    -1.013382174843     1.007825032230
         H           -2.357408938153    -0.793547460366     0.955610825157     1.007825032230
         H           -1.716589938153     0.858373539634     1.064077825157     1.007825032230
         H           -2.650947938153     0.323237539634    -1.099225174843     1.007825032230

  Basis Set: AUG-CC-PVTZ
    Blend: AUG-CC-PVTZ
  Basis Set: (AUG-CC-PVTZ AUX)
    Blend: AUG-CC-PVTZ-JKFIT
	 Reference Energy          =    -287.6593407395396298 [Eh]
	 Singles Energy            =      -0.0000000000000000 [Eh]
	 Same-Spin Energy          =      -0.2850077796851369 [Eh]
	 Opposite-Spin Energy      =      -0.9993978962580577 [Eh]
	 Correlation Energy        =      -1.2844056759431945 [Eh]
	 Total Energy              =    -288.9437464154828490 [Eh]

	 ================> DF-SCS-MP2 Energies <==================
	-----------------------------------------------------------
	 SCS Same-Spin Scale       =       0.3333333333333333 [-]
	 SCS Opposite-Spin Scale   =       1.2000000000000000 [-]
	 SCS Same-Spin Energy      =      -0.0950025932283790 [Eh]
	 SCS Opposite-Spin Energy  =      -1.1992774755096693 [Eh]
	 SCS Correlation Energy    =      -1.2942800687380482 [Eh]
	 SCS Total Energy          =    -288.9536208082776625 [Eh]
	-----------------------------------------------------------

  Dipole Moment: [D]
     X:     1.3711      Y:     0.3083      Z:     0.6545     Total:     1.5503

*** Psi4 exiting successfully. Buy a developer a beer!
