                               Psi4 1.4a3.dev225

  ==> Input File <==

--------------------------------------------------------------------------
#psi4
#
memory 32 gb

molecule  {
1 1
  O       -1.7781010     0.0481890    -0.8899830
  N        0.7082630     0.0057180    -0.1922720
  C       -0.2685380    -0.7093740     0.7027740
  C        0.9538210     1.4204460     0.2306060
  C        1.9887930    -0.7552220    -0.3346960
  C       -1.6515690    -0.1051770     0.5221950
  H        0.2279220     0.0414410    -1.1066860
  H       -0.2728820    -1.7522560     0.3793240
  H        0.0946000    -0.6468560     1.7315660
  H        1.3625390     1.4139280     1.2413360
  H        1.6670510     1.8686130    -0.4607680
  H        0.0151050     1.9693480     0.1947690
  H        2.4631220    -0.8193040     0.6447500
  H        1.7659200    -1.7521810    -0.7136960
  H        2.6362400    -0.2249370    -1.0326780
  H       -2.3916570    -0.7986900     0.9363150
  H       -1.7508380     0.8532310     1.0447820
  H       -2.4988580     0.2626501    -1.0715741
units angstrom
no_reorient  #important for SAPT in psi4, default
symmetry c1  #important for SAPT in psi4, default
}

set PROPERTIES_ORIGIN ["COM"]
properties('MP2/aug-cc-pvtz', properties = ['dipole'])
--------------------------------------------------------------------------

    Molecular point group: c1
  Charge       = 1
  Multiplicity = 1
  Basis Set: AUG-CC-PVTZ
    Blend: AUG-CC-PVTZ
  Basis Set: (AUG-CC-PVTZ AUX)
    Blend: AUG-CC-PVTZ-JKFIT

    Orbital Energies [Eh]
    ---------------------

    Doubly Occupied:

       1A    -20.715445     2A    -15.857869     3A    -11.459361
       4A    -11.458074     5A    -11.450790     6A    -11.450542
       7A     -1.595852     8A     -1.493709     9A     -1.219392
      10A     -1.167523    11A     -1.097473    12A     -1.040928
      13A     -0.931997    14A     -0.898169    15A     -0.863161
      16A     -0.839647    17A     -0.797521    18A     -0.760388
      19A     -0.750079    20A     -0.746064    21A     -0.726949
      22A     -0.720487    23A     -0.715330    24A     -0.683675
      25A     -0.632822

  @DF-RHF Final Energy:  -287.61303230174462

   => Energetics <=

    Nuclear Repulsion Energy =            280.0149623998060520
    One-Electron Energy =                -935.1094987032407744
    Two-Electron Energy =                 367.4815040016901548
    Total Energy =                       -287.6130323017446244
  Basis Set: (AUG-CC-PVTZ AUX)
    Blend: AUG-CC-PVTZ-RI
    Molecular point group: c1

    Geometry (in Angstrom), charge = 1, multiplicity = 1:

       Center              X                  Y                   Z               Mass
    ------------   -----------------  -----------------  -----------------  -----------------
         O           -1.745818394034     0.053992420270    -0.871383917592    15.994914619570
         N            0.740545605966     0.011521420270    -0.173672917592    14.003074004430
         C           -0.236255394034    -0.703570579730     0.721373082408    12.000000000000
         C            0.986103605966     1.426249420270     0.249205082408    12.000000000000
         C            2.021075605966    -0.749418579730    -0.316096917592    12.000000000000
         C           -1.619286394034    -0.099373579730     0.540794082408    12.000000000000
         H            0.260204605966     0.047244420270    -1.088086917592     1.007825032230
         H           -0.240599394034    -1.746452579730     0.397923082408     1.007825032230
         H            0.126882605966    -0.641052579730     1.750165082408     1.007825032230
         H            1.394821605966     1.419731420270     1.259935082408     1.007825032230
         H            1.699333605966     1.874416420270    -0.442168917592     1.007825032230
         H            0.047387605966     1.975151420270     0.213368082408     1.007825032230
         H            2.495404605966    -0.813500579730     0.663349082408     1.007825032230
         H            1.798202605966    -1.746377579730    -0.695096917592     1.007825032230
         H            2.668522605966    -0.219133579730    -1.014078917592     1.007825032230
         H           -2.359374394034    -0.792886579730     0.954914082408     1.007825032230
         H           -1.718555394034     0.859034420270     1.063381082408     1.007825032230
         H           -2.466575394034     0.268453520270    -1.052975017592     1.007825032230

  Basis Set: AUG-CC-PVTZ
    Blend: AUG-CC-PVTZ
  Basis Set: (AUG-CC-PVTZ AUX)
    Blend: AUG-CC-PVTZ-JKFIT
	 Reference Energy          =    -287.6130323017446244 [Eh]
	 Singles Energy            =      -0.0000000000000000 [Eh]
	 Same-Spin Energy          =      -0.2827100890622614 [Eh]
	 Opposite-Spin Energy      =      -0.9940565417900781 [Eh]
	 Correlation Energy        =      -1.2767666308523395 [Eh]
	 Total Energy              =    -288.8897989325969888 [Eh]

	 ================> DF-SCS-MP2 Energies <==================
	-----------------------------------------------------------
	 SCS Same-Spin Scale       =       0.3333333333333333 [-]
	 SCS Opposite-Spin Scale   =       1.2000000000000000 [-]
	 SCS Same-Spin Energy      =      -0.0942366963540871 [Eh]
	 SCS Opposite-Spin Energy  =      -1.1928678501480936 [Eh]
	 SCS Correlation Energy    =      -1.2871045465021806 [Eh]
	 SCS Total Energy          =    -288.9001368482468024 [Eh]
	-----------------------------------------------------------

  Dipole Moment: [D]
     X:     1.6329      Y:     0.2346      Z:     0.8040     Total:     1.8351

*** Psi4 exiting successfully. Buy a developer a beer!
