                               Psi4 1.4a3.dev225

  ==> Input File <==

--------------------------------------------------------------------------
#psi4
#
memory 32 gb

molecule  {
1 1
  O       -1.7781010     0.0481890    -0.8899830
  N        0.7082630     0.0057180    -0.1922720
  C       -0.2685380    -0.7093740     0.7027740
  C        0.9651685     1.4117046     0.2524538
  C        1.9887930    -0.7552220    -0.3346960
  C       -1.6515690    -0.1051770     0.5221950
  H        0.2279220     0.0414410    -1.1066860
  H       -0.2728820    -1.7522560     0.3793240
  H        0.0946000    -0.6468560     1.7315660
  H        1.3625390     1.4139280     1.2413360
  H        1.6670510     1.8686130    -0.4607680
  H        0.0151050     1.9693480     0.1947690
  H        2.4631220    -0.8193040     0.6447500
  H        1.7659200    -1.7521810    -0.7136960
  H        2.6362400    -0.2249370    -1.0326780
  H       -2.3916570    -0.7986900     0.9363150
  H       -1.7508380     0.8532310     1.0447820
  H       -2.6851960     0.3180950    -1.1185210
units angstrom
no_reorient  #important for SAPT in psi4, default
symmetry c1  #important for SAPT in psi4, default
}

set PROPERTIES_ORIGIN ["COM"]
properties('MP2/aug-cc-pvtz', properties = ['dipole'])
--------------------------------------------------------------------------

    Molecular point group: c1
  Charge       = 1
  Multiplicity = 1
  Basis Set: AUG-CC-PVTZ
    Blend: AUG-CC-PVTZ
  Basis Set: (AUG-CC-PVTZ AUX)
    Blend: AUG-CC-PVTZ-JKFIT

    Orbital Energies [Eh]
    ---------------------

    Doubly Occupied:

       1A    -20.733093     2A    -15.856390     3A    -11.456919
       4A    -11.454040     5A    -11.449341     6A    -11.449180
       7A     -1.539568     8A     -1.487231     9A     -1.206581
      10A     -1.165544    11A     -1.093622    12A     -1.025472
      13A     -0.918538    14A     -0.876752    15A     -0.853050
      16A     -0.837762    17A     -0.791415    18A     -0.763417
      19A     -0.746030    20A     -0.739221    21A     -0.720742
      22A     -0.717717    23A     -0.711112    24A     -0.673998
      25A     -0.624197

  @DF-RHF Final Energy:  -287.65849843229040

   => Energetics <=

    Nuclear Repulsion Energy =            278.5182705762933324
    One-Electron Energy =                -932.5716728705358491
    Two-Electron Energy =                 366.3949038619520593
    Total Energy =                       -287.6584984322904006
  Basis Set: (AUG-CC-PVTZ AUX)
    Blend: AUG-CC-PVTZ-RI
    Molecular point group: c1

    Geometry (in Angstrom), charge = 1, multiplicity = 1:

       Center              X                  Y                   Z               Mass
    ------------   -----------------  -----------------  -----------------  -----------------
         O           -1.745245355757     0.054536509670    -0.873768808633    15.994914619570
         N            0.741118644243     0.012065509670    -0.176057808633    14.003074004430
         C           -0.235682355757    -0.703026490330     0.718988191367    12.000000000000
         C            0.998024144243     1.418052109670     0.268667991367    12.000000000000
         C            2.021648644243    -0.748874490330    -0.318481808633    12.000000000000
         C           -1.618713355757    -0.098829490330     0.538409191367    12.000000000000
         H            0.260777644243     0.047788509670    -1.090471808633     1.007825032230
         H           -0.240026355757    -1.745908490330     0.395538191367     1.007825032230
         H            0.127455644243    -0.640508490330     1.747780191367     1.007825032230
         H            1.395394644243     1.420275509670     1.257550191367     1.007825032230
         H            1.699906644243     1.874960509670    -0.444553808633     1.007825032230
         H            0.047960644243     1.975695509670     0.210983191367     1.007825032230
         H            2.495977644243    -0.812956490330     0.660964191367     1.007825032230
         H            1.798775644243    -1.745833490330    -0.697481808633     1.007825032230
         H            2.669095644243    -0.218589490330    -1.016463808633     1.007825032230
         H           -2.358801355757    -0.792342490330     0.952529191367     1.007825032230
         H           -1.717982355757     0.859578509670     1.060996191367     1.007825032230
         H           -2.652340355757     0.324442509670    -1.102306808633     1.007825032230

  Basis Set: AUG-CC-PVTZ
    Blend: AUG-CC-PVTZ
  Basis Set: (AUG-CC-PVTZ AUX)
    Blend: AUG-CC-PVTZ-JKFIT
	 Reference Energy          =    -287.6584984322904006 [Eh]
	 Singles Energy            =      -0.0000000000000000 [Eh]
	 Same-Spin Energy          =      -0.2850448901285360 [Eh]
	 Opposite-Spin Energy      =      -0.9994943824575571 [Eh]
	 Correlation Energy        =      -1.2845392725860929 [Eh]
	 Total Energy              =    -288.9430377048764740 [Eh]

	 ================> DF-SCS-MP2 Energies <==================
	-----------------------------------------------------------
	 SCS Same-Spin Scale       =       0.3333333333333333 [-]
	 SCS Opposite-Spin Scale   =       1.2000000000000000 [-]
	 SCS Same-Spin Energy      =      -0.0950149633761787 [Eh]
	 SCS Opposite-Spin Energy  =      -1.1993932589490683 [Eh]
	 SCS Correlation Energy    =      -1.2944082223252469 [Eh]
	 SCS Total Energy          =    -288.9529066546156741 [Eh]
	-----------------------------------------------------------

  Dipole Moment: [D]
     X:     1.3675      Y:     0.3151      Z:     0.6616     Total:     1.5515

*** Psi4 exiting successfully. Buy a developer a beer!
