                               Psi4 1.4a3.dev225

  ==> Input File <==

--------------------------------------------------------------------------
#psi4
#
memory 32 gb

molecule  {
1 1
  O       -1.7781010     0.0481890    -0.8899830
  N        0.7082630     0.0057180    -0.1922720
  C       -0.2685380    -0.7093740     0.7027740
  C        0.9538210     1.4204460     0.2306060
  C        1.9887930    -0.7552220    -0.3346960
  C       -1.6515690    -0.1051770     0.5221950
  H        0.2279220     0.0414410    -1.1066860
  H       -0.2728820    -1.7522560     0.3793240
  H        0.0946000    -0.6468560     1.7315660
  H        1.3625390     1.4139280     1.2413360
  H        1.6670510     1.8686130    -0.4607680
  H        0.0151050     1.9693480     0.1947690
  H        2.4631220    -0.8193040     0.6447500
  H        1.7659200    -1.7521810    -0.7136960
  H        2.6065340    -0.2492674    -1.0006533
  H       -2.3916570    -0.7986900     0.9363150
  H       -1.7508380     0.8532310     1.0447820
  H       -2.6851960     0.3180950    -1.1185210
units angstrom
no_reorient  #important for SAPT in psi4, default
symmetry c1  #important for SAPT in psi4, default
}

set PROPERTIES_ORIGIN ["COM"]
properties('MP2/aug-cc-pvtz', properties = ['dipole'])
--------------------------------------------------------------------------

    Molecular point group: c1
  Charge       = 1
  Multiplicity = 1
  Basis Set: AUG-CC-PVTZ
    Blend: AUG-CC-PVTZ
  Basis Set: (AUG-CC-PVTZ AUX)
    Blend: AUG-CC-PVTZ-JKFIT

    Orbital Energies [Eh]
    ---------------------

    Doubly Occupied:

       1A    -20.733078     2A    -15.856032     3A    -11.456874
       4A    -11.454051     5A    -11.449231     6A    -11.444205
       7A     -1.539576     8A     -1.487247     9A     -1.207452
      10A     -1.168277    11A     -1.095640    12A     -1.024884
      13A     -0.919891    14A     -0.877070    15A     -0.854127
      16A     -0.840477    17A     -0.791943    18A     -0.759532
      19A     -0.747954    20A     -0.742706    21A     -0.725665
      22A     -0.717360    23A     -0.711842    24A     -0.674756
      25A     -0.624295

  @DF-RHF Final Energy:  -287.65841901192408

   => Energetics <=

    Nuclear Repulsion Energy =            278.7404931256043028
    One-Electron Energy =                -932.9894920317271954
    Two-Electron Energy =                 366.5905798941988110
    Total Energy =                       -287.6584190119240816
  Basis Set: (AUG-CC-PVTZ AUX)
    Blend: AUG-CC-PVTZ-RI
    Molecular point group: c1

    Geometry (in Angstrom), charge = 1, multiplicity = 1:

       Center              X                  Y                   Z               Mass
    ------------   -----------------  -----------------  -----------------  -----------------
         O           -1.743401588774     0.053644353731    -0.871216988395    15.994914619570
         N            0.742962411226     0.011173353731    -0.173505988395    14.003074004430
         C           -0.233838588774    -0.703918646269     0.721540011605    12.000000000000
         C            0.988520411226     1.425901353731     0.249372011605    12.000000000000
         C            2.023492411226    -0.749766646269    -0.315929988395    12.000000000000
         C           -1.616869588774    -0.099721646269     0.540961011605    12.000000000000
         H            0.262621411226     0.046896353731    -1.087919988395     1.007825032230
         H           -0.238182588774    -1.746800646269     0.398090011605     1.007825032230
         H            0.129299411226    -0.641400646269     1.750332011605     1.007825032230
         H            1.397238411226     1.419383353731     1.260102011605     1.007825032230
         H            1.701750411226     1.874068353731    -0.442001988395     1.007825032230
         H            0.049804411226     1.974803353731     0.213535011605     1.007825032230
         H            2.497821411226    -0.813848646269     0.663516011605     1.007825032230
         H            1.800619411226    -1.746725646269    -0.694929988395     1.007825032230
         H            2.641233411226    -0.243812046269    -0.981887288395     1.007825032230
         H           -2.356957588774    -0.793234646269     0.955081011605     1.007825032230
         H           -1.716138588774     0.858686353731     1.063548011605     1.007825032230
         H           -2.650496588774     0.323550353731    -1.099754988395     1.007825032230

  Basis Set: AUG-CC-PVTZ
    Blend: AUG-CC-PVTZ
  Basis Set: (AUG-CC-PVTZ AUX)
    Blend: AUG-CC-PVTZ-JKFIT
	 Reference Energy          =    -287.6584190119240816 [Eh]
	 Singles Energy            =      -0.0000000000000000 [Eh]
	 Same-Spin Energy          =      -0.2849688975300089 [Eh]
	 Opposite-Spin Energy      =      -0.9990803653674754 [Eh]
	 Correlation Energy        =      -1.2840492628974842 [Eh]
	 Total Energy              =    -288.9424682748215787 [Eh]

	 ================> DF-SCS-MP2 Energies <==================
	-----------------------------------------------------------
	 SCS Same-Spin Scale       =       0.3333333333333333 [-]
	 SCS Opposite-Spin Scale   =       1.2000000000000000 [-]
	 SCS Same-Spin Energy      =      -0.0949896325100030 [Eh]
	 SCS Opposite-Spin Energy  =      -1.1988964384409704 [Eh]
	 SCS Correlation Energy    =      -1.2938860709509734 [Eh]
	 SCS Total Energy          =    -288.9523050828750570 [Eh]
	-----------------------------------------------------------

  Dipole Moment: [D]
     X:     1.3693      Y:     0.3086      Z:     0.6640     Total:     1.5528

*** Psi4 exiting successfully. Buy a developer a beer!
