                               Psi4 1.4a3.dev225

  ==> Input File <==

--------------------------------------------------------------------------
#psi4
#
memory 32 gb

molecule  {
1 1
  O       -1.7781010     0.0481890    -0.8899830
  N        0.7082630     0.0057180    -0.1922720
  C       -0.3150875    -0.7928453     0.7488382
  C        0.9538210     1.4204460     0.2306060
  C        1.9887930    -0.7552220    -0.3346960
  C       -1.6515690    -0.1051770     0.5221950
  H        0.2279220     0.0414410    -1.1066860
  H       -0.2728820    -1.7522560     0.3793240
  H        0.0946000    -0.6468560     1.7315660
  H        1.3625390     1.4139280     1.2413360
  H        1.6670510     1.8686130    -0.4607680
  H        0.0151050     1.9693480     0.1947690
  H        2.4631220    -0.8193040     0.6447500
  H        1.7659200    -1.7521810    -0.7136960
  H        2.6362400    -0.2249370    -1.0326780
  H       -2.3916570    -0.7986900     0.9363150
  H       -1.7508380     0.8532310     1.0447820
  H       -2.6851960     0.3180950    -1.1185210
units angstrom
no_reorient  #important for SAPT in psi4, default
symmetry c1  #important for SAPT in psi4, default
}

set PROPERTIES_ORIGIN ["COM"]
properties('MP2/aug-cc-pvtz', properties = ['dipole'])
--------------------------------------------------------------------------

    Molecular point group: c1
  Charge       = 1
  Multiplicity = 1
  Basis Set: AUG-CC-PVTZ
    Blend: AUG-CC-PVTZ
  Basis Set: (AUG-CC-PVTZ AUX)
    Blend: AUG-CC-PVTZ-JKFIT

    Orbital Energies [Eh]
    ---------------------

    Doubly Occupied:

       1A    -20.734931     2A    -15.847835     3A    -11.462366
       4A    -11.456989     5A    -11.445759     6A    -11.445229
       7A     -1.538452     8A     -1.468886     9A     -1.210327
      10A     -1.160491    11A     -1.084904    12A     -1.027365
      13A     -0.914866    14A     -0.874392    15A     -0.854186
      16A     -0.829821    17A     -0.791995    18A     -0.763536
      19A     -0.745025    20A     -0.743162    21A     -0.720363
      22A     -0.718315    23A     -0.714340    24A     -0.667315
      25A     -0.626802

  @DF-RHF Final Energy:  -287.64994615085811

   => Energetics <=

    Nuclear Repulsion Energy =            277.0102445683129417
    One-Electron Energy =                -929.6250785951546050
    Two-Electron Energy =                 364.9648878759835497
    Total Energy =                       -287.6499461508581135
  Basis Set: (AUG-CC-PVTZ AUX)
    Blend: AUG-CC-PVTZ-RI
    Molecular point group: c1

    Geometry (in Angstrom), charge = 1, multiplicity = 1:

       Center              X                  Y                   Z               Mass
    ------------   -----------------  -----------------  -----------------  -----------------
         O           -1.737533629345     0.064490333592    -0.876994368705    15.994914619570
         N            0.748830370655     0.022019333592    -0.179283368705    14.003074004430
         C           -0.274520129345    -0.776543966408     0.761826831295    12.000000000000
         C            0.994388370655     1.436747333592     0.243594631295    12.000000000000
         C            2.029360370655    -0.738920666408    -0.321707368705    12.000000000000
         C           -1.611001629345    -0.088875666408     0.535183631295    12.000000000000
         H            0.268489370655     0.057742333592    -1.093697368705     1.007825032230
         H           -0.232314629345    -1.735954666408     0.392312631295     1.007825032230
         H            0.135167370655    -0.630554666408     1.744554631295     1.007825032230
         H            1.403106370655     1.430229333592     1.254324631295     1.007825032230
         H            1.707618370655     1.884914333592    -0.447779368705     1.007825032230
         H            0.055672370655     1.985649333592     0.207757631295     1.007825032230
         H            2.503689370655    -0.803002666408     0.657738631295     1.007825032230
         H            1.806487370655    -1.735879666408    -0.700707368705     1.007825032230
         H            2.676807370655    -0.208635666408    -1.019689368705     1.007825032230
         H           -2.351089629345    -0.782388666408     0.949303631295     1.007825032230
         H           -1.710270629345     0.869532333592     1.057770631295     1.007825032230
         H           -2.644628629345     0.334396333592    -1.105532368705     1.007825032230

  Basis Set: AUG-CC-PVTZ
    Blend: AUG-CC-PVTZ
  Basis Set: (AUG-CC-PVTZ AUX)
    Blend: AUG-CC-PVTZ-JKFIT
	 Reference Energy          =    -287.6499461508581135 [Eh]
	 Singles Energy            =      -0.0000000000000000 [Eh]
	 Same-Spin Energy          =      -0.2847147507036960 [Eh]
	 Opposite-Spin Energy      =      -0.9999072475800735 [Eh]
	 Correlation Energy        =      -1.2846219982837694 [Eh]
	 Total Energy              =    -288.9345681491419100 [Eh]

	 ================> DF-SCS-MP2 Energies <==================
	-----------------------------------------------------------
	 SCS Same-Spin Scale       =       0.3333333333333333 [-]
	 SCS Opposite-Spin Scale   =       1.2000000000000000 [-]
	 SCS Same-Spin Energy      =      -0.0949049169012320 [Eh]
	 SCS Opposite-Spin Energy  =      -1.1998886970960883 [Eh]
	 SCS Correlation Energy    =      -1.2947936139973202 [Eh]
	 SCS Total Energy          =    -288.9447397648554556 [Eh]
	-----------------------------------------------------------

  Dipole Moment: [D]
     X:     1.2171      Y:     0.2475      Z:     0.7407     Total:     1.4461

*** Psi4 exiting successfully. Buy a developer a beer!
