                               Psi4 1.4a3.dev225

  ==> Input File <==

--------------------------------------------------------------------------
#psi4
#
memory 32 gb

molecule  {
1 1
  O       -1.7781010     0.0481890    -0.8899830
  N        0.6737692     0.1365630    -0.1115060
  C       -0.2685380    -0.7093740     0.7027740
  C        0.9538210     1.4204460     0.2306060
  C        1.9887930    -0.7552220    -0.3346960
  C       -1.6515690    -0.1051770     0.5221950
  H        0.2279220     0.0414410    -1.1066860
  H       -0.2728820    -1.7522560     0.3793240
  H        0.0946000    -0.6468560     1.7315660
  H        1.3625390     1.4139280     1.2413360
  H        1.6670510     1.8686130    -0.4607680
  H        0.0151050     1.9693480     0.1947690
  H        2.4631220    -0.8193040     0.6447500
  H        1.7659200    -1.7521810    -0.7136960
  H        2.6362400    -0.2249370    -1.0326780
  H       -2.3916570    -0.7986900     0.9363150
  H       -1.7508380     0.8532310     1.0447820
  H       -2.6851960     0.3180950    -1.1185210
units angstrom
no_reorient  #important for SAPT in psi4, default
symmetry c1  #important for SAPT in psi4, default
}

set PROPERTIES_ORIGIN ["COM"]
properties('MP2/aug-cc-pvtz', properties = ['dipole'])
--------------------------------------------------------------------------

    Molecular point group: c1
  Charge       = 1
  Multiplicity = 1
  Basis Set: AUG-CC-PVTZ
    Blend: AUG-CC-PVTZ
  Basis Set: (AUG-CC-PVTZ AUX)
    Blend: AUG-CC-PVTZ-JKFIT

    Orbital Energies [Eh]
    ---------------------

    Doubly Occupied:

       1A    -20.732316     2A    -15.856506     3A    -11.459720
       4A    -11.458974     5A    -11.452033     6A    -11.436310
       7A     -1.540176     8A     -1.494579     9A     -1.214636
      10A     -1.168630    11A     -1.085125    12A     -1.017051
      13A     -0.922617    14A     -0.881980    15A     -0.856459
      16A     -0.836251    17A     -0.798626    18A     -0.762043
      19A     -0.753935    20A     -0.740244    21A     -0.725726
      22A     -0.716179    23A     -0.686661    24A     -0.661445
      25A     -0.623940

  @DF-RHF Final Energy:  -287.62869687211020

   => Energetics <=

    Nuclear Repulsion Energy =            279.1667327393153073
    One-Electron Energy =                -933.8265331737267161
    Two-Electron Energy =                 367.0311035623012117
    Total Energy =                       -287.6286968721101971
  Basis Set: (AUG-CC-PVTZ AUX)
    Blend: AUG-CC-PVTZ-RI
    Molecular point group: c1

    Geometry (in Angstrom), charge = 1, multiplicity = 1:

       Center              X                  Y                   Z               Mass
    ------------   -----------------  -----------------  -----------------  -----------------
         O           -1.738372492496     0.033034806915    -0.883412281365    15.994914619570
         N            0.713497707504     0.121408806915    -0.104935281365    14.003074004430
         C           -0.228809492496    -0.724528193085     0.709344718635    12.000000000000
         C            0.993549507504     1.405291806915     0.237176718635    12.000000000000
         C            2.028521507504    -0.770376193085    -0.328125281365    12.000000000000
         C           -1.611840492496    -0.120331193085     0.528765718635    12.000000000000
         H            0.267650507504     0.026286806915    -1.100115281365     1.007825032230
         H           -0.233153492496    -1.767410193085     0.385894718635     1.007825032230
         H            0.134328507504    -0.662010193085     1.738136718635     1.007825032230
         H            1.402267507504     1.398773806915     1.247906718635     1.007825032230
         H            1.706779507504     1.853458806915    -0.454197281365     1.007825032230
         H            0.054833507504     1.954193806915     0.201339718635     1.007825032230
         H            2.502850507504    -0.834458193085     0.651320718635     1.007825032230
         H            1.805648507504    -1.767335193085    -0.707125281365     1.007825032230
         H            2.675968507504    -0.240091193085    -1.026107281365     1.007825032230
         H           -2.351928492496    -0.813844193085     0.942885718635     1.007825032230
         H           -1.711109492496     0.838076806915     1.051352718635     1.007825032230
         H           -2.645467492496     0.302940806915    -1.111950281365     1.007825032230

  Basis Set: AUG-CC-PVTZ
    Blend: AUG-CC-PVTZ
  Basis Set: (AUG-CC-PVTZ AUX)
    Blend: AUG-CC-PVTZ-JKFIT
	 Reference Energy          =    -287.6286968721101971 [Eh]
	 Singles Energy            =      -0.0000000000000000 [Eh]
	 Same-Spin Energy          =      -0.2869140032344295 [Eh]
	 Opposite-Spin Energy      =      -1.0025209746051831 [Eh]
	 Correlation Energy        =      -1.2894349778396126 [Eh]
	 Total Energy              =    -288.9181318499498161 [Eh]

	 ================> DF-SCS-MP2 Energies <==================
	-----------------------------------------------------------
	 SCS Same-Spin Scale       =       0.3333333333333333 [-]
	 SCS Opposite-Spin Scale   =       1.2000000000000000 [-]
	 SCS Same-Spin Energy      =      -0.0956380010781432 [Eh]
	 SCS Opposite-Spin Energy  =      -1.2030251695262197 [Eh]
	 SCS Correlation Energy    =      -1.2986631706043630 [Eh]
	 SCS Total Energy          =    -288.9273600427145539 [Eh]
	-----------------------------------------------------------

  Dipole Moment: [D]
     X:     1.4513      Y:     0.0158      Z:     0.5225     Total:     1.5425

*** Psi4 exiting successfully. Buy a developer a beer!
