                               Psi4 1.4a3.dev225

  ==> Input File <==

--------------------------------------------------------------------------
#psi4
#
memory 32 gb

molecule  {
1 1
  O       -1.7781010     0.0481890    -0.8899830
  N        0.7082630     0.0057180    -0.1922720
  C       -0.2685380    -0.7093740     0.7027740
  C        0.9538210     1.4204460     0.2306060
  C        1.9887930    -0.7552220    -0.3346960
  C       -1.6515690    -0.1051770     0.5221950
  H        0.2279220     0.0414410    -1.1066860
  H       -0.2661879    -1.7574079     0.3964066
  H        0.0946000    -0.6468560     1.7315660
  H        1.3625390     1.4139280     1.2413360
  H        1.6670510     1.8686130    -0.4607680
  H        0.0151050     1.9693480     0.1947690
  H        2.4631220    -0.8193040     0.6447500
  H        1.7659200    -1.7521810    -0.7136960
  H        2.6362400    -0.2249370    -1.0326780
  H       -2.3916570    -0.7986900     0.9363150
  H       -1.7508380     0.8532310     1.0447820
  H       -2.6851960     0.3180950    -1.1185210
units angstrom
no_reorient  #important for SAPT in psi4, default
symmetry c1  #important for SAPT in psi4, default
}

set PROPERTIES_ORIGIN ["COM"]
properties('MP2/aug-cc-pvtz', properties = ['dipole'])
--------------------------------------------------------------------------

    Molecular point group: c1
  Charge       = 1
  Multiplicity = 1
  Basis Set: AUG-CC-PVTZ
    Blend: AUG-CC-PVTZ
  Basis Set: (AUG-CC-PVTZ AUX)
    Blend: AUG-CC-PVTZ-JKFIT

    Orbital Energies [Eh]
    ---------------------

    Doubly Occupied:

       1A    -20.733068     2A    -15.856378     3A    -11.456935
       4A    -11.454241     5A    -11.449566     6A    -11.449159
       7A     -1.539557     8A     -1.487106     9A     -1.206517
      10A     -1.166067    11A     -1.093009    12A     -1.025259
      13A     -0.918828    14A     -0.877444    15A     -0.853385
      16A     -0.837194    17A     -0.791936    18A     -0.757872
      19A     -0.746158    20A     -0.739154    21A     -0.725276
      22A     -0.717667    23A     -0.710924    24A     -0.674236
      25A     -0.624312

  @DF-RHF Final Energy:  -287.65935676937295

   => Energetics <=

    Nuclear Repulsion Energy =            278.4917798707871270
    One-Electron Energy =                -932.5197777062450086
    Two-Electron Energy =                 366.3686410660849333
    Total Energy =                       -287.6593567693729483
  Basis Set: (AUG-CC-PVTZ AUX)
    Blend: AUG-CC-PVTZ-RI
    Molecular point group: c1

    Geometry (in Angstrom), charge = 1, multiplicity = 1:

       Center              X                  Y                   Z               Mass
    ------------   -----------------  -----------------  -----------------  -----------------
         O           -1.743808783388     0.053429810862    -0.871049836584    15.994914619570
         N            0.742555216612     0.010958810862    -0.173338836584    14.003074004430
         C           -0.234245783388    -0.704133189138     0.721707163416    12.000000000000
         C            0.988113216612     1.425686810862     0.249539163416    12.000000000000
         C            2.023085216612    -0.749981189138    -0.315762836584    12.000000000000
         C           -1.617276783388    -0.099936189138     0.541128163416    12.000000000000
         H            0.262214216612     0.046681810862    -1.087752836584     1.007825032230
         H           -0.231895683388    -1.752167089138     0.415339763416     1.007825032230
         H            0.128892216612    -0.641615189138     1.750499163416     1.007825032230
         H            1.396831216612     1.419168810862     1.260269163416     1.007825032230
         H            1.701343216612     1.873853810862    -0.441834836584     1.007825032230
         H            0.049397216612     1.974588810862     0.213702163416     1.007825032230
         H            2.497414216612    -0.814063189138     0.663683163416     1.007825032230
         H            1.800212216612    -1.746940189138    -0.694762836584     1.007825032230
         H            2.670532216612    -0.219696189138    -1.013744836584     1.007825032230
         H           -2.357364783388    -0.793449189138     0.955248163416     1.007825032230
         H           -1.716545783388     0.858471810862     1.063715163416     1.007825032230
         H           -2.650903783388     0.323335810862    -1.099587836584     1.007825032230

  Basis Set: AUG-CC-PVTZ
    Blend: AUG-CC-PVTZ
  Basis Set: (AUG-CC-PVTZ AUX)
    Blend: AUG-CC-PVTZ-JKFIT
	 Reference Energy          =    -287.6593567693729483 [Eh]
	 Singles Energy            =      -0.0000000000000000 [Eh]
	 Same-Spin Energy          =      -0.2850034707650039 [Eh]
	 Opposite-Spin Energy      =      -0.9993892848830308 [Eh]
	 Correlation Energy        =      -1.2843927556480348 [Eh]
	 Total Energy              =    -288.9437495250209622 [Eh]

	 ================> DF-SCS-MP2 Energies <==================
	-----------------------------------------------------------
	 SCS Same-Spin Scale       =       0.3333333333333333 [-]
	 SCS Opposite-Spin Scale   =       1.2000000000000000 [-]
	 SCS Same-Spin Energy      =      -0.0950011569216680 [Eh]
	 SCS Opposite-Spin Energy  =      -1.1992671418596370 [Eh]
	 SCS Correlation Energy    =      -1.2942682987813050 [Eh]
	 SCS Total Energy          =    -288.9536250681542811 [Eh]
	-----------------------------------------------------------

  Dipole Moment: [D]
     X:     1.3731      Y:     0.3053      Z:     0.6667     Total:     1.5566

*** Psi4 exiting successfully. Buy a developer a beer!
