                               Psi4 1.4a3.dev225

  ==> Input File <==

--------------------------------------------------------------------------
#psi4
#
memory 32 gb

molecule  {
1 1
  O       -1.7781010     0.0481890    -0.8899830
  N        0.7082630     0.0057180    -0.1922720
  C       -0.2685380    -0.7093740     0.7027740
  C        0.9538210     1.4204460     0.2306060
  C        1.9887930    -0.7552220    -0.3346960
  C       -1.6515690    -0.1051770     0.5221950
  H        0.2279220     0.0414410    -1.1066860
  H       -0.2728820    -1.7522560     0.3793240
  H        0.0946000    -0.6468560     1.7315660
  H        1.3625390     1.4139280     1.2413360
  H        1.6670510     1.8686130    -0.4607680
  H        0.0151050     1.9693480     0.1947690
  H        2.4631220    -0.8193040     0.6447500
  H        1.7659200    -1.7521810    -0.7136960
  H        2.6362400    -0.2249370    -1.0326780
  H       -2.3916570    -0.7986900     0.9363150
  H       -1.7508380     0.8532310     1.0447820
  H       -2.8715340     0.3735399    -1.1654679
units angstrom
no_reorient  #important for SAPT in psi4, default
symmetry c1  #important for SAPT in psi4, default
}

set PROPERTIES_ORIGIN ["COM"]
properties('MP2/aug-cc-pvtz', properties = ['dipole'])
--------------------------------------------------------------------------

    Molecular point group: c1
  Charge       = 1
  Multiplicity = 1
  Basis Set: AUG-CC-PVTZ
    Blend: AUG-CC-PVTZ
  Basis Set: (AUG-CC-PVTZ AUX)
    Blend: AUG-CC-PVTZ-JKFIT

    Orbital Energies [Eh]
    ---------------------

    Doubly Occupied:

       1A    -20.742734     2A    -15.854788     3A    -11.455182
       4A    -11.450531     5A    -11.448380     6A    -11.447735
       7A     -1.515748     8A     -1.476540     9A     -1.198566
      10A     -1.164678    11A     -1.090087    12A     -1.015075
      13A     -0.913793    14A     -0.866261    15A     -0.836293
      16A     -0.828903    17A     -0.785481    18A     -0.755666
      19A     -0.742472    20A     -0.732088    21A     -0.723145
      22A     -0.713964    23A     -0.708083    24A     -0.660003
      25A     -0.617486

  @DF-RHF Final Energy:  -287.62394228491286

   => Energetics <=

    Nuclear Repulsion Energy =            277.4242141899096623
    One-Electron Energy =                -930.6089515244507311
    Two-Electron Energy =                 365.5607950496282115
    Total Energy =                       -287.6239422849128573
  Basis Set: (AUG-CC-PVTZ AUX)
    Blend: AUG-CC-PVTZ-RI
    Molecular point group: c1

    Geometry (in Angstrom), charge = 1, multiplicity = 1:

       Center              X                  Y                   Z               Mass
    ------------   -----------------  -----------------  -----------------  -----------------
         O           -1.741649403842     0.052751936609    -0.870333561971    15.994914619570
         N            0.744714596158     0.010280936609    -0.172622561971    14.003074004430
         C           -0.232086403842    -0.704811063391     0.722423438029    12.000000000000
         C            0.990272596158     1.425008936609     0.250255438029    12.000000000000
         C            2.025244596158    -0.750659063391    -0.315046561971    12.000000000000
         C           -1.615117403842    -0.100614063391     0.541844438029    12.000000000000
         H            0.264373596158     0.046003936609    -1.087036561971     1.007825032230
         H           -0.236430403842    -1.747693063391     0.398973438029     1.007825032230
         H            0.131051596158    -0.642293063391     1.751215438029     1.007825032230
         H            1.398990596158     1.418490936609     1.260985438029     1.007825032230
         H            1.703502596158     1.873175936609    -0.441118561971     1.007825032230
         H            0.051556596158     1.973910936609     0.214418438029     1.007825032230
         H            2.499573596158    -0.814741063391     0.664399438029     1.007825032230
         H            1.802371596158    -1.747618063391    -0.694046561971     1.007825032230
         H            2.672691596158    -0.220374063391    -1.013028561971     1.007825032230
         H           -2.355205403842    -0.794127063391     0.955964438029     1.007825032230
         H           -1.714386403842     0.857793936609     1.064431438029     1.007825032230
         H           -2.835082403842     0.378102836609    -1.145818461971     1.007825032230

  Basis Set: AUG-CC-PVTZ
    Blend: AUG-CC-PVTZ
  Basis Set: (AUG-CC-PVTZ AUX)
    Blend: AUG-CC-PVTZ-JKFIT
	 Reference Energy          =    -287.6239422849128573 [Eh]
	 Singles Energy            =      -0.0000000000000000 [Eh]
	 Same-Spin Energy          =      -0.2872750455164206 [Eh]
	 Opposite-Spin Energy      =      -1.0058854211823425 [Eh]
	 Correlation Energy        =      -1.2931604666987631 [Eh]
	 Total Energy              =    -288.9171027516115942 [Eh]

	 ================> DF-SCS-MP2 Energies <==================
	-----------------------------------------------------------
	 SCS Same-Spin Scale       =       0.3333333333333333 [-]
	 SCS Opposite-Spin Scale   =       1.2000000000000000 [-]
	 SCS Same-Spin Energy      =      -0.0957583485054735 [Eh]
	 SCS Opposite-Spin Energy  =      -1.2070625054188109 [Eh]
	 SCS Correlation Energy    =      -1.3028208539242845 [Eh]
	 SCS Total Energy          =    -288.9267631388371456 [Eh]
	-----------------------------------------------------------

  Dipole Moment: [D]
     X:     1.1057      Y:     0.3818      Z:     0.5425     Total:     1.2895

*** Psi4 exiting successfully. Buy a developer a beer!
