                               Psi4 1.4a3.dev225

  ==> Input File <==

--------------------------------------------------------------------------
#psi4
#
memory 32 gb

molecule  {
1 1
  O       -1.7781010     0.0481890    -0.8899830
  N        0.7082630     0.0057180    -0.1922720
  C       -0.2685380    -0.7093740     0.7027740
  C        0.9538210     1.4204460     0.2306060
  C        1.9887930    -0.7552220    -0.3346960
  C       -1.6515690    -0.1051770     0.5221950
  H        0.2279220     0.0414410    -1.1066860
  H       -0.2728820    -1.7522560     0.3793240
  H        0.0946000    -0.6468560     1.7315660
  H        1.3625390     1.4139280     1.2413360
  H        1.6670510     1.8686130    -0.4607680
  H        0.0151050     1.9693480     0.1947690
  H        2.4631220    -0.8193040     0.6447500
  H        1.7659200    -1.7521810    -0.7136960
  H        2.6362400    -0.2249370    -1.0326780
  H       -2.3916570    -0.7986900     0.9363150
  H       -1.7508380     0.8532310     1.0447820
  H       -2.6851960     0.3180950    -1.1185210
units angstrom
no_reorient  #important for SAPT in psi4, default
symmetry c1  #important for SAPT in psi4, default
}

set PROPERTIES_ORIGIN ["COM"]
properties('MP2/aug-cc-pvtz', properties = ['dipole'])
--------------------------------------------------------------------------

    Molecular point group: c1
  Charge       = 1
  Multiplicity = 1
  Basis Set: AUG-CC-PVTZ
    Blend: AUG-CC-PVTZ
  Basis Set: (AUG-CC-PVTZ AUX)
    Blend: AUG-CC-PVTZ-JKFIT

    Orbital Energies [Eh]
    ---------------------

    Doubly Occupied:

       1A    -20.733135     2A    -15.856245     3A    -11.457040
       4A    -11.454173     5A    -11.449537     6A    -11.449100
       7A     -1.539629     8A     -1.487109     9A     -1.206652
      10A     -1.166042    11A     -1.093002    12A     -1.024925
      13A     -0.919100    14A     -0.877135    15A     -0.853562
      16A     -0.837280    17A     -0.792020    18A     -0.757691
      19A     -0.746065    20A     -0.739536    21A     -0.725172
      22A     -0.717177    23A     -0.711687    24A     -0.674109
      25A     -0.624358

  @DF-RHF Final Energy:  -287.65937169553501

   => Energetics <=

    Nuclear Repulsion Energy =            278.5129450505629620
    One-Electron Energy =                -932.5616731724385318
    Two-Electron Energy =                 366.3893564263405551
    Total Energy =                       -287.6593716955350146
  Basis Set: (AUG-CC-PVTZ AUX)
    Blend: AUG-CC-PVTZ-RI
    Molecular point group: c1

    Geometry (in Angstrom), charge = 1, multiplicity = 1:

       Center              X                  Y                   Z               Mass
    ------------   -----------------  -----------------  -----------------  -----------------
         O           -1.743733898938     0.053372178439    -0.870858739781    15.994914619570
         N            0.742630101062     0.010901178439    -0.173147739781    14.003074004430
         C           -0.234170898938    -0.704190821561     0.721898260219    12.000000000000
         C            0.988188101062     1.425629178439     0.249730260219    12.000000000000
         C            2.023160101062    -0.750038821561    -0.315571739781    12.000000000000
         C           -1.617201898938    -0.099993821561     0.541319260219    12.000000000000
         H            0.262289101062     0.046624178439    -1.087561739781     1.007825032230
         H           -0.238514898938    -1.747072821561     0.398448260219     1.007825032230
         H            0.128967101062    -0.641672821561     1.750690260219     1.007825032230
         H            1.396906101062     1.419111178439     1.260460260219     1.007825032230
         H            1.701418101062     1.873796178439    -0.441643739781     1.007825032230
         H            0.049472101062     1.974531178439     0.213893260219     1.007825032230
         H            2.497489101062    -0.814120821561     0.663874260219     1.007825032230
         H            1.800287101062    -1.746997821561    -0.694571739781     1.007825032230
         H            2.670607101062    -0.219753821561    -1.013553739781     1.007825032230
         H           -2.357289898938    -0.793506821561     0.955439260219     1.007825032230
         H           -1.716470898938     0.858414178439     1.063906260219     1.007825032230
         H           -2.650828898938     0.323278178439    -1.099396739781     1.007825032230

  Basis Set: AUG-CC-PVTZ
    Blend: AUG-CC-PVTZ
  Basis Set: (AUG-CC-PVTZ AUX)
    Blend: AUG-CC-PVTZ-JKFIT
	 Reference Energy          =    -287.6593716955350146 [Eh]
	 Singles Energy            =      -0.0000000000000000 [Eh]
	 Same-Spin Energy          =      -0.2850151090739159 [Eh]
	 Opposite-Spin Energy      =      -0.9994111210255852 [Eh]
	 Correlation Energy        =      -1.2844262300995011 [Eh]
	 Total Energy              =    -288.9437979256344988 [Eh]

	 ================> DF-SCS-MP2 Energies <==================
	-----------------------------------------------------------
	 SCS Same-Spin Scale       =       0.3333333333333333 [-]
	 SCS Opposite-Spin Scale   =       1.2000000000000000 [-]
	 SCS Same-Spin Energy      =      -0.0950050363579720 [Eh]
	 SCS Opposite-Spin Energy  =      -1.1992933452307022 [Eh]
	 SCS Correlation Energy    =      -1.2942983815886742 [Eh]
	 SCS Total Energy          =    -288.9536700771236610 [Eh]
	-----------------------------------------------------------

  Dipole Moment: [D]
     X:     1.3689      Y:     0.3085      Z:     0.6623     Total:     1.5517

*** Psi4 exiting successfully. Buy a developer a beer!
