                               Psi4 1.4a3.dev225

  ==> Input File <==

--------------------------------------------------------------------------
#psi4
#
memory 32 gb

molecule  {
1 1
  O       -1.7781010     0.0481890    -0.8899830
  N        0.7082630     0.0057180    -0.1922720
  C       -0.2685380    -0.7093740     0.7027740
  C        0.9538210     1.4204460     0.2306060
  C        1.9887930    -0.7552220    -0.3346960
  C       -1.6515690    -0.1051770     0.5221950
  H        0.2279220     0.0414410    -1.1066860
  H       -0.2728820    -1.7522560     0.3793240
  H        0.0946000    -0.6468560     1.7315660
  H        1.3625390     1.4139280     1.2413360
  H        1.6670510     1.8686130    -0.4607680
  H        0.0151050     1.9693480     0.1947690
  H        2.4631220    -0.8193040     0.6447500
  H        1.7700109    -1.7338816    -0.7067394
  H        2.6362400    -0.2249370    -1.0326780
  H       -2.3916570    -0.7986900     0.9363150
  H       -1.7508380     0.8532310     1.0447820
  H       -2.6851960     0.3180950    -1.1185210
units angstrom
no_reorient  #important for SAPT in psi4, default
symmetry c1  #important for SAPT in psi4, default
}

set PROPERTIES_ORIGIN ["COM"]
properties('MP2/aug-cc-pvtz', properties = ['dipole'])
--------------------------------------------------------------------------

    Molecular point group: c1
  Charge       = 1
  Multiplicity = 1
  Basis Set: AUG-CC-PVTZ
    Blend: AUG-CC-PVTZ
  Basis Set: (AUG-CC-PVTZ AUX)
    Blend: AUG-CC-PVTZ-JKFIT

    Orbital Energies [Eh]
    ---------------------

    Doubly Occupied:

       1A    -20.733149     2A    -15.856150     3A    -11.457093
       4A    -11.454199     5A    -11.449020     6A    -11.447422
       7A     -1.539646     8A     -1.487153     9A     -1.206816
      10A     -1.167233    11A     -1.093666    12A     -1.024945
      13A     -0.919738    14A     -0.877207    15A     -0.854209
      16A     -0.837701    17A     -0.792117    18A     -0.757746
      19A     -0.746721    20A     -0.740293    21A     -0.726781
      22A     -0.717154    23A     -0.712043    24A     -0.674112
      25A     -0.624375

  @DF-RHF Final Energy:  -287.65942551279790

   => Energetics <=

    Nuclear Repulsion Energy =            278.5995908751571051
    One-Electron Energy =                -932.7246498267891184
    Two-Electron Energy =                 366.4656334388341179
    Total Energy =                       -287.6594255127978954
  Basis Set: (AUG-CC-PVTZ AUX)
    Blend: AUG-CC-PVTZ-RI
    Molecular point group: c1

    Geometry (in Angstrom), charge = 1, multiplicity = 1:

       Center              X                  Y                   Z               Mass
    ------------   -----------------  -----------------  -----------------  -----------------
         O           -1.743779662341     0.053167469740    -0.870936560723    15.994914619570
         N            0.742584337659     0.010696469740    -0.173225560723    14.003074004430
         C           -0.234216662341    -0.704395530260     0.721820439277    12.000000000000
         C            0.988142337659     1.425424469740     0.249652439277    12.000000000000
         C            2.023114337659    -0.750243530260    -0.315649560723    12.000000000000
         C           -1.617247662341    -0.100198530260     0.541241439277    12.000000000000
         H            0.262243337659     0.046419469740    -1.087639560723     1.007825032230
         H           -0.238560662341    -1.747277530260     0.398370439277     1.007825032230
         H            0.128921337659    -0.641877530260     1.750612439277     1.007825032230
         H            1.396860337659     1.418906469740     1.260382439277     1.007825032230
         H            1.701372337659     1.873591469740    -0.441721560723     1.007825032230
         H            0.049426337659     1.974326469740     0.213815439277     1.007825032230
         H            2.497443337659    -0.814325530260     0.663796439277     1.007825032230
         H            1.804332237659    -1.728903130260    -0.687692960723     1.007825032230
         H            2.670561337659    -0.219958530260    -1.013631560723     1.007825032230
         H           -2.357335662341    -0.793711530260     0.955361439277     1.007825032230
         H           -1.716516662341     0.858209469740     1.063828439277     1.007825032230
         H           -2.650874662341     0.323073469740    -1.099474560723     1.007825032230

  Basis Set: AUG-CC-PVTZ
    Blend: AUG-CC-PVTZ
  Basis Set: (AUG-CC-PVTZ AUX)
    Blend: AUG-CC-PVTZ-JKFIT
	 Reference Energy          =    -287.6594255127978954 [Eh]
	 Singles Energy            =      -0.0000000000000000 [Eh]
	 Same-Spin Energy          =      -0.2849940084094228 [Eh]
	 Opposite-Spin Energy      =      -0.9992689522618369 [Eh]
	 Correlation Energy        =      -1.2842629606712597 [Eh]
	 Total Energy              =    -288.9436884734691375 [Eh]

	 ================> DF-SCS-MP2 Energies <==================
	-----------------------------------------------------------
	 SCS Same-Spin Scale       =       0.3333333333333333 [-]
	 SCS Opposite-Spin Scale   =       1.2000000000000000 [-]
	 SCS Same-Spin Energy      =      -0.0949980028031409 [Eh]
	 SCS Opposite-Spin Energy  =      -1.1991227427142042 [Eh]
	 SCS Correlation Energy    =      -1.2941207455173451 [Eh]
	 SCS Total Energy          =    -288.9535462583152139 [Eh]
	-----------------------------------------------------------

  Dipole Moment: [D]
     X:     1.3684      Y:     0.3089      Z:     0.6630     Total:     1.5516

*** Psi4 exiting successfully. Buy a developer a beer!
