                               Psi4 1.4a3.dev225

  ==> Input File <==

--------------------------------------------------------------------------
#psi4
#
memory 32 gb

molecule  {
1 1
  O       -1.7781010     0.0481890    -0.8899830
  N        0.7082630     0.0057180    -0.1922720
  C       -0.2685380    -0.7093740     0.7027740
  C        0.9538210     1.4204460     0.2306060
  C        1.9887930    -0.7552220    -0.3346960
  C       -1.6515690    -0.1051770     0.5221950
  H        0.2279220     0.0414410    -1.1066860
  H       -0.2728820    -1.7522560     0.3793240
  H        0.0946000    -0.6468560     1.7315660
  H        1.3940722     1.4305217     1.2279752
  H        1.6670510     1.8686130    -0.4607680
  H        0.0151050     1.9693480     0.1947690
  H        2.4631220    -0.8193040     0.6447500
  H        1.7659200    -1.7521810    -0.7136960
  H        2.6362400    -0.2249370    -1.0326780
  H       -2.3916570    -0.7986900     0.9363150
  H       -1.7508380     0.8532310     1.0447820
  H       -2.6851960     0.3180950    -1.1185210
units angstrom
no_reorient  #important for SAPT in psi4, default
symmetry c1  #important for SAPT in psi4, default
}

set PROPERTIES_ORIGIN ["COM"]
properties('MP2/aug-cc-pvtz', properties = ['dipole'])
--------------------------------------------------------------------------

    Molecular point group: c1
  Charge       = 1
  Multiplicity = 1
  Basis Set: AUG-CC-PVTZ
    Blend: AUG-CC-PVTZ
  Basis Set: (AUG-CC-PVTZ AUX)
    Blend: AUG-CC-PVTZ-JKFIT

    Orbital Energies [Eh]
    ---------------------

    Doubly Occupied:

       1A    -20.733143     2A    -15.856556     3A    -11.456963
       4A    -11.454119     5A    -11.449615     6A    -11.448906
       7A     -1.539638     8A     -1.487119     9A     -1.206668
      10A     -1.165894    11A     -1.093208    12A     -1.024801
      13A     -0.919139    14A     -0.876962    15A     -0.853898
      16A     -0.837480    17A     -0.792199    18A     -0.756848
      19A     -0.746687    20A     -0.739756    21A     -0.724840
      22A     -0.716713    23A     -0.711559    24A     -0.674037
      25A     -0.624338

  @DF-RHF Final Energy:  -287.65925074697748

   => Energetics <=

    Nuclear Repulsion Energy =            278.4718944766746631
    One-Electron Energy =                -932.4801159077228476
    Two-Electron Energy =                 366.3489706840707640
    Total Energy =                       -287.6592507469774773
  Basis Set: (AUG-CC-PVTZ AUX)
    Blend: AUG-CC-PVTZ-RI
    Molecular point group: c1

    Geometry (in Angstrom), charge = 1, multiplicity = 1:

       Center              X                  Y                   Z               Mass
    ------------   -----------------  -----------------  -----------------  -----------------
         O           -1.744086649321     0.053186550783    -0.870709277395    15.994914619570
         N            0.742277350679     0.010715550783    -0.172998277395    14.003074004430
         C           -0.234523649321    -0.704376449217     0.722047722605    12.000000000000
         C            0.987835350679     1.425443550783     0.249879722605    12.000000000000
         C            2.022807350679    -0.750224449217    -0.315422277395    12.000000000000
         C           -1.617554649321    -0.100179449217     0.541468722605    12.000000000000
         H            0.261936350679     0.046438550783    -1.087412277395     1.007825032230
         H           -0.238867649321    -1.747258449217     0.398597722605     1.007825032230
         H            0.128614350679    -0.641858449217     1.750839722605     1.007825032230
         H            1.428086550679     1.435519250783     1.247248922605     1.007825032230
         H            1.701065350679     1.873610550783    -0.441494277395     1.007825032230
         H            0.049119350679     1.974345550783     0.214042722605     1.007825032230
         H            2.497136350679    -0.814306449217     0.664023722605     1.007825032230
         H            1.799934350679    -1.747183449217    -0.694422277395     1.007825032230
         H            2.670254350679    -0.219939449217    -1.013404277395     1.007825032230
         H           -2.357642649321    -0.793692449217     0.955588722605     1.007825032230
         H           -1.716823649321     0.858228550783     1.064055722605     1.007825032230
         H           -2.651181649321     0.323092550783    -1.099247277395     1.007825032230

  Basis Set: AUG-CC-PVTZ
    Blend: AUG-CC-PVTZ
  Basis Set: (AUG-CC-PVTZ AUX)
    Blend: AUG-CC-PVTZ-JKFIT
	 Reference Energy          =    -287.6592507469774773 [Eh]
	 Singles Energy            =      -0.0000000000000000 [Eh]
	 Same-Spin Energy          =      -0.2850051863532265 [Eh]
	 Opposite-Spin Energy      =      -0.9993858803481648 [Eh]
	 Correlation Energy        =      -1.2843910667013914 [Eh]
	 Total Energy              =    -288.9436418136788802 [Eh]

	 ================> DF-SCS-MP2 Energies <==================
	-----------------------------------------------------------
	 SCS Same-Spin Scale       =       0.3333333333333333 [-]
	 SCS Opposite-Spin Scale   =       1.2000000000000000 [-]
	 SCS Same-Spin Energy      =      -0.0950017287844088 [Eh]
	 SCS Opposite-Spin Energy  =      -1.1992630564177977 [Eh]
	 SCS Correlation Energy    =      -1.2942647852022064 [Eh]
	 SCS Total Energy          =    -288.9535155321796651 [Eh]
	-----------------------------------------------------------

  Dipole Moment: [D]
     X:     1.3840      Y:     0.3105      Z:     0.6633     Total:     1.5658

*** Psi4 exiting successfully. Buy a developer a beer!
