                               Psi4 1.4a3.dev225

  ==> Input File <==

--------------------------------------------------------------------------
#psi4
#
memory 32 gb

molecule  {
1 1
  O       -1.7781010     0.0481890    -0.8899830
  N        0.7336195     0.0005060    -0.1887526
  C       -0.2685380    -0.7093740     0.7027740
  C        0.9538210     1.4204460     0.2306060
  C        1.9887930    -0.7552220    -0.3346960
  C       -1.6515690    -0.1051770     0.5221950
  H        0.2279220     0.0414410    -1.1066860
  H       -0.2728820    -1.7522560     0.3793240
  H        0.0946000    -0.6468560     1.7315660
  H        1.3625390     1.4139280     1.2413360
  H        1.6670510     1.8686130    -0.4607680
  H        0.0151050     1.9693480     0.1947690
  H        2.4631220    -0.8193040     0.6447500
  H        1.7659200    -1.7521810    -0.7136960
  H        2.6362400    -0.2249370    -1.0326780
  H       -2.3916570    -0.7986900     0.9363150
  H       -1.7508380     0.8532310     1.0447820
  H       -2.6851960     0.3180950    -1.1185210
units angstrom
no_reorient  #important for SAPT in psi4, default
symmetry c1  #important for SAPT in psi4, default
}

set PROPERTIES_ORIGIN ["COM"]
properties('MP2/aug-cc-pvtz', properties = ['dipole'])
--------------------------------------------------------------------------

    Molecular point group: c1
  Charge       = 1
  Multiplicity = 1
  Basis Set: AUG-CC-PVTZ
    Blend: AUG-CC-PVTZ
  Basis Set: (AUG-CC-PVTZ AUX)
    Blend: AUG-CC-PVTZ-JKFIT

    Orbital Energies [Eh]
    ---------------------

    Doubly Occupied:

       1A    -20.733872     2A    -15.856953     3A    -11.458238
       4A    -11.455279     5A    -11.449177     6A    -11.447314
       7A     -1.539728     8A     -1.488171     9A     -1.207240
      10A     -1.168468    11A     -1.090612    12A     -1.023303
      13A     -0.919759    14A     -0.876321    15A     -0.855111
      16A     -0.838857    17A     -0.793714    18A     -0.757623
      19A     -0.744740    20A     -0.738062    21A     -0.727099
      22A     -0.714774    23A     -0.710926    24A     -0.675082
      25A     -0.624989

  @DF-RHF Final Energy:  -287.65819531619280

   => Energetics <=

    Nuclear Repulsion Energy =            278.4112443214732480
    One-Electron Energy =                -932.3480503021654613
    Two-Electron Energy =                 366.2786106644994675
    Total Energy =                       -287.6581953161928027
  Basis Set: (AUG-CC-PVTZ AUX)
    Blend: AUG-CC-PVTZ-RI
    Molecular point group: c1

    Geometry (in Angstrom), charge = 1, multiplicity = 1:

       Center              X                  Y                   Z               Mass
    ------------   -----------------  -----------------  -----------------  -----------------
         O           -1.747675085541     0.054182284904    -0.871405763705    15.994914619570
         N            0.764045414459     0.006499284904    -0.170175363705    14.003074004430
         C           -0.238112085541    -0.703380715096     0.721351236295    12.000000000000
         C            0.984246914459     1.426439284904     0.249183236295    12.000000000000
         C            2.019218914459    -0.749228715096    -0.316118763705    12.000000000000
         C           -1.621143085541    -0.099183715096     0.540772236295    12.000000000000
         H            0.258347914459     0.047434284904    -1.088108763705     1.007825032230
         H           -0.242456085541    -1.746262715096     0.397901236295     1.007825032230
         H            0.125025914459    -0.640862715096     1.750143236295     1.007825032230
         H            1.392964914459     1.419921284904     1.259913236295     1.007825032230
         H            1.697476914459     1.874606284904    -0.442190763705     1.007825032230
         H            0.045530914459     1.975341284904     0.213346236295     1.007825032230
         H            2.493547914459    -0.813310715096     0.663327236295     1.007825032230
         H            1.796345914459    -1.746187715096    -0.695118763705     1.007825032230
         H            2.666665914459    -0.218943715096    -1.014100763705     1.007825032230
         H           -2.361231085541    -0.792696715096     0.954892236295     1.007825032230
         H           -1.720412085541     0.859224284904     1.063359236295     1.007825032230
         H           -2.654770085541     0.324088284904    -1.099943763705     1.007825032230

  Basis Set: AUG-CC-PVTZ
    Blend: AUG-CC-PVTZ
  Basis Set: (AUG-CC-PVTZ AUX)
    Blend: AUG-CC-PVTZ-JKFIT
	 Reference Energy          =    -287.6581953161928027 [Eh]
	 Singles Energy            =      -0.0000000000000000 [Eh]
	 Same-Spin Energy          =      -0.2852096351719616 [Eh]
	 Opposite-Spin Energy      =      -0.9996578040905333 [Eh]
	 Correlation Energy        =      -1.2848674392624948 [Eh]
	 Total Energy              =    -288.9430627554552871 [Eh]

	 ================> DF-SCS-MP2 Energies <==================
	-----------------------------------------------------------
	 SCS Same-Spin Scale       =       0.3333333333333333 [-]
	 SCS Opposite-Spin Scale   =       1.2000000000000000 [-]
	 SCS Same-Spin Energy      =      -0.0950698783906539 [Eh]
	 SCS Opposite-Spin Energy  =      -1.1995893649086400 [Eh]
	 SCS Correlation Energy    =      -1.2946592432992938 [Eh]
	 SCS Total Energy          =    -288.9528545594920956 [Eh]
	-----------------------------------------------------------

  Dipole Moment: [D]
     X:     1.2969      Y:     0.3202      Z:     0.6576     Total:     1.4889

*** Psi4 exiting successfully. Buy a developer a beer!
