                               Psi4 1.4a3.dev225

  ==> Input File <==

--------------------------------------------------------------------------
#psi4
#
memory 32 gb

molecule  {
1 1
  O       -1.7781010     0.0481890    -0.8899830
  N        0.7082630     0.0057180    -0.1922720
  C       -0.2685380    -0.7093740     0.7027740
  C        0.9538210     1.4204460     0.2306060
  C        2.0059084    -0.7653926    -0.3365996
  C       -1.6515690    -0.1051770     0.5221950
  H        0.2279220     0.0414410    -1.1066860
  H       -0.2728820    -1.7522560     0.3793240
  H        0.0946000    -0.6468560     1.7315660
  H        1.3625390     1.4139280     1.2413360
  H        1.6670510     1.8686130    -0.4607680
  H        0.0151050     1.9693480     0.1947690
  H        2.4631220    -0.8193040     0.6447500
  H        1.7659200    -1.7521810    -0.7136960
  H        2.6362400    -0.2249370    -1.0326780
  H       -2.3916570    -0.7986900     0.9363150
  H       -1.7508380     0.8532310     1.0447820
  H       -2.6851960     0.3180950    -1.1185210
units angstrom
no_reorient  #important for SAPT in psi4, default
symmetry c1  #important for SAPT in psi4, default
}

set PROPERTIES_ORIGIN ["COM"]
properties('MP2/aug-cc-pvtz', properties = ['dipole'])
--------------------------------------------------------------------------

    Molecular point group: c1
  Charge       = 1
  Multiplicity = 1
  Basis Set: AUG-CC-PVTZ
    Blend: AUG-CC-PVTZ
  Basis Set: (AUG-CC-PVTZ AUX)
    Blend: AUG-CC-PVTZ-JKFIT

    Orbital Energies [Eh]
    ---------------------

    Doubly Occupied:

       1A    -20.732705     2A    -15.855061     3A    -11.456446
       4A    -11.453722     5A    -11.450291     6A    -11.448490
       7A     -1.538850     8A     -1.483162     9A     -1.205570
      10A     -1.165315    11A     -1.093604    12A     -1.023818
      13A     -0.917371    14A     -0.876111    15A     -0.852030
      16A     -0.836041    17A     -0.790475    18A     -0.758678
      19A     -0.748085    20A     -0.741458    21A     -0.725547
      22A     -0.716058    23A     -0.711748    24A     -0.673627
      25A     -0.623912

  @DF-RHF Final Energy:  -287.65904607422499

   => Energetics <=

    Nuclear Repulsion Energy =            278.1622761132977075
    One-Electron Energy =                -931.8862889788734947
    Two-Electron Energy =                 366.0649667913507983
    Total Energy =                       -287.6590460742249888
  Basis Set: (AUG-CC-PVTZ AUX)
    Blend: AUG-CC-PVTZ-RI
    Molecular point group: c1

    Geometry (in Angstrom), charge = 1, multiplicity = 1:

       Center              X                  Y                   Z               Mass
    ------------   -----------------  -----------------  -----------------  -----------------
         O           -1.746013624697     0.054726875309    -0.870605185324    15.994914619570
         N            0.740350375303     0.012255875309    -0.172894185324    14.003074004430
         C           -0.236450624697    -0.702836124691     0.722151814676    12.000000000000
         C            0.985908375303     1.426983875309     0.249983814676    12.000000000000
         C            2.037995775303    -0.758854724691    -0.317221785324    12.000000000000
         C           -1.619481624697    -0.098639124691     0.541572814676    12.000000000000
         H            0.260009375303     0.047978875309    -1.087308185324     1.007825032230
         H           -0.240794624697    -1.745718124691     0.398701814676     1.007825032230
         H            0.126687375303    -0.640318124691     1.750943814676     1.007825032230
         H            1.394626375303     1.420465875309     1.260713814676     1.007825032230
         H            1.699138375303     1.875150875309    -0.441390185324     1.007825032230
         H            0.047192375303     1.975885875309     0.214146814676     1.007825032230
         H            2.495209375303    -0.812766124691     0.664127814676     1.007825032230
         H            1.798007375303    -1.745643124691    -0.694318185324     1.007825032230
         H            2.668327375303    -0.218399124691    -1.013300185324     1.007825032230
         H           -2.359569624697    -0.792152124691     0.955692814676     1.007825032230
         H           -1.718750624697     0.859768875309     1.064159814676     1.007825032230
         H           -2.653108624697     0.324632875309    -1.099143185324     1.007825032230

  Basis Set: AUG-CC-PVTZ
    Blend: AUG-CC-PVTZ
  Basis Set: (AUG-CC-PVTZ AUX)
    Blend: AUG-CC-PVTZ-JKFIT
	 Reference Energy          =    -287.6590460742249888 [Eh]
	 Singles Energy            =      -0.0000000000000000 [Eh]
	 Same-Spin Energy          =      -0.2848931938512047 [Eh]
	 Opposite-Spin Energy      =      -0.9994540928377116 [Eh]
	 Correlation Energy        =      -1.2843472866889163 [Eh]
	 Total Energy              =    -288.9433933609138876 [Eh]

	 ================> DF-SCS-MP2 Energies <==================
	-----------------------------------------------------------
	 SCS Same-Spin Scale       =       0.3333333333333333 [-]
	 SCS Opposite-Spin Scale   =       1.2000000000000000 [-]
	 SCS Same-Spin Energy      =      -0.0949643979504015 [Eh]
	 SCS Opposite-Spin Energy  =      -1.1993449114052539 [Eh]
	 SCS Correlation Energy    =      -1.2943093093556555 [Eh]
	 SCS Total Energy          =    -288.9533553835806288 [Eh]
	-----------------------------------------------------------

  Dipole Moment: [D]
     X:     1.3977      Y:     0.2929      Z:     0.6562     Total:     1.5716

*** Psi4 exiting successfully. Buy a developer a beer!
