                               Psi4 1.4a3.dev225

  ==> Input File <==

--------------------------------------------------------------------------
#psi4
#
memory 32 gb

molecule  {
1 1
  O       -1.7781010     0.0481890    -0.8899830
  N        0.7082630     0.0057180    -0.1922720
  C       -0.2579453    -0.6880300     0.6911116
  C        0.9538210     1.4204460     0.2306060
  C        1.9887930    -0.7552220    -0.3346960
  C       -1.6515690    -0.1051770     0.5221950
  H        0.2279220     0.0414410    -1.1066860
  H       -0.2728820    -1.7522560     0.3793240
  H        0.0946000    -0.6468560     1.7315660
  H        1.3625390     1.4139280     1.2413360
  H        1.6670510     1.8686130    -0.4607680
  H        0.0151050     1.9693480     0.1947690
  H        2.4631220    -0.8193040     0.6447500
  H        1.7659200    -1.7521810    -0.7136960
  H        2.6362400    -0.2249370    -1.0326780
  H       -2.3916570    -0.7986900     0.9363150
  H       -1.7508380     0.8532310     1.0447820
  H       -2.6851960     0.3180950    -1.1185210
units angstrom
no_reorient  #important for SAPT in psi4, default
symmetry c1  #important for SAPT in psi4, default
}

set PROPERTIES_ORIGIN ["COM"]
properties('MP2/aug-cc-pvtz', properties = ['dipole'])
--------------------------------------------------------------------------

    Molecular point group: c1
  Charge       = 1
  Multiplicity = 1
  Basis Set: AUG-CC-PVTZ
    Blend: AUG-CC-PVTZ
  Basis Set: (AUG-CC-PVTZ AUX)
    Blend: AUG-CC-PVTZ-JKFIT

    Orbital Energies [Eh]
    ---------------------

    Doubly Occupied:

       1A    -20.732775     2A    -15.857858     3A    -11.456337
       4A    -11.453773     5A    -11.450533     6A    -11.449820
       7A     -1.540380     8A     -1.491827     9A     -1.206159
      10A     -1.167338    11A     -1.095091    12A     -1.024888
      13A     -0.920262    14A     -0.877909    15A     -0.853741
      16A     -0.839261    17A     -0.792112    18A     -0.757636
      19A     -0.746393    20A     -0.741064    21A     -0.725760
      22A     -0.716523    23A     -0.707342    24A     -0.674694
      25A     -0.623457

  @DF-RHF Final Energy:  -287.65862982347153

   => Energetics <=

    Nuclear Repulsion Energy =            278.8995585974923870
    One-Electron Energy =                -933.3105066509132257
    Two-Electron Energy =                 366.7523182299493101
    Total Energy =                       -287.6586298234715287
  Basis Set: (AUG-CC-PVTZ AUX)
    Blend: AUG-CC-PVTZ-RI
    Molecular point group: c1

    Geometry (in Angstrom), charge = 1, multiplicity = 1:

       Center              X                  Y                   Z               Mass
    ------------   -----------------  -----------------  -----------------  -----------------
         O           -1.745144818405     0.050529214408    -0.869305339120    15.994914619570
         N            0.741219181595     0.008058214408    -0.171594339120    14.003074004430
         C           -0.224989118405    -0.685689785592     0.711789260880    12.000000000000
         C            0.986777181595     1.422786214408     0.251283660880    12.000000000000
         C            2.021749181595    -0.752881785592    -0.314018339120    12.000000000000
         C           -1.618612818405    -0.102836785592     0.542872660880    12.000000000000
         H            0.260878181595     0.043781214408    -1.086008339120     1.007825032230
         H           -0.239925818405    -1.749915785592     0.400001660880     1.007825032230
         H            0.127556181595    -0.644515785592     1.752243660880     1.007825032230
         H            1.395495181595     1.416268214408     1.262013660880     1.007825032230
         H            1.700007181595     1.870953214408    -0.440090339120     1.007825032230
         H            0.048061181595     1.971688214408     0.215446660880     1.007825032230
         H            2.496078181595    -0.816963785592     0.665427660880     1.007825032230
         H            1.798876181595    -1.749840785592    -0.693018339120     1.007825032230
         H            2.669196181595    -0.222596785592    -1.012000339120     1.007825032230
         H           -2.358700818405    -0.796349785592     0.956992660880     1.007825032230
         H           -1.717881818405     0.855571214408     1.065459660880     1.007825032230
         H           -2.652239818405     0.320435214408    -1.097843339120     1.007825032230

  Basis Set: AUG-CC-PVTZ
    Blend: AUG-CC-PVTZ
  Basis Set: (AUG-CC-PVTZ AUX)
    Blend: AUG-CC-PVTZ-JKFIT
	 Reference Energy          =    -287.6586298234715287 [Eh]
	 Singles Energy            =      -0.0000000000000000 [Eh]
	 Same-Spin Energy          =      -0.2851892981089246 [Eh]
	 Opposite-Spin Energy      =      -0.9994736595187760 [Eh]
	 Correlation Energy        =      -1.2846629576277007 [Eh]
	 Total Energy              =    -288.9432927810992169 [Eh]

	 ================> DF-SCS-MP2 Energies <==================
	-----------------------------------------------------------
	 SCS Same-Spin Scale       =       0.3333333333333333 [-]
	 SCS Opposite-Spin Scale   =       1.2000000000000000 [-]
	 SCS Same-Spin Energy      =      -0.0950630993696415 [Eh]
	 SCS Opposite-Spin Energy  =      -1.1993683914225310 [Eh]
	 SCS Correlation Energy    =      -1.2944314907921726 [Eh]
	 SCS Total Energy          =    -288.9530613142637208 [Eh]
	-----------------------------------------------------------

  Dipole Moment: [D]
     X:     1.4010      Y:     0.3219      Z:     0.6453     Total:     1.5757

*** Psi4 exiting successfully. Buy a developer a beer!
