                               Psi4 1.4a3.dev225

  ==> Input File <==

--------------------------------------------------------------------------
#psi4
#
memory 32 gb

molecule  {
1 1
  O       -1.7781010     0.0481890    -0.8899830
  N        0.7082630     0.0057180    -0.1922720
  C       -0.2685380    -0.7093740     0.7027740
  C        0.9538210     1.4204460     0.2306060
  C        1.9887930    -0.7552220    -0.3346960
  C       -1.6515690    -0.1051770     0.5221950
  H        0.2279220     0.0414410    -1.1066860
  H       -0.2594945    -1.7622406     0.4135825
  H        0.0946000    -0.6468560     1.7315660
  H        1.3625390     1.4139280     1.2413360
  H        1.6670510     1.8686130    -0.4607680
  H        0.0151050     1.9693480     0.1947690
  H        2.4631220    -0.8193040     0.6447500
  H        1.7659200    -1.7521810    -0.7136960
  H        2.6362400    -0.2249370    -1.0326780
  H       -2.3916570    -0.7986900     0.9363150
  H       -1.7508380     0.8532310     1.0447820
  H       -2.6851960     0.3180950    -1.1185210
units angstrom
no_reorient  #important for SAPT in psi4, default
symmetry c1  #important for SAPT in psi4, default
}

set PROPERTIES_ORIGIN ["COM"]
properties('MP2/aug-cc-pvtz', properties = ['dipole'])
--------------------------------------------------------------------------

    Molecular point group: c1
  Charge       = 1
  Multiplicity = 1
  Basis Set: AUG-CC-PVTZ
    Blend: AUG-CC-PVTZ
  Basis Set: (AUG-CC-PVTZ AUX)
    Blend: AUG-CC-PVTZ-JKFIT

    Orbital Energies [Eh]
    ---------------------

    Doubly Occupied:

       1A    -20.733003     2A    -15.856512     3A    -11.456830
       4A    -11.454313     5A    -11.449595     6A    -11.449214
       7A     -1.539489     8A     -1.487106     9A     -1.206389
      10A     -1.166090    11A     -1.093018    12A     -1.025599
      13A     -0.918563    14A     -0.877756    15A     -0.853214
      16A     -0.837108    17A     -0.791860    18A     -0.758059
      19A     -0.746261    20A     -0.738797    21A     -0.725385
      22A     -0.718160    23A     -0.710066    24A     -0.674357
      25A     -0.624263

  @DF-RHF Final Energy:  -287.65926741025100

   => Energetics <=

    Nuclear Repulsion Energy =            278.4711219466278180
    One-Electron Energy =                -932.4787613376217905
    Two-Electron Energy =                 366.3483719807429679
    Total Energy =                       -287.6592674102510045
  Basis Set: (AUG-CC-PVTZ AUX)
    Blend: AUG-CC-PVTZ-RI
    Molecular point group: c1

    Geometry (in Angstrom), charge = 1, multiplicity = 1:

       Center              X                  Y                   Z               Mass
    ------------   -----------------  -----------------  -----------------  -----------------
         O           -1.743883660007     0.053483872510    -0.871241977099    15.994914619570
         N            0.742480339993     0.011012872510    -0.173530977099    14.003074004430
         C           -0.234320660007    -0.704079127490     0.721515022901    12.000000000000
         C            0.988038339993     1.425740872510     0.249347022901    12.000000000000
         C            2.023010339993    -0.749927127490    -0.315954977099    12.000000000000
         C           -1.617351660007    -0.099882127490     0.540936022901    12.000000000000
         H            0.262139339993     0.046735872510    -1.087944977099     1.007825032230
         H           -0.225277160007    -1.756945727490     0.432323522901     1.007825032230
         H            0.128817339993    -0.641561127490     1.750307022901     1.007825032230
         H            1.396756339993     1.419222872510     1.260077022901     1.007825032230
         H            1.701268339993     1.873907872510    -0.442026977099     1.007825032230
         H            0.049322339993     1.974642872510     0.213510022901     1.007825032230
         H            2.497339339993    -0.814009127490     0.663491022901     1.007825032230
         H            1.800137339993    -1.746886127490    -0.694954977099     1.007825032230
         H            2.670457339993    -0.219642127490    -1.013936977099     1.007825032230
         H           -2.357439660007    -0.793395127490     0.955056022901     1.007825032230
         H           -1.716620660007     0.858525872510     1.063523022901     1.007825032230
         H           -2.650978660007     0.323389872510    -1.099779977099     1.007825032230

  Basis Set: AUG-CC-PVTZ
    Blend: AUG-CC-PVTZ
  Basis Set: (AUG-CC-PVTZ AUX)
    Blend: AUG-CC-PVTZ-JKFIT
	 Reference Energy          =    -287.6592674102510045 [Eh]
	 Singles Energy            =      -0.0000000000000000 [Eh]
	 Same-Spin Energy          =      -0.2849953881642746 [Eh]
	 Opposite-Spin Energy      =      -0.9993730338732635 [Eh]
	 Correlation Energy        =      -1.2843684220375380 [Eh]
	 Total Energy              =    -288.9436358322885212 [Eh]

	 ================> DF-SCS-MP2 Energies <==================
	-----------------------------------------------------------
	 SCS Same-Spin Scale       =       0.3333333333333333 [-]
	 SCS Opposite-Spin Scale   =       1.2000000000000000 [-]
	 SCS Same-Spin Energy      =      -0.0949984627214249 [Eh]
	 SCS Opposite-Spin Energy  =      -1.1992476406479162 [Eh]
	 SCS Correlation Energy    =      -1.2942461033693411 [Eh]
	 SCS Total Energy          =    -288.9535135136203507 [Eh]
	-----------------------------------------------------------

  Dipole Moment: [D]
     X:     1.3773      Y:     0.3022      Z:     0.6712     Total:     1.5616

*** Psi4 exiting successfully. Buy a developer a beer!
