                               Psi4 1.4a3.dev225

  ==> Input File <==

--------------------------------------------------------------------------
#psi4
#
memory 32 gb

molecule  {
1 1
  O       -1.7781010     0.0481890    -0.8899830
  N        0.7082630     0.0057180    -0.1922720
  C       -0.2685380    -0.7093740     0.7027740
  C        1.0206641     1.3616314     0.3595289
  C        1.9887930    -0.7552220    -0.3346960
  C       -1.6515690    -0.1051770     0.5221950
  H        0.2279220     0.0414410    -1.1066860
  H       -0.2728820    -1.7522560     0.3793240
  H        0.0946000    -0.6468560     1.7315660
  H        1.3625390     1.4139280     1.2413360
  H        1.6670510     1.8686130    -0.4607680
  H        0.0151050     1.9693480     0.1947690
  H        2.4631220    -0.8193040     0.6447500
  H        1.7659200    -1.7521810    -0.7136960
  H        2.6362400    -0.2249370    -1.0326780
  H       -2.3916570    -0.7986900     0.9363150
  H       -1.7508380     0.8532310     1.0447820
  H       -2.6851960     0.3180950    -1.1185210
units angstrom
no_reorient  #important for SAPT in psi4, default
symmetry c1  #important for SAPT in psi4, default
}

set PROPERTIES_ORIGIN ["COM"]
properties('MP2/aug-cc-pvtz', properties = ['dipole'])
--------------------------------------------------------------------------

    Molecular point group: c1
  Charge       = 1
  Multiplicity = 1
  Basis Set: AUG-CC-PVTZ
    Blend: AUG-CC-PVTZ
  Basis Set: (AUG-CC-PVTZ AUX)
    Blend: AUG-CC-PVTZ-JKFIT

    Orbital Energies [Eh]
    ---------------------

    Doubly Occupied:

       1A    -20.733194     2A    -15.858532     3A    -11.456705
       4A    -11.453587     5A    -11.452410     6A    -11.448835
       7A     -1.539661     8A     -1.488759     9A     -1.206732
      10A     -1.165474    11A     -1.099120    12A     -1.028938
      13A     -0.917510    14A     -0.875598    15A     -0.857053
      16A     -0.846328    17A     -0.793232    18A     -0.781376
      19A     -0.746398    20A     -0.739067    21A     -0.721973
      22A     -0.705152    23A     -0.689630    24A     -0.670969
      25A     -0.623561

  @DF-RHF Final Energy:  -287.62557610102954

   => Energetics <=

    Nuclear Repulsion Energy =            278.6007502840678853
    One-Electron Energy =                -932.6530629431322268
    Two-Electron Energy =                 366.4267365580348041
    Total Energy =                       -287.6255761010295373
  Basis Set: (AUG-CC-PVTZ AUX)
    Blend: AUG-CC-PVTZ-RI
    Molecular point group: c1

    Geometry (in Angstrom), charge = 1, multiplicity = 1:

       Center              X                  Y                   Z               Mass
    ------------   -----------------  -----------------  -----------------  -----------------
         O           -1.752637222076     0.061206126731    -0.888030927167    15.994914619570
         N            0.733726777924     0.018735126731    -0.190319927167    14.003074004430
         C           -0.243074222076    -0.696356873269     0.704726072833    12.000000000000
         C            1.046127877924     1.374648526731     0.361480972833    12.000000000000
         C            2.014256777924    -0.742204873269    -0.332743927167    12.000000000000
         C           -1.626105222076    -0.092159873269     0.524147072833    12.000000000000
         H            0.253385777924     0.054458126731    -1.104733927167     1.007825032230
         H           -0.247418222076    -1.739238873269     0.381276072833     1.007825032230
         H            0.120063777924    -0.633838873269     1.733518072833     1.007825032230
         H            1.388002777924     1.426945126731     1.243288072833     1.007825032230
         H            1.692514777924     1.881630126731    -0.458815927167     1.007825032230
         H            0.040568777924     1.982365126731     0.196721072833     1.007825032230
         H            2.488585777924    -0.806286873269     0.646702072833     1.007825032230
         H            1.791383777924    -1.739163873269    -0.711743927167     1.007825032230
         H            2.661703777924    -0.211919873269    -1.030725927167     1.007825032230
         H           -2.366193222076    -0.785672873269     0.938267072833     1.007825032230
         H           -1.725374222076     0.866248126731     1.046734072833     1.007825032230
         H           -2.659732222076     0.331112126731    -1.116568927167     1.007825032230

  Basis Set: AUG-CC-PVTZ
    Blend: AUG-CC-PVTZ
  Basis Set: (AUG-CC-PVTZ AUX)
    Blend: AUG-CC-PVTZ-JKFIT
	 Reference Energy          =    -287.6255761010295373 [Eh]
	 Singles Energy            =      -0.0000000000000000 [Eh]
	 Same-Spin Energy          =      -0.2856518283580316 [Eh]
	 Opposite-Spin Energy      =      -1.0011926074863828 [Eh]
	 Correlation Energy        =      -1.2868444358444144 [Eh]
	 Total Energy              =    -288.9124205368739240 [Eh]

	 ================> DF-SCS-MP2 Energies <==================
	-----------------------------------------------------------
	 SCS Same-Spin Scale       =       0.3333333333333333 [-]
	 SCS Opposite-Spin Scale   =       1.2000000000000000 [-]
	 SCS Same-Spin Energy      =      -0.0952172761193439 [Eh]
	 SCS Opposite-Spin Energy  =      -1.2014311289836594 [Eh]
	 SCS Correlation Energy    =      -1.2966484051030034 [Eh]
	 SCS Total Energy          =    -288.9222245061325225 [Eh]
	-----------------------------------------------------------

  Dipole Moment: [D]
     X:     1.3468      Y:     0.3215      Z:     0.6309     Total:     1.5216

*** Psi4 exiting successfully. Buy a developer a beer!
