                               Psi4 1.4a3.dev225

  ==> Input File <==

--------------------------------------------------------------------------
#psi4
#
memory 32 gb

molecule  {
1 1
  O       -1.7781010     0.0481890    -0.8899830
  N        0.7180757     0.0108858    -0.1412331
  C       -0.2685380    -0.7093740     0.7027740
  C        0.9538210     1.4204460     0.2306060
  C        1.9887930    -0.7552220    -0.3346960
  C       -1.6515690    -0.1051770     0.5221950
  H        0.2279220     0.0414410    -1.1066860
  H       -0.2728820    -1.7522560     0.3793240
  H        0.0946000    -0.6468560     1.7315660
  H        1.3625390     1.4139280     1.2413360
  H        1.6670510     1.8686130    -0.4607680
  H        0.0151050     1.9693480     0.1947690
  H        2.4631220    -0.8193040     0.6447500
  H        1.7659200    -1.7521810    -0.7136960
  H        2.6362400    -0.2249370    -1.0326780
  H       -2.3916570    -0.7986900     0.9363150
  H       -1.7508380     0.8532310     1.0447820
  H       -2.6851960     0.3180950    -1.1185210
units angstrom
no_reorient  #important for SAPT in psi4, default
symmetry c1  #important for SAPT in psi4, default
}

set PROPERTIES_ORIGIN ["COM"]
properties('MP2/aug-cc-pvtz', properties = ['dipole'])
--------------------------------------------------------------------------

    Molecular point group: c1
  Charge       = 1
  Multiplicity = 1
  Basis Set: AUG-CC-PVTZ
    Blend: AUG-CC-PVTZ
  Basis Set: (AUG-CC-PVTZ AUX)
    Blend: AUG-CC-PVTZ-JKFIT

    Orbital Energies [Eh]
    ---------------------

    Doubly Occupied:

       1A    -20.733600     2A    -15.858746     3A    -11.455846
       4A    -11.454449     5A    -11.450055     6A    -11.447783
       7A     -1.539984     8A     -1.489651     9A     -1.209057
      10A     -1.169423    11A     -1.088867    12A     -1.020602
      13A     -0.920898    14A     -0.877272    15A     -0.854691
      16A     -0.838832    17A     -0.792864    18A     -0.756494
      19A     -0.745521    20A     -0.740934    21A     -0.726342
      22A     -0.719031    23A     -0.703008    24A     -0.674753
      25A     -0.624825

  @DF-RHF Final Energy:  -287.65465572446664

   => Energetics <=

    Nuclear Repulsion Energy =            278.7568906779854956
    One-Electron Energy =                -933.0360420160767490
    Two-Electron Energy =                 366.6244956136245605
    Total Energy =                       -287.6546557244666360
  Basis Set: (AUG-CC-PVTZ AUX)
    Blend: AUG-CC-PVTZ-RI
    Molecular point group: c1

    Geometry (in Angstrom), charge = 1, multiplicity = 1:

       Center              X                  Y                   Z               Mass
    ------------   -----------------  -----------------  -----------------  -----------------
         O           -1.745259096887     0.052568942026    -0.878791767956    15.994914619570
         N            0.750917603113     0.015265742026    -0.130041867956    14.003074004430
         C           -0.235696096887    -0.704994057974     0.713965232044    12.000000000000
         C            0.986662903113     1.424825942026     0.241797232044    12.000000000000
         C            2.021634903113    -0.750842057974    -0.323504767956    12.000000000000
         C           -1.618727096887    -0.100797057974     0.533386232044    12.000000000000
         H            0.260763903113     0.045820942026    -1.095494767956     1.007825032230
         H           -0.240040096887    -1.747876057974     0.390515232044     1.007825032230
         H            0.127441903113    -0.642476057974     1.742757232044     1.007825032230
         H            1.395380903113     1.418307942026     1.252527232044     1.007825032230
         H            1.699892903113     1.872992942026    -0.449576767956     1.007825032230
         H            0.047946903113     1.973727942026     0.205960232044     1.007825032230
         H            2.495963903113    -0.814924057974     0.655941232044     1.007825032230
         H            1.798761903113    -1.747801057974    -0.702504767956     1.007825032230
         H            2.669081903113    -0.220557057974    -1.021486767956     1.007825032230
         H           -2.358815096887    -0.794310057974     0.947506232044     1.007825032230
         H           -1.717996096887     0.857610942026     1.055973232044     1.007825032230
         H           -2.652354096887     0.322474942026    -1.107329767956     1.007825032230

  Basis Set: AUG-CC-PVTZ
    Blend: AUG-CC-PVTZ
  Basis Set: (AUG-CC-PVTZ AUX)
    Blend: AUG-CC-PVTZ-JKFIT
	 Reference Energy          =    -287.6546557244666360 [Eh]
	 Singles Energy            =      -0.0000000000000000 [Eh]
	 Same-Spin Energy          =      -0.2856894407968112 [Eh]
	 Opposite-Spin Energy      =      -1.0003062950609154 [Eh]
	 Correlation Energy        =      -1.2859957358577265 [Eh]
	 Total Energy              =    -288.9406514603243750 [Eh]

	 ================> DF-SCS-MP2 Energies <==================
	-----------------------------------------------------------
	 SCS Same-Spin Scale       =       0.3333333333333333 [-]
	 SCS Opposite-Spin Scale   =       1.2000000000000000 [-]
	 SCS Same-Spin Energy      =      -0.0952298135989371 [Eh]
	 SCS Opposite-Spin Energy  =      -1.2003675540730985 [Eh]
	 SCS Correlation Energy    =      -1.2955973676720356 [Eh]
	 SCS Total Energy          =    -288.9502530921386665 [Eh]
	-----------------------------------------------------------

  Dipole Moment: [D]
     X:     1.3404      Y:     0.2965      Z:     0.5699     Total:     1.4864

*** Psi4 exiting successfully. Buy a developer a beer!
