                               Psi4 1.4a3.dev225

  ==> Input File <==

--------------------------------------------------------------------------
#psi4
#
memory 32 gb

molecule  {
1 1
  O       -1.7781010     0.0481890    -0.8899830
  N        0.7082630     0.0057180    -0.1922720
  C       -0.2685380    -0.7093740     0.7027740
  C        0.9538210     1.4204460     0.2306060
  C        1.9887930    -0.7552220    -0.3346960
  C       -1.6515690    -0.1051770     0.5221950
  H        0.2279220     0.0414410    -1.1066860
  H       -0.2728820    -1.7522560     0.3793240
  H        0.0946000    -0.6468560     1.7315660
  H        1.3625390     1.4139280     1.2413360
  H        1.6670510     1.8686130    -0.4607680
  H        0.0151050     1.9693480     0.1947690
  H        2.4544198    -0.8181283     0.6267809
  H        1.7659200    -1.7521810    -0.7136960
  H        2.6362400    -0.2249370    -1.0326780
  H       -2.3916570    -0.7986900     0.9363150
  H       -1.7508380     0.8532310     1.0447820
  H       -2.6851960     0.3180950    -1.1185210
units angstrom
no_reorient  #important for SAPT in psi4, default
symmetry c1  #important for SAPT in psi4, default
}

set PROPERTIES_ORIGIN ["COM"]
properties('MP2/aug-cc-pvtz', properties = ['dipole'])
--------------------------------------------------------------------------

    Molecular point group: c1
  Charge       = 1
  Multiplicity = 1
  Basis Set: AUG-CC-PVTZ
    Blend: AUG-CC-PVTZ
  Basis Set: (AUG-CC-PVTZ AUX)
    Blend: AUG-CC-PVTZ-JKFIT

    Orbital Energies [Eh]
    ---------------------

    Doubly Occupied:

       1A    -20.733127     2A    -15.856115     3A    -11.457057
       4A    -11.454184     5A    -11.449122     6A    -11.447388
       7A     -1.539622     8A     -1.487146     9A     -1.206849
      10A     -1.166950    11A     -1.094131    12A     -1.025032
      13A     -0.919085    14A     -0.877717    15A     -0.853591
      16A     -0.837329    17A     -0.792634    18A     -0.759004
      19A     -0.747906    20A     -0.739494    21A     -0.725251
      22A     -0.717521    23A     -0.711781    24A     -0.674202
      25A     -0.624360

  @DF-RHF Final Energy:  -287.65941239884705

   => Energetics <=

    Nuclear Repulsion Energy =            278.6000983752800266
    One-Electron Energy =                -932.7258314572445670
    Two-Electron Energy =                 366.4663206831174875
    Total Energy =                       -287.6594123988470528
  Basis Set: (AUG-CC-PVTZ AUX)
    Blend: AUG-CC-PVTZ-RI
    Molecular point group: c1

    Geometry (in Angstrom), charge = 1, multiplicity = 1:

       Center              X                  Y                   Z               Mass
    ------------   -----------------  -----------------  -----------------  -----------------
         O           -1.743636550608     0.053359026313    -0.870657726028    15.994914619570
         N            0.742727449392     0.010888026313    -0.172946726028    14.003074004430
         C           -0.234073550608    -0.704203973687     0.722099273972    12.000000000000
         C            0.988285449392     1.425616026313     0.249931273972    12.000000000000
         C            2.023257449392    -0.750051973687    -0.315370726028    12.000000000000
         C           -1.617104550608    -0.100006973687     0.541520273972    12.000000000000
         H            0.262386449392     0.046611026313    -1.087360726028     1.007825032230
         H           -0.238417550608    -1.747085973687     0.398649273972     1.007825032230
         H            0.129064449392    -0.641685973687     1.750891273972     1.007825032230
         H            1.397003449392     1.419098026313     1.260661273972     1.007825032230
         H            1.701515449392     1.873783026313    -0.441442726028     1.007825032230
         H            0.049569449392     1.974518026313     0.214094273972     1.007825032230
         H            2.488884249392    -0.812958273687     0.646106173972     1.007825032230
         H            1.800384449392    -1.747010973687    -0.694370726028     1.007825032230
         H            2.670704449392    -0.219766973687    -1.013352726028     1.007825032230
         H           -2.357192550608    -0.793519973687     0.955640273972     1.007825032230
         H           -1.716373550608     0.858401026313     1.064107273972     1.007825032230
         H           -2.650731550608     0.323265026313    -1.099195726028     1.007825032230

  Basis Set: AUG-CC-PVTZ
    Blend: AUG-CC-PVTZ
  Basis Set: (AUG-CC-PVTZ AUX)
    Blend: AUG-CC-PVTZ-JKFIT
	 Reference Energy          =    -287.6594123988470528 [Eh]
	 Singles Energy            =      -0.0000000000000000 [Eh]
	 Same-Spin Energy          =      -0.2849967599210863 [Eh]
	 Opposite-Spin Energy      =      -0.9992793771186992 [Eh]
	 Correlation Energy        =      -1.2842761370397855 [Eh]
	 Total Energy              =    -288.9436885358868494 [Eh]

	 ================> DF-SCS-MP2 Energies <==================
	-----------------------------------------------------------
	 SCS Same-Spin Scale       =       0.3333333333333333 [-]
	 SCS Opposite-Spin Scale   =       1.2000000000000000 [-]
	 SCS Same-Spin Energy      =      -0.0949989199736954 [Eh]
	 SCS Opposite-Spin Energy  =      -1.1991352525424390 [Eh]
	 SCS Correlation Energy    =      -1.2941341725161344 [Eh]
	 SCS Total Energy          =    -288.9535465713631766 [Eh]
	-----------------------------------------------------------

  Dipole Moment: [D]
     X:     1.3680      Y:     0.3090      Z:     0.6621     Total:     1.5509

*** Psi4 exiting successfully. Buy a developer a beer!
