                               Psi4 1.4a3.dev225

  ==> Input File <==

--------------------------------------------------------------------------
#psi4
#
memory 32 gb

molecule  {
1 1
  O       -1.7781010     0.0481890    -0.8899830
  N        0.7082630     0.0057180    -0.1922720
  C       -0.2685380    -0.7093740     0.7027740
  C        0.9538210     1.4204460     0.2306060
  C        1.9887930    -0.7552220    -0.3346960
  C       -1.6515690    -0.1051770     0.5221950
  H        0.2279220     0.0414410    -1.1066860
  H       -0.2728820    -1.7522560     0.3793240
  H        0.0946000    -0.6468560     1.7315660
  H        1.3625390     1.4139280     1.2413360
  H        1.6799212     1.8555632    -0.4556886
  H        0.0151050     1.9693480     0.1947690
  H        2.4631220    -0.8193040     0.6447500
  H        1.7659200    -1.7521810    -0.7136960
  H        2.6362400    -0.2249370    -1.0326780
  H       -2.3916570    -0.7986900     0.9363150
  H       -1.7508380     0.8532310     1.0447820
  H       -2.6851960     0.3180950    -1.1185210
units angstrom
no_reorient  #important for SAPT in psi4, default
symmetry c1  #important for SAPT in psi4, default
}

set PROPERTIES_ORIGIN ["COM"]
properties('MP2/aug-cc-pvtz', properties = ['dipole'])
--------------------------------------------------------------------------

    Molecular point group: c1
  Charge       = 1
  Multiplicity = 1
  Basis Set: AUG-CC-PVTZ
    Blend: AUG-CC-PVTZ
  Basis Set: (AUG-CC-PVTZ AUX)
    Blend: AUG-CC-PVTZ-JKFIT

    Orbital Energies [Eh]
    ---------------------

    Doubly Occupied:

       1A    -20.733151     2A    -15.856115     3A    -11.456973
       4A    -11.454206     5A    -11.449599     6A    -11.449190
       7A     -1.539645     8A     -1.487126     9A     -1.206703
      10A     -1.166027    11A     -1.093099    12A     -1.024917
      13A     -0.918766    14A     -0.877179    15A     -0.853838
      16A     -0.837251    17A     -0.792143    18A     -0.757137
      19A     -0.746306    20A     -0.739771    21A     -0.726109
      22A     -0.716782    23A     -0.711407    24A     -0.674154
      25A     -0.624375

  @DF-RHF Final Energy:  -287.65932776470635

   => Energetics <=

    Nuclear Repulsion Energy =            278.5259644404592336
    One-Electron Energy =                -932.5866435635742846
    Two-Electron Energy =                 366.4013513584087036
    Total Energy =                       -287.6593277647063474
  Basis Set: (AUG-CC-PVTZ AUX)
    Blend: AUG-CC-PVTZ-RI
    Molecular point group: c1

    Geometry (in Angstrom), charge = 1, multiplicity = 1:

       Center              X                  Y                   Z               Mass
    ------------   -----------------  -----------------  -----------------  -----------------
         O           -1.743877873161     0.053518161782    -0.870915561173    15.994914619570
         N            0.742486126839     0.011047161782    -0.173204561173    14.003074004430
         C           -0.234314873161    -0.704044838218     0.721841438827    12.000000000000
         C            0.988044126839     1.425775161782     0.249673438827    12.000000000000
         C            2.023016126839    -0.749892838218    -0.315628561173    12.000000000000
         C           -1.617345873161    -0.099847838218     0.541262438827    12.000000000000
         H            0.262145126839     0.046770161782    -1.087618561173     1.007825032230
         H           -0.238658873161    -1.746926838218     0.398391438827     1.007825032230
         H            0.128823126839    -0.641526838218     1.750633438827     1.007825032230
         H            1.396762126839     1.419257161782     1.260403438827     1.007825032230
         H            1.714144326839     1.860892361782    -0.436621161173     1.007825032230
         H            0.049328126839     1.974677161782     0.213836438827     1.007825032230
         H            2.497345126839    -0.813974838218     0.663817438827     1.007825032230
         H            1.800143126839    -1.746851838218    -0.694628561173     1.007825032230
         H            2.670463126839    -0.219607838218    -1.013610561173     1.007825032230
         H           -2.357433873161    -0.793360838218     0.955382438827     1.007825032230
         H           -1.716614873161     0.858560161782     1.063849438827     1.007825032230
         H           -2.650972873161     0.323424161782    -1.099453561173     1.007825032230

  Basis Set: AUG-CC-PVTZ
    Blend: AUG-CC-PVTZ
  Basis Set: (AUG-CC-PVTZ AUX)
    Blend: AUG-CC-PVTZ-JKFIT
	 Reference Energy          =    -287.6593277647063474 [Eh]
	 Singles Energy            =      -0.0000000000000000 [Eh]
	 Same-Spin Energy          =      -0.2850229847080053 [Eh]
	 Opposite-Spin Energy      =      -0.9994270531802634 [Eh]
	 Correlation Energy        =      -1.2844500378882686 [Eh]
	 Total Energy              =    -288.9437778025946386 [Eh]

	 ================> DF-SCS-MP2 Energies <==================
	-----------------------------------------------------------
	 SCS Same-Spin Scale       =       0.3333333333333333 [-]
	 SCS Opposite-Spin Scale   =       1.2000000000000000 [-]
	 SCS Same-Spin Energy      =      -0.0950076615693351 [Eh]
	 SCS Opposite-Spin Energy  =      -1.1993124638163160 [Eh]
	 SCS Correlation Energy    =      -1.2943201253856511 [Eh]
	 SCS Total Energy          =    -288.9536478900919860 [Eh]
	-----------------------------------------------------------

  Dipole Moment: [D]
     X:     1.3730      Y:     0.3029      Z:     0.6668     Total:     1.5561

*** Psi4 exiting successfully. Buy a developer a beer!
