                               Psi4 1.4a3.dev225

  ==> Input File <==

--------------------------------------------------------------------------
#psi4
#
memory 32 gb

molecule  {
1 1
  O       -1.7781010     0.0481890    -0.8899830
  N        0.7082630     0.0057180    -0.1922720
  C       -0.3334191    -0.7568719     0.7622248
  C        0.9538210     1.4204460     0.2306060
  C        1.9887930    -0.7552220    -0.3346960
  C       -1.6515690    -0.1051770     0.5221950
  H        0.2279220     0.0414410    -1.1066860
  H       -0.2728820    -1.7522560     0.3793240
  H        0.0946000    -0.6468560     1.7315660
  H        1.3625390     1.4139280     1.2413360
  H        1.6670510     1.8686130    -0.4607680
  H        0.0151050     1.9693480     0.1947690
  H        2.4631220    -0.8193040     0.6447500
  H        1.7659200    -1.7521810    -0.7136960
  H        2.6362400    -0.2249370    -1.0326780
  H       -2.3916570    -0.7986900     0.9363150
  H       -1.7508380     0.8532310     1.0447820
  H       -2.6851960     0.3180950    -1.1185210
units angstrom
no_reorient  #important for SAPT in psi4, default
symmetry c1  #important for SAPT in psi4, default
}

set PROPERTIES_ORIGIN ["COM"]
properties('MP2/aug-cc-pvtz', properties = ['dipole'])
--------------------------------------------------------------------------

    Molecular point group: c1
  Charge       = 1
  Multiplicity = 1
  Basis Set: AUG-CC-PVTZ
    Blend: AUG-CC-PVTZ
  Basis Set: (AUG-CC-PVTZ AUX)
    Blend: AUG-CC-PVTZ-JKFIT

    Orbital Energies [Eh]
    ---------------------

    Doubly Occupied:

       1A    -20.735705     2A    -15.847630     3A    -11.463545
       4A    -11.455840     5A    -11.445613     6A    -11.445119
       7A     -1.539574     8A     -1.468539     9A     -1.214953
      10A     -1.160017    11A     -1.085738    12A     -1.025798
      13A     -0.913460    14A     -0.874043    15A     -0.854677
      16A     -0.829723    17A     -0.793264    18A     -0.760861
      19A     -0.747354    20A     -0.741048    21A     -0.722188
      22A     -0.719929    23A     -0.710297    24A     -0.670941
      25A     -0.626619

  @DF-RHF Final Energy:  -287.65175507493649

   => Energetics <=

    Nuclear Repulsion Energy =            277.2540705627314992
    One-Electron Energy =                -930.1066995788726217
    Two-Electron Energy =                 365.2008739412046339
    Total Energy =                       -287.6517550749364887
  Basis Set: (AUG-CC-PVTZ AUX)
    Blend: AUG-CC-PVTZ-RI
    Molecular point group: c1

    Geometry (in Angstrom), charge = 1, multiplicity = 1:

       Center              X                  Y                   Z               Mass
    ------------   -----------------  -----------------  -----------------  -----------------
         O           -1.735091908982     0.059698772390    -0.878777428221    15.994914619570
         N            0.751272091018     0.017227772390    -0.181066428221    14.003074004430
         C           -0.290410008982    -0.745362127610     0.773430371779    12.000000000000
         C            0.996830091018     1.431955772390     0.241811571779    12.000000000000
         C            2.031802091018    -0.743712227610    -0.323490428221    12.000000000000
         C           -1.608559908982    -0.093667227610     0.533400571779    12.000000000000
         H            0.270931091018     0.052950772390    -1.095480428221     1.007825032230
         H           -0.229872908982    -1.740746227610     0.390529571779     1.007825032230
         H            0.137609091018    -0.635346227610     1.742771571779     1.007825032230
         H            1.405548091018     1.425437772390     1.252541571779     1.007825032230
         H            1.710060091018     1.880122772390    -0.449562428221     1.007825032230
         H            0.058114091018     1.980857772390     0.205974571779     1.007825032230
         H            2.506131091018    -0.807794227610     0.655955571779     1.007825032230
         H            1.808929091018    -1.740671227610    -0.702490428221     1.007825032230
         H            2.679249091018    -0.213427227610    -1.021472428221     1.007825032230
         H           -2.348647908982    -0.787180227610     0.947520571779     1.007825032230
         H           -1.707828908982     0.864740772390     1.055987571779     1.007825032230
         H           -2.642186908982     0.329604772390    -1.107315428221     1.007825032230

  Basis Set: AUG-CC-PVTZ
    Blend: AUG-CC-PVTZ
  Basis Set: (AUG-CC-PVTZ AUX)
    Blend: AUG-CC-PVTZ-JKFIT
	 Reference Energy          =    -287.6517550749364887 [Eh]
	 Singles Energy            =      -0.0000000000000000 [Eh]
	 Same-Spin Energy          =      -0.2849294312032069 [Eh]
	 Opposite-Spin Energy      =      -1.0000350640582276 [Eh]
	 Correlation Energy        =      -1.2849644952614345 [Eh]
	 Total Energy              =    -288.9367195701979085 [Eh]

	 ================> DF-SCS-MP2 Energies <==================
	-----------------------------------------------------------
	 SCS Same-Spin Scale       =       0.3333333333333333 [-]
	 SCS Opposite-Spin Scale   =       1.2000000000000000 [-]
	 SCS Same-Spin Energy      =      -0.0949764770677356 [Eh]
	 SCS Opposite-Spin Energy  =      -1.2000420768698732 [Eh]
	 SCS Correlation Energy    =      -1.2950185539376089 [Eh]
	 SCS Total Energy          =    -288.9467736288740980 [Eh]
	-----------------------------------------------------------

  Dipole Moment: [D]
     X:     1.2161      Y:     0.2311      Z:     0.7423     Total:     1.4434

*** Psi4 exiting successfully. Buy a developer a beer!
