                               Psi4 1.4a3.dev225

  ==> Input File <==

--------------------------------------------------------------------------
#psi4
#
memory 32 gb

molecule  {
1 1
  O       -1.7781010     0.0481890    -0.8899830
  N        0.7082630     0.0057180    -0.1922720
  C       -0.2685380    -0.7093740     0.7027740
  C        0.9280580     1.4247675     0.2303018
  C        1.9887930    -0.7552220    -0.3346960
  C       -1.6515690    -0.1051770     0.5221950
  H        0.2279220     0.0414410    -1.1066860
  H       -0.2728820    -1.7522560     0.3793240
  H        0.0946000    -0.6468560     1.7315660
  H        1.3625390     1.4139280     1.2413360
  H        1.6670510     1.8686130    -0.4607680
  H        0.0151050     1.9693480     0.1947690
  H        2.4631220    -0.8193040     0.6447500
  H        1.7659200    -1.7521810    -0.7136960
  H        2.6362400    -0.2249370    -1.0326780
  H       -2.3916570    -0.7986900     0.9363150
  H       -1.7508380     0.8532310     1.0447820
  H       -2.6851960     0.3180950    -1.1185210
units angstrom
no_reorient  #important for SAPT in psi4, default
symmetry c1  #important for SAPT in psi4, default
}

set PROPERTIES_ORIGIN ["COM"]
properties('MP2/aug-cc-pvtz', properties = ['dipole'])
--------------------------------------------------------------------------

    Molecular point group: c1
  Charge       = 1
  Multiplicity = 1
  Basis Set: AUG-CC-PVTZ
    Blend: AUG-CC-PVTZ
  Basis Set: (AUG-CC-PVTZ AUX)
    Blend: AUG-CC-PVTZ-JKFIT

    Orbital Energies [Eh]
    ---------------------

    Doubly Occupied:

       1A    -20.733253     2A    -15.856288     3A    -11.456764
       4A    -11.454253     5A    -11.449990     6A    -11.449241
       7A     -1.539785     8A     -1.487097     9A     -1.206240
      10A     -1.167161    11A     -1.092457    12A     -1.024771
      13A     -0.919655    14A     -0.876728    15A     -0.854603
      16A     -0.837747    17A     -0.791862    18A     -0.755491
      19A     -0.746053    20A     -0.739642    21A     -0.728986
      22A     -0.715524    23A     -0.710660    24A     -0.674168
      25A     -0.624508

  @DF-RHF Final Energy:  -287.65848779733119

   => Energetics <=

    Nuclear Repulsion Energy =            278.5901752277800369
    One-Electron Energy =                -932.7114722622840191
    Two-Electron Energy =                 366.4628092371727917
    Total Energy =                       -287.6584877973311904
  Basis Set: (AUG-CC-PVTZ AUX)
    Blend: AUG-CC-PVTZ-RI
    Molecular point group: c1

    Geometry (in Angstrom), charge = 1, multiplicity = 1:

       Center              X                  Y                   Z               Mass
    ------------   -----------------  -----------------  -----------------  -----------------
         O           -1.740302335860     0.052796566133    -0.870818221150    15.994914619570
         N            0.746061664140     0.010325566133    -0.173107221150    14.003074004430
         C           -0.230739335860    -0.704766433867     0.721938778850    12.000000000000
         C            0.965856664140     1.429375066133     0.249466578850    12.000000000000
         C            2.026591664140    -0.750614433867    -0.315531221150    12.000000000000
         C           -1.613770335860    -0.100569433867     0.541359778850    12.000000000000
         H            0.265720664140     0.046048566133    -1.087521221150     1.007825032230
         H           -0.235083335860    -1.747648433867     0.398488778850     1.007825032230
         H            0.132398664140    -0.642248433867     1.750730778850     1.007825032230
         H            1.400337664140     1.418535566133     1.260500778850     1.007825032230
         H            1.704849664140     1.873220566133    -0.441603221150     1.007825032230
         H            0.052903664140     1.973955566133     0.213933778850     1.007825032230
         H            2.500920664140    -0.814696433867     0.663914778850     1.007825032230
         H            1.803718664140    -1.747573433867    -0.694531221150     1.007825032230
         H            2.674038664140    -0.220329433867    -1.013513221150     1.007825032230
         H           -2.353858335860    -0.794082433867     0.955479778850     1.007825032230
         H           -1.713039335860     0.857838566133     1.063946778850     1.007825032230
         H           -2.647397335860     0.322702566133    -1.099356221150     1.007825032230

  Basis Set: AUG-CC-PVTZ
    Blend: AUG-CC-PVTZ
  Basis Set: (AUG-CC-PVTZ AUX)
    Blend: AUG-CC-PVTZ-JKFIT
	 Reference Energy          =    -287.6584877973311904 [Eh]
	 Singles Energy            =      -0.0000000000000000 [Eh]
	 Same-Spin Energy          =      -0.2850425978552936 [Eh]
	 Opposite-Spin Energy      =      -0.9994608662437650 [Eh]
	 Correlation Energy        =      -1.2845034640990585 [Eh]
	 Total Energy              =    -288.9429912614302225 [Eh]

	 ================> DF-SCS-MP2 Energies <==================
	-----------------------------------------------------------
	 SCS Same-Spin Scale       =       0.3333333333333333 [-]
	 SCS Opposite-Spin Scale   =       1.2000000000000000 [-]
	 SCS Same-Spin Energy      =      -0.0950141992850979 [Eh]
	 SCS Opposite-Spin Energy  =      -1.1993530394925178 [Eh]
	 SCS Correlation Energy    =      -1.2943672387776157 [Eh]
	 SCS Total Energy          =    -288.9528550361088151 [Eh]
	-----------------------------------------------------------

  Dipole Moment: [D]
     X:     1.3793      Y:     0.3020      Z:     0.6580     Total:     1.5578

*** Psi4 exiting successfully. Buy a developer a beer!
