                               Psi4 1.4a3.dev225

  ==> Input File <==

--------------------------------------------------------------------------
#psi4
#
memory 32 gb

molecule  {
1 1
  O       -1.7781010     0.0481890    -0.8899830
  N        0.6882239    -0.0153170    -0.3461801
  C       -0.2685380    -0.7093740     0.7027740
  C        0.9538210     1.4204460     0.2306060
  C        1.9887930    -0.7552220    -0.3346960
  C       -1.6515690    -0.1051770     0.5221950
  H        0.2279220     0.0414410    -1.1066860
  H       -0.2728820    -1.7522560     0.3793240
  H        0.0946000    -0.6468560     1.7315660
  H        1.3625390     1.4139280     1.2413360
  H        1.6670510     1.8686130    -0.4607680
  H        0.0151050     1.9693480     0.1947690
  H        2.4631220    -0.8193040     0.6447500
  H        1.7659200    -1.7521810    -0.7136960
  H        2.6362400    -0.2249370    -1.0326780
  H       -2.3916570    -0.7986900     0.9363150
  H       -1.7508380     0.8532310     1.0447820
  H       -2.6851960     0.3180950    -1.1185210
units angstrom
no_reorient  #important for SAPT in psi4, default
symmetry c1  #important for SAPT in psi4, default
}

set PROPERTIES_ORIGIN ["COM"]
properties('MP2/aug-cc-pvtz', properties = ['dipole'])
--------------------------------------------------------------------------

    Molecular point group: c1
  Charge       = 1
  Multiplicity = 1
  Basis Set: AUG-CC-PVTZ
    Blend: AUG-CC-PVTZ
  Basis Set: (AUG-CC-PVTZ AUX)
    Blend: AUG-CC-PVTZ-JKFIT

    Orbital Energies [Eh]
    ---------------------

    Doubly Occupied:

       1A    -20.731946     2A    -15.845038     3A    -11.462790
       4A    -11.455060     5A    -11.453814     6A    -11.449330
       7A     -1.538754     8A     -1.482219     9A     -1.200897
      10A     -1.155785    11A     -1.118333    12A     -1.029238
      13A     -0.914090    14A     -0.877897    15A     -0.850875
      16A     -0.832279    17A     -0.791607    18A     -0.764619
      19A     -0.753036    20A     -0.737073    21A     -0.734001
      22A     -0.718575    23A     -0.691687    24A     -0.669617
      25A     -0.622718

  @DF-RHF Final Energy:  -287.62668331010354

   => Energetics <=

    Nuclear Repulsion Energy =            277.5714575745164439
    One-Electron Energy =                -930.6337251692177688
    Two-Electron Energy =                 365.4355842845977804
    Total Energy =                       -287.6266833101035445
  Basis Set: (AUG-CC-PVTZ AUX)
    Blend: AUG-CC-PVTZ-RI
    Molecular point group: c1

    Geometry (in Angstrom), charge = 1, multiplicity = 1:

       Center              X                  Y                   Z               Mass
    ------------   -----------------  -----------------  -----------------  -----------------
         O           -1.740619201229     0.056641669899    -0.846936647151    15.994914619570
         N            0.725705698771    -0.006864330101    -0.303133747151    14.003074004430
         C           -0.231056201229    -0.700921330101     0.745820352849    12.000000000000
         C            0.991302798771     1.428898669899     0.273652352849    12.000000000000
         C            2.026274798771    -0.746769330101    -0.291649647151    12.000000000000
         C           -1.614087201229    -0.096724330101     0.565241352849    12.000000000000
         H            0.265403798771     0.049893669899    -1.063639647151     1.007825032230
         H           -0.235400201229    -1.743803330101     0.422370352849     1.007825032230
         H            0.132081798771    -0.638403330101     1.774612352849     1.007825032230
         H            1.400020798771     1.422380669899     1.284382352849     1.007825032230
         H            1.704532798771     1.877065669899    -0.417721647151     1.007825032230
         H            0.052586798771     1.977800669899     0.237815352849     1.007825032230
         H            2.500603798771    -0.810851330101     0.687796352849     1.007825032230
         H            1.803401798771    -1.743728330101    -0.670649647151     1.007825032230
         H            2.673721798771    -0.216484330101    -0.989631647151     1.007825032230
         H           -2.354175201229    -0.790237330101     0.979361352849     1.007825032230
         H           -1.713356201229     0.861683669899     1.087828352849     1.007825032230
         H           -2.647714201229     0.326547669899    -1.075474647151     1.007825032230

  Basis Set: AUG-CC-PVTZ
    Blend: AUG-CC-PVTZ
  Basis Set: (AUG-CC-PVTZ AUX)
    Blend: AUG-CC-PVTZ-JKFIT
	 Reference Energy          =    -287.6266833101035445 [Eh]
	 Singles Energy            =      -0.0000000000000000 [Eh]
	 Same-Spin Energy          =      -0.2839762460555304 [Eh]
	 Opposite-Spin Energy      =      -0.9995423145524667 [Eh]
	 Correlation Energy        =      -1.2835185606079971 [Eh]
	 Total Energy              =    -288.9102018707115462 [Eh]

	 ================> DF-SCS-MP2 Energies <==================
	-----------------------------------------------------------
	 SCS Same-Spin Scale       =       0.3333333333333333 [-]
	 SCS Opposite-Spin Scale   =       1.2000000000000000 [-]
	 SCS Same-Spin Energy      =      -0.0946587486851768 [Eh]
	 SCS Opposite-Spin Energy  =      -1.1994507774629599 [Eh]
	 SCS Correlation Energy    =      -1.2941095261481368 [Eh]
	 SCS Total Energy          =    -288.9207928362516782 [Eh]
	-----------------------------------------------------------

  Dipole Moment: [D]
     X:     1.4316      Y:     0.3521      Z:     0.9572     Total:     1.7578

*** Psi4 exiting successfully. Buy a developer a beer!
