                               Psi4 1.4a3.dev225

  ==> Input File <==

--------------------------------------------------------------------------
#psi4
#
memory 32 gb

molecule  {
1 1
  O       -1.7781010     0.0481890    -0.8899830
  N        0.7253318    -0.0859568    -0.2407184
  C       -0.2685380    -0.7093740     0.7027740
  C        0.9538210     1.4204460     0.2306060
  C        1.9887930    -0.7552220    -0.3346960
  C       -1.6515690    -0.1051770     0.5221950
  H        0.2279220     0.0414410    -1.1066860
  H       -0.2728820    -1.7522560     0.3793240
  H        0.0946000    -0.6468560     1.7315660
  H        1.3625390     1.4139280     1.2413360
  H        1.6670510     1.8686130    -0.4607680
  H        0.0151050     1.9693480     0.1947690
  H        2.4631220    -0.8193040     0.6447500
  H        1.7659200    -1.7521810    -0.7136960
  H        2.6362400    -0.2249370    -1.0326780
  H       -2.3916570    -0.7986900     0.9363150
  H       -1.7508380     0.8532310     1.0447820
  H       -2.6851960     0.3180950    -1.1185210
units angstrom
no_reorient  #important for SAPT in psi4, default
symmetry c1  #important for SAPT in psi4, default
}

set PROPERTIES_ORIGIN ["COM"]
properties('MP2/aug-cc-pvtz', properties = ['dipole'])
--------------------------------------------------------------------------

    Molecular point group: c1
  Charge       = 1
  Multiplicity = 1
  Basis Set: AUG-CC-PVTZ
    Blend: AUG-CC-PVTZ
  Basis Set: (AUG-CC-PVTZ AUX)
    Blend: AUG-CC-PVTZ-JKFIT

    Orbital Energies [Eh]
    ---------------------

    Doubly Occupied:

       1A    -20.733682     2A    -15.853958     3A    -11.457494
       4A    -11.456686     5A    -11.455547     6A    -11.443458
       7A     -1.539808     8A     -1.487645     9A     -1.208666
      10A     -1.159733    11A     -1.098300    12A     -1.028901
      13A     -0.916793    14A     -0.875468    15A     -0.853569
      16A     -0.840746    17A     -0.794427    18A     -0.759936
      19A     -0.747035    20A     -0.742146    21A     -0.726563
      22A     -0.722698    23A     -0.689889    24A     -0.676747
      25A     -0.623904

  @DF-RHF Final Energy:  -287.64906956575533

   => Energetics <=

    Nuclear Repulsion Energy =            278.1517756808707986
    One-Electron Energy =                -931.8140928792337263
    Two-Electron Energy =                 366.0132476326075448
    Total Energy =                       -287.6490695657553260
  Basis Set: (AUG-CC-PVTZ AUX)
    Blend: AUG-CC-PVTZ-RI
    Molecular point group: c1

    Geometry (in Angstrom), charge = 1, multiplicity = 1:

       Center              X                  Y                   Z               Mass
    ------------   -----------------  -----------------  -----------------  -----------------
         O           -1.746386919895     0.067621285910    -0.863328666521    15.994914619570
         N            0.757045880105    -0.066524514090    -0.214064066521    14.003074004430
         C           -0.236823919895    -0.689941714090     0.729428333479    12.000000000000
         C            0.985535080105     1.439878285910     0.257260333479    12.000000000000
         C            2.020507080105    -0.735789714090    -0.308041666521    12.000000000000
         C           -1.619854919895    -0.085744714090     0.548849333479    12.000000000000
         H            0.259636080105     0.060873285910    -1.080031666521     1.007825032230
         H           -0.241167919895    -1.732823714090     0.405978333479     1.007825032230
         H            0.126314080105    -0.627423714090     1.758220333479     1.007825032230
         H            1.394253080105     1.433360285910     1.267990333479     1.007825032230
         H            1.698765080105     1.888045285910    -0.434113666521     1.007825032230
         H            0.046819080105     1.988780285910     0.221423333479     1.007825032230
         H            2.494836080105    -0.799871714090     0.671404333479     1.007825032230
         H            1.797634080105    -1.732748714090    -0.687041666521     1.007825032230
         H            2.667954080105    -0.205504714090    -1.006023666521     1.007825032230
         H           -2.359942919895    -0.779257714090     0.962969333479     1.007825032230
         H           -1.719123919895     0.872663285910     1.071436333479     1.007825032230
         H           -2.653481919895     0.337527285910    -1.091866666521     1.007825032230

  Basis Set: AUG-CC-PVTZ
    Blend: AUG-CC-PVTZ
  Basis Set: (AUG-CC-PVTZ AUX)
    Blend: AUG-CC-PVTZ-JKFIT
	 Reference Energy          =    -287.6490695657553260 [Eh]
	 Singles Energy            =      -0.0000000000000000 [Eh]
	 Same-Spin Energy          =      -0.2850941165623355 [Eh]
	 Opposite-Spin Energy      =      -0.9999697884191000 [Eh]
	 Correlation Energy        =      -1.2850639049814356 [Eh]
	 Total Energy              =    -288.9341334707367537 [Eh]

	 ================> DF-SCS-MP2 Energies <==================
	-----------------------------------------------------------
	 SCS Same-Spin Scale       =       0.3333333333333333 [-]
	 SCS Opposite-Spin Scale   =       1.2000000000000000 [-]
	 SCS Same-Spin Energy      =      -0.0950313721874452 [Eh]
	 SCS Opposite-Spin Energy  =      -1.1999637461029200 [Eh]
	 SCS Correlation Energy    =      -1.2949951182903652 [Eh]
	 SCS Total Energy          =    -288.9440646840457134 [Eh]
	-----------------------------------------------------------

  Dipole Moment: [D]
     X:     1.3186      Y:     0.5120      Z:     0.7458     Total:     1.5991

*** Psi4 exiting successfully. Buy a developer a beer!
