                               Psi4 1.4a3.dev225

  ==> Input File <==

--------------------------------------------------------------------------
#psi4
#
memory 32 gb

molecule  {
1 1
  O       -1.7781010     0.0481890    -0.8899830
  N        0.7082630     0.0057180    -0.1922720
  C       -0.2685380    -0.7093740     0.7027740
  C        0.9538210     1.4204460     0.2306060
  C        1.9887930    -0.7552220    -0.3346960
  C       -1.6515690    -0.1051770     0.5221950
  H        0.2279220     0.0414410    -1.1066860
  H       -0.2728820    -1.7522560     0.3793240
  H        0.0946000    -0.6468560     1.7315660
  H        1.3625390     1.4139280     1.2413360
  H        1.6670510     1.8686130    -0.4607680
  H        0.0151050     1.9693480     0.1947690
  H        2.4631220    -0.8193040     0.6447500
  H        1.7761472    -1.7064324    -0.6963044
  H        2.6362400    -0.2249370    -1.0326780
  H       -2.3916570    -0.7986900     0.9363150
  H       -1.7508380     0.8532310     1.0447820
  H       -2.6851960     0.3180950    -1.1185210
units angstrom
no_reorient  #important for SAPT in psi4, default
symmetry c1  #important for SAPT in psi4, default
}

set PROPERTIES_ORIGIN ["COM"]
properties('MP2/aug-cc-pvtz', properties = ['dipole'])
--------------------------------------------------------------------------

    Molecular point group: c1
  Charge       = 1
  Multiplicity = 1
  Basis Set: AUG-CC-PVTZ
    Blend: AUG-CC-PVTZ
  Basis Set: (AUG-CC-PVTZ AUX)
    Blend: AUG-CC-PVTZ-JKFIT

    Orbital Energies [Eh]
    ---------------------

    Doubly Occupied:

       1A    -20.733172     2A    -15.856021     3A    -11.457173
       4A    -11.454239     5A    -11.448910     6A    -11.444199
       7A     -1.539674     8A     -1.487240     9A     -1.207113
      10A     -1.169204    11A     -1.094717    12A     -1.024979
      13A     -0.920796    14A     -0.877339    15A     -0.855307
      16A     -0.838308    17A     -0.792290    18A     -0.757919
      19A     -0.748280    20A     -0.741317    21A     -0.728648
      22A     -0.717124    23A     -0.712404    24A     -0.674121
      25A     -0.624401

  @DF-RHF Final Energy:  -287.65841840865687

   => Energetics <=

    Nuclear Repulsion Energy =            278.7337476802519518
    One-Electron Energy =                -932.9745409068741537
    Two-Electron Energy =                 366.5823748179652739
    Total Energy =                       -287.6584184086568712
  Basis Set: (AUG-CC-PVTZ AUX)
    Blend: AUG-CC-PVTZ-RI
    Molecular point group: c1

    Geometry (in Angstrom), charge = 1, multiplicity = 1:

       Center              X                  Y                   Z               Mass
    ------------   -----------------  -----------------  -----------------  -----------------
         O           -1.743848306886     0.052860405573    -0.871053293254    15.994914619570
         N            0.742515693114     0.010389405573    -0.173342293254    14.003074004430
         C           -0.234285306886    -0.704702594427     0.721703706746    12.000000000000
         C            0.988073693114     1.425117405573     0.249535706746    12.000000000000
         C            2.023045693114    -0.750550594427    -0.315766293254    12.000000000000
         C           -1.617316306886    -0.100505594427     0.541124706746    12.000000000000
         H            0.262174693114     0.046112405573    -1.087756293254     1.007825032230
         H           -0.238629306886    -1.747584594427     0.398253706746     1.007825032230
         H            0.128852693114    -0.642184594427     1.750495706746     1.007825032230
         H            1.396791693114     1.418599405573     1.260265706746     1.007825032230
         H            1.701303693114     1.873284405573    -0.441838293254     1.007825032230
         H            0.049357693114     1.974019405573     0.213698706746     1.007825032230
         H            2.497374693114    -0.814632594427     0.663679706746     1.007825032230
         H            1.810399893114    -1.701760994427    -0.677374693254     1.007825032230
         H            2.670492693114    -0.220265594427    -1.013748293254     1.007825032230
         H           -2.357404306886    -0.794018594427     0.955244706746     1.007825032230
         H           -1.716585306886     0.857902405573     1.063711706746     1.007825032230
         H           -2.650943306886     0.322766405573    -1.099591293254     1.007825032230

  Basis Set: AUG-CC-PVTZ
    Blend: AUG-CC-PVTZ
  Basis Set: (AUG-CC-PVTZ AUX)
    Blend: AUG-CC-PVTZ-JKFIT
	 Reference Energy          =    -287.6584184086568712 [Eh]
	 Singles Energy            =      -0.0000000000000000 [Eh]
	 Same-Spin Energy          =      -0.2849668749316819 [Eh]
	 Opposite-Spin Energy      =      -0.9990784872389060 [Eh]
	 Correlation Energy        =      -1.2840453621705881 [Eh]
	 Total Energy              =    -288.9424637708274872 [Eh]

	 ================> DF-SCS-MP2 Energies <==================
	-----------------------------------------------------------
	 SCS Same-Spin Scale       =       0.3333333333333333 [-]
	 SCS Opposite-Spin Scale   =       1.2000000000000000 [-]
	 SCS Same-Spin Energy      =      -0.0949889583105606 [Eh]
	 SCS Opposite-Spin Energy  =      -1.1988941846866872 [Eh]
	 SCS Correlation Energy    =      -1.2938831429972477 [Eh]
	 SCS Total Energy          =    -288.9523015516541022 [Eh]
	-----------------------------------------------------------

  Dipole Moment: [D]
     X:     1.3676      Y:     0.3099      Z:     0.6641     Total:     1.5516

*** Psi4 exiting successfully. Buy a developer a beer!
