                               Psi4 1.4a3.dev225

  ==> Input File <==

--------------------------------------------------------------------------
#psi4
#
memory 32 gb

molecule  {
1 1
  O       -1.7781010     0.0481890    -0.8899830
  N        0.7082630     0.0057180    -0.1922720
  C       -0.2685380    -0.7093740     0.7027740
  C        0.9538210     1.4204460     0.2306060
  C        1.9887930    -0.7552220    -0.3346960
  C       -1.6515690    -0.1051770     0.5221950
  H        0.1349693     0.0483539    -1.2836380
  H       -0.2728820    -1.7522560     0.3793240
  H        0.0946000    -0.6468560     1.7315660
  H        1.3625390     1.4139280     1.2413360
  H        1.6670510     1.8686130    -0.4607680
  H        0.0151050     1.9693480     0.1947690
  H        2.4631220    -0.8193040     0.6447500
  H        1.7659200    -1.7521810    -0.7136960
  H        2.6362400    -0.2249370    -1.0326780
  H       -2.3916570    -0.7986900     0.9363150
  H       -1.7508380     0.8532310     1.0447820
  H       -2.6851960     0.3180950    -1.1185210
units angstrom
no_reorient  #important for SAPT in psi4, default
symmetry c1  #important for SAPT in psi4, default
}

set PROPERTIES_ORIGIN ["COM"]
properties('MP2/aug-cc-pvtz', properties = ['dipole'])
--------------------------------------------------------------------------

    Molecular point group: c1
  Charge       = 1
  Multiplicity = 1
  Basis Set: AUG-CC-PVTZ
    Blend: AUG-CC-PVTZ
  Basis Set: (AUG-CC-PVTZ AUX)
    Blend: AUG-CC-PVTZ-JKFIT

    Orbital Energies [Eh]
    ---------------------

    Doubly Occupied:

       1A    -20.736850     2A    -15.862187     3A    -11.455147
       4A    -11.454357     5A    -11.445892     6A    -11.445822
       7A     -1.540707     8A     -1.466926     9A     -1.204194
      10A     -1.161485    11A     -1.078814    12A     -1.007004
      13A     -0.910590    14A     -0.869671    15A     -0.847242
      16A     -0.833355    17A     -0.790428    18A     -0.754921
      19A     -0.744669    20A     -0.737271    21A     -0.721905
      22A     -0.711015    23A     -0.694423    24A     -0.669965
      25A     -0.626247

  @DF-RHF Final Energy:  -287.63157198164021

   => Energetics <=

    Nuclear Repulsion Energy =            277.5886783389697143
    One-Electron Energy =                -930.8983283825102717
    Two-Electron Energy =                 365.6780780619004076
    Total Energy =                       -287.6315719816402066
  Basis Set: (AUG-CC-PVTZ AUX)
    Blend: AUG-CC-PVTZ-RI
    Molecular point group: c1

    Geometry (in Angstrom), charge = 1, multiplicity = 1:

       Center              X                  Y                   Z               Mass
    ------------   -----------------  -----------------  -----------------  -----------------
         O           -1.742694071059     0.053294846354    -0.868879242436    15.994914619570
         N            0.743669928941     0.010823846354    -0.171168242436    14.003074004430
         C           -0.233131071059    -0.704268153646     0.723877757564    12.000000000000
         C            0.989227928941     1.425551846354     0.251709757564    12.000000000000
         C            2.024199928941    -0.750116153646    -0.313592242436    12.000000000000
         C           -1.616162071059    -0.100071153646     0.543298757564    12.000000000000
         H            0.170376228941     0.053459746354    -1.262534242436     1.007825032230
         H           -0.237475071059    -1.747150153646     0.400427757564     1.007825032230
         H            0.130006928941    -0.641750153646     1.752669757564     1.007825032230
         H            1.397945928941     1.419033846354     1.262439757564     1.007825032230
         H            1.702457928941     1.873718846354    -0.439664242436     1.007825032230
         H            0.050511928941     1.974453846354     0.215872757564     1.007825032230
         H            2.498528928941    -0.814198153646     0.665853757564     1.007825032230
         H            1.801326928941    -1.747075153646    -0.692592242436     1.007825032230
         H            2.671646928941    -0.219831153646    -1.011574242436     1.007825032230
         H           -2.356250071059    -0.793584153646     0.957418757564     1.007825032230
         H           -1.715431071059     0.858336846354     1.065885757564     1.007825032230
         H           -2.649789071059     0.323200846354    -1.097417242436     1.007825032230

  Basis Set: AUG-CC-PVTZ
    Blend: AUG-CC-PVTZ
  Basis Set: (AUG-CC-PVTZ AUX)
    Blend: AUG-CC-PVTZ-JKFIT
	 Reference Energy          =    -287.6315719816402066 [Eh]
	 Singles Energy            =      -0.0000000000000000 [Eh]
	 Same-Spin Energy          =      -0.2871152244502722 [Eh]
	 Opposite-Spin Energy      =      -1.0042129848582300 [Eh]
	 Correlation Energy        =      -1.2913282093085021 [Eh]
	 Total Energy              =    -288.9229001909487238 [Eh]

	 ================> DF-SCS-MP2 Energies <==================
	-----------------------------------------------------------
	 SCS Same-Spin Scale       =       0.3333333333333333 [-]
	 SCS Opposite-Spin Scale   =       1.2000000000000000 [-]
	 SCS Same-Spin Energy      =      -0.0957050748167574 [Eh]
	 SCS Opposite-Spin Energy  =      -1.2050555818298758 [Eh]
	 SCS Correlation Energy    =      -1.3007606566466332 [Eh]
	 SCS Total Energy          =    -288.9323326382868231 [Eh]
	-----------------------------------------------------------

  Dipole Moment: [D]
     X:     1.1134      Y:     0.3160      Z:     0.4223     Total:     1.2320

*** Psi4 exiting successfully. Buy a developer a beer!
