                               Psi4 1.4a3.dev225

  ==> Input File <==

--------------------------------------------------------------------------
#psi4
#
memory 32 gb

molecule  {
1 1
  O       -1.7781010     0.0481890    -0.8899830
  N        0.7082630     0.0057180    -0.1922720
  C       -0.2685380    -0.7093740     0.7027740
  C        0.9538210     1.4204460     0.2306060
  C        1.9887930    -0.7552220    -0.3346960
  C       -1.6515690    -0.1051770     0.5221950
  H        0.2279220     0.0414410    -1.1066860
  H       -0.2728820    -1.7522560     0.3793240
  H        0.0946000    -0.6468560     1.7315660
  H        1.3325971     1.4343952     1.2528594
  H        1.6670510     1.8686130    -0.4607680
  H        0.0151050     1.9693480     0.1947690
  H        2.4631220    -0.8193040     0.6447500
  H        1.7659200    -1.7521810    -0.7136960
  H        2.6362400    -0.2249370    -1.0326780
  H       -2.3916570    -0.7986900     0.9363150
  H       -1.7508380     0.8532310     1.0447820
  H       -2.6851960     0.3180950    -1.1185210
units angstrom
no_reorient  #important for SAPT in psi4, default
symmetry c1  #important for SAPT in psi4, default
}

set PROPERTIES_ORIGIN ["COM"]
properties('MP2/aug-cc-pvtz', properties = ['dipole'])
--------------------------------------------------------------------------

    Molecular point group: c1
  Charge       = 1
  Multiplicity = 1
  Basis Set: AUG-CC-PVTZ
    Blend: AUG-CC-PVTZ
  Basis Set: (AUG-CC-PVTZ AUX)
    Blend: AUG-CC-PVTZ-JKFIT

    Orbital Energies [Eh]
    ---------------------

    Doubly Occupied:

       1A    -20.733123     2A    -15.856558     3A    -11.457121
       4A    -11.454215     5A    -11.449478     6A    -11.448908
       7A     -1.539625     8A     -1.487119     9A     -1.206632
      10A     -1.166102    11A     -1.092919    12A     -1.025007
      13A     -0.919161    14A     -0.877223    15A     -0.853150
      16A     -0.838060    17A     -0.791978    18A     -0.758022
      19A     -0.745551    20A     -0.739336    21A     -0.725556
      22A     -0.716286    23A     -0.711644    24A     -0.674244
      25A     -0.624364

  @DF-RHF Final Energy:  -287.65925419330489

   => Energetics <=

    Nuclear Repulsion Energy =            278.4943762463107646
    One-Electron Energy =                -932.5244991078492376
    Two-Electron Energy =                 366.3708686682336406
    Total Energy =                       -287.6592541933048892
  Basis Set: (AUG-CC-PVTZ AUX)
    Blend: AUG-CC-PVTZ-RI
    Molecular point group: c1

    Geometry (in Angstrom), charge = 1, multiplicity = 1:

       Center              X                  Y                   Z               Mass
    ------------   -----------------  -----------------  -----------------  -----------------
         O           -1.743398949847     0.053143219354    -0.870987647845    15.994914619570
         N            0.742965050153     0.010672219354    -0.173276647845    14.003074004430
         C           -0.233835949847    -0.704419780646     0.721769352155    12.000000000000
         C            0.988523050153     1.425400219354     0.249601352155    12.000000000000
         C            2.023495050153    -0.750267780646    -0.315700647845    12.000000000000
         C           -1.616866949847    -0.100222780646     0.541190352155    12.000000000000
         H            0.262624050153     0.046395219354    -1.087690647845     1.007825032230
         H           -0.238179949847    -1.747301780646     0.398319352155     1.007825032230
         H            0.129302050153    -0.641901780646     1.750561352155     1.007825032230
         H            1.367299150153     1.439349419354     1.271854752155     1.007825032230
         H            1.701753050153     1.873567219354    -0.441772647845     1.007825032230
         H            0.049807050153     1.974302219354     0.213764352155     1.007825032230
         H            2.497824050153    -0.814349780646     0.663745352155     1.007825032230
         H            1.800622050153    -1.747226780646    -0.694700647845     1.007825032230
         H            2.670942050153    -0.219982780646    -1.013682647845     1.007825032230
         H           -2.356954949847    -0.793735780646     0.955310352155     1.007825032230
         H           -1.716135949847     0.858185219354     1.063777352155     1.007825032230
         H           -2.650493949847     0.323049219354    -1.099525647845     1.007825032230

  Basis Set: AUG-CC-PVTZ
    Blend: AUG-CC-PVTZ
  Basis Set: (AUG-CC-PVTZ AUX)
    Blend: AUG-CC-PVTZ-JKFIT
	 Reference Energy          =    -287.6592541933048892 [Eh]
	 Singles Energy            =      -0.0000000000000000 [Eh]
	 Same-Spin Energy          =      -0.2850033964610155 [Eh]
	 Opposite-Spin Energy      =      -0.9993933087132094 [Eh]
	 Correlation Energy        =      -1.2843967051742249 [Eh]
	 Total Energy              =    -288.9436508984791203 [Eh]

	 ================> DF-SCS-MP2 Energies <==================
	-----------------------------------------------------------
	 SCS Same-Spin Scale       =       0.3333333333333333 [-]
	 SCS Opposite-Spin Scale   =       1.2000000000000000 [-]
	 SCS Same-Spin Energy      =      -0.0950011321536718 [Eh]
	 SCS Opposite-Spin Energy  =      -1.1992719704558512 [Eh]
	 SCS Correlation Energy    =      -1.2942731026095231 [Eh]
	 SCS Total Energy          =    -288.9535272959143981 [Eh]
	-----------------------------------------------------------

  Dipole Moment: [D]
     X:     1.3579      Y:     0.3123      Z:     0.6717     Total:     1.5468

*** Psi4 exiting successfully. Buy a developer a beer!
