                               Psi4 1.4a3.dev225

  ==> Input File <==

--------------------------------------------------------------------------
#psi4
#
memory 32 gb

molecule  {
1 1
  O       -1.7781010     0.0481890    -0.8899830
  N        0.7082630     0.0057180    -0.1922720
  C       -0.2685380    -0.7093740     0.7027740
  C        0.9538210     1.4204460     0.2306060
  C        1.9887930    -0.7552220    -0.3346960
  C       -1.6515690    -0.1051770     0.5221950
  H        0.2279220     0.0414410    -1.1066860
  H       -0.2724842    -1.6567451     0.4089467
  H        0.0946000    -0.6468560     1.7315660
  H        1.3625390     1.4139280     1.2413360
  H        1.6670510     1.8686130    -0.4607680
  H        0.0151050     1.9693480     0.1947690
  H        2.4631220    -0.8193040     0.6447500
  H        1.7659200    -1.7521810    -0.7136960
  H        2.6362400    -0.2249370    -1.0326780
  H       -2.3916570    -0.7986900     0.9363150
  H       -1.7508380     0.8532310     1.0447820
  H       -2.6851960     0.3180950    -1.1185210
units angstrom
no_reorient  #important for SAPT in psi4, default
symmetry c1  #important for SAPT in psi4, default
}

set PROPERTIES_ORIGIN ["COM"]
properties('MP2/aug-cc-pvtz', properties = ['dipole'])
--------------------------------------------------------------------------

    Molecular point group: c1
  Charge       = 1
  Multiplicity = 1
  Basis Set: AUG-CC-PVTZ
    Blend: AUG-CC-PVTZ
  Basis Set: (AUG-CC-PVTZ AUX)
    Blend: AUG-CC-PVTZ-JKFIT

    Orbital Energies [Eh]
    ---------------------

    Doubly Occupied:

       1A    -20.733227     2A    -15.855798     3A    -11.453817
       4A    -11.449814     5A    -11.448785     6A    -11.446091
       7A     -1.539882     8A     -1.487420     9A     -1.213176
      10A     -1.166496    11A     -1.092943    12A     -1.030569
      13A     -0.923213    14A     -0.882030    15A     -0.855216
      16A     -0.837320    17A     -0.791976    18A     -0.760517
      19A     -0.746389    20A     -0.742318    21A     -0.728065
      22A     -0.719518    23A     -0.714910    24A     -0.674530
      25A     -0.624972

  @DF-RHF Final Energy:  -287.65353407550992

   => Energetics <=

    Nuclear Repulsion Energy =            279.0292192284879889
    One-Electron Energy =                -933.5275161442370973
    Two-Electron Energy =                 366.8447628402391274
    Total Energy =                       -287.6535340755099242
  Basis Set: (AUG-CC-PVTZ AUX)
    Blend: AUG-CC-PVTZ-RI
    Molecular point group: c1

    Geometry (in Angstrom), charge = 1, multiplicity = 1:

       Center              X                  Y                   Z               Mass
    ------------   -----------------  -----------------  -----------------  -----------------
         O           -1.743738348981     0.052303732912    -0.871190118099    15.994914619570
         N            0.742625651019     0.009832732912    -0.173479118099    14.003074004430
         C           -0.234175348981    -0.705259267088     0.721566881901    12.000000000000
         C            0.988183651019     1.424560732912     0.249398881901    12.000000000000
         C            2.023155651019    -0.751107267088    -0.315903118099    12.000000000000
         C           -1.617206348981    -0.101062267088     0.540987881901    12.000000000000
         H            0.262284651019     0.045555732912    -1.087893118099     1.007825032230
         H           -0.238121548981    -1.652630367088     0.427739581901     1.007825032230
         H            0.128962651019    -0.642741267088     1.750358881901     1.007825032230
         H            1.396901651019     1.418042732912     1.260128881901     1.007825032230
         H            1.701413651019     1.872727732912    -0.441975118099     1.007825032230
         H            0.049467651019     1.973462732912     0.213561881901     1.007825032230
         H            2.497484651019    -0.815189267088     0.663542881901     1.007825032230
         H            1.800282651019    -1.748066267088    -0.694903118099     1.007825032230
         H            2.670602651019    -0.220822267088    -1.013885118099     1.007825032230
         H           -2.357294348981    -0.794575267088     0.955107881901     1.007825032230
         H           -1.716475348981     0.857345732912     1.063574881901     1.007825032230
         H           -2.650833348981     0.322209732912    -1.099728118099     1.007825032230

  Basis Set: AUG-CC-PVTZ
    Blend: AUG-CC-PVTZ
  Basis Set: (AUG-CC-PVTZ AUX)
    Blend: AUG-CC-PVTZ-JKFIT
	 Reference Energy          =    -287.6535340755099242 [Eh]
	 Singles Energy            =      -0.0000000000000000 [Eh]
	 Same-Spin Energy          =      -0.2848558005348658 [Eh]
	 Opposite-Spin Energy      =      -0.9987617384724630 [Eh]
	 Correlation Energy        =      -1.2836175390073288 [Eh]
	 Total Energy              =    -288.9371516145172336 [Eh]

	 ================> DF-SCS-MP2 Energies <==================
	-----------------------------------------------------------
	 SCS Same-Spin Scale       =       0.3333333333333333 [-]
	 SCS Opposite-Spin Scale   =       1.2000000000000000 [-]
	 SCS Same-Spin Energy      =      -0.0949519335116219 [Eh]
	 SCS Opposite-Spin Energy  =      -1.1985140861669554 [Eh]
	 SCS Correlation Energy    =      -1.2934660196785774 [Eh]
	 SCS Total Energy          =    -288.9470000951885140 [Eh]
	-----------------------------------------------------------

  Dipole Moment: [D]
     X:     1.3779      Y:     0.3056      Z:     0.6621     Total:     1.5590

*** Psi4 exiting successfully. Buy a developer a beer!
