                               Psi4 1.4a3.dev225

  ==> Input File <==

--------------------------------------------------------------------------
#psi4
#
memory 32 gb

molecule  {
1 1
  O       -1.7781010     0.0481890    -0.8899830
  N        0.7082630     0.0057180    -0.1922720
  C       -0.2685380    -0.7093740     0.7027740
  C        0.9538210     1.4204460     0.2306060
  C        1.9887930    -0.7552220    -0.3346960
  C       -1.6515690    -0.1051770     0.5221950
  H        0.2743984     0.0379845    -1.0182100
  H       -0.2728820    -1.7522560     0.3793240
  H        0.0946000    -0.6468560     1.7315660
  H        1.3625390     1.4139280     1.2413360
  H        1.6670510     1.8686130    -0.4607680
  H        0.0151050     1.9693480     0.1947690
  H        2.4631220    -0.8193040     0.6447500
  H        1.7659200    -1.7521810    -0.7136960
  H        2.6362400    -0.2249370    -1.0326780
  H       -2.3916570    -0.7986900     0.9363150
  H       -1.7508380     0.8532310     1.0447820
  H       -2.6851960     0.3180950    -1.1185210
units angstrom
no_reorient  #important for SAPT in psi4, default
symmetry c1  #important for SAPT in psi4, default
}

set PROPERTIES_ORIGIN ["COM"]
properties('MP2/aug-cc-pvtz', properties = ['dipole'])
--------------------------------------------------------------------------

    Molecular point group: c1
  Charge       = 1
  Multiplicity = 1
  Basis Set: AUG-CC-PVTZ
    Blend: AUG-CC-PVTZ
  Basis Set: (AUG-CC-PVTZ AUX)
    Blend: AUG-CC-PVTZ-JKFIT

    Orbital Energies [Eh]
    ---------------------

    Doubly Occupied:

       1A    -20.731675     2A    -15.850096     3A    -11.457969
       4A    -11.454128     5A    -11.451162     6A    -11.450503
       7A     -1.541144     8A     -1.500484     9A     -1.207899
      10A     -1.168058    11A     -1.106461    12A     -1.034262
      13A     -0.923855    14A     -0.880141    15A     -0.855950
      16A     -0.839161    17A     -0.792821    18A     -0.759109
      19A     -0.748224    20A     -0.740165    21A     -0.726795
      22A     -0.724662    23A     -0.713444    24A     -0.674568
      25A     -0.623506

  @DF-RHF Final Energy:  -287.65467514880925

   => Energetics <=

    Nuclear Repulsion Energy =            279.0697117138735734
    One-Electron Energy =                -933.5362857801183054
    Two-Electron Energy =                 366.8118989174354283
    Total Energy =                       -287.6546751488092468
  Basis Set: (AUG-CC-PVTZ AUX)
    Blend: AUG-CC-PVTZ-RI
    Molecular point group: c1

    Geometry (in Angstrom), charge = 1, multiplicity = 1:

       Center              X                  Y                   Z               Mass
    ------------   -----------------  -----------------  -----------------  -----------------
         O           -1.744253813437     0.053410845041    -0.871848488454    15.994914619570
         N            0.742110186563     0.010939845041    -0.174137488454    14.003074004430
         C           -0.234690813437    -0.704152154959     0.720908511546    12.000000000000
         C            0.987668186563     1.425667845041     0.248740511546    12.000000000000
         C            2.022640186563    -0.750000154959    -0.316561488454    12.000000000000
         C           -1.617721813437    -0.099955154959     0.540329511546    12.000000000000
         H            0.308245586563     0.043206345041    -1.000075488454     1.007825032230
         H           -0.239034813437    -1.747034154959     0.397458511546     1.007825032230
         H            0.128447186563    -0.641634154959     1.749700511546     1.007825032230
         H            1.396386186563     1.419149845041     1.259470511546     1.007825032230
         H            1.700898186563     1.873834845041    -0.442633488454     1.007825032230
         H            0.048952186563     1.974569845041     0.212903511546     1.007825032230
         H            2.496969186563    -0.814082154959     0.662884511546     1.007825032230
         H            1.799767186563    -1.746959154959    -0.695561488454     1.007825032230
         H            2.670087186563    -0.219715154959    -1.014543488454     1.007825032230
         H           -2.357809813437    -0.793468154959     0.954449511546     1.007825032230
         H           -1.716990813437     0.858452845041     1.062916511546     1.007825032230
         H           -2.651348813437     0.323316845041    -1.100386488454     1.007825032230

  Basis Set: AUG-CC-PVTZ
    Blend: AUG-CC-PVTZ
  Basis Set: (AUG-CC-PVTZ AUX)
    Blend: AUG-CC-PVTZ-JKFIT
	 Reference Energy          =    -287.6546751488092468 [Eh]
	 Singles Energy            =      -0.0000000000000000 [Eh]
	 Same-Spin Energy          =      -0.2840897451786891 [Eh]
	 Opposite-Spin Energy      =      -0.9974402713178308 [Eh]
	 Correlation Energy        =      -1.2815300164965198 [Eh]
	 Total Energy              =    -288.9362051653057506 [Eh]

	 ================> DF-SCS-MP2 Energies <==================
	-----------------------------------------------------------
	 SCS Same-Spin Scale       =       0.3333333333333333 [-]
	 SCS Opposite-Spin Scale   =       1.2000000000000000 [-]
	 SCS Same-Spin Energy      =      -0.0946965817262297 [Eh]
	 SCS Opposite-Spin Energy  =      -1.1969283255813969 [Eh]
	 SCS Correlation Energy    =      -1.2916249073076267 [Eh]
	 SCS Total Energy          =    -288.9463000561168542 [Eh]
	-----------------------------------------------------------

  Dipole Moment: [D]
     X:     1.4763      Y:     0.3047      Z:     0.7750     Total:     1.6950

*** Psi4 exiting successfully. Buy a developer a beer!
