                               Psi4 1.4a3.dev225

  ==> Input File <==

--------------------------------------------------------------------------
#psi4
#
memory 32 gb

molecule  {
1 1
  O       -1.7781010     0.0481890    -0.8899830
  N        0.7082630     0.0057180    -0.1922720
  C       -0.2685380    -0.7093740     0.7027740
  C        0.9538210     1.4204460     0.2306060
  C        1.9887930    -0.7552220    -0.3346960
  C       -1.6515690    -0.1051770     0.5221950
  H        0.2186267     0.0421323    -1.1243812
  H       -0.2728820    -1.7522560     0.3793240
  H        0.0946000    -0.6468560     1.7315660
  H        1.3625390     1.4139280     1.2413360
  H        1.6670510     1.8686130    -0.4607680
  H        0.0151050     1.9693480     0.1947690
  H        2.4631220    -0.8193040     0.6447500
  H        1.7659200    -1.7521810    -0.7136960
  H        2.6362400    -0.2249370    -1.0326780
  H       -2.3916570    -0.7986900     0.9363150
  H       -1.7508380     0.8532310     1.0447820
  H       -2.6851960     0.3180950    -1.1185210
units angstrom
no_reorient  #important for SAPT in psi4, default
symmetry c1  #important for SAPT in psi4, default
}

set PROPERTIES_ORIGIN ["COM"]
properties('MP2/aug-cc-pvtz', properties = ['dipole'])
--------------------------------------------------------------------------

    Molecular point group: c1
  Charge       = 1
  Multiplicity = 1
  Basis Set: AUG-CC-PVTZ
    Blend: AUG-CC-PVTZ
  Basis Set: (AUG-CC-PVTZ AUX)
    Blend: AUG-CC-PVTZ-JKFIT

    Orbital Energies [Eh]
    ---------------------

    Doubly Occupied:

       1A    -20.733457     2A    -15.857226     3A    -11.456851
       4A    -11.454188     5A    -11.449195     6A    -11.448806
       7A     -1.539576     8A     -1.484700     9A     -1.206406
      10A     -1.165619    11A     -1.090946    12A     -1.022979
      13A     -0.918147    14A     -0.876456    15A     -0.853029
      16A     -0.836899    17A     -0.791862    18A     -0.757407
      19A     -0.745772    20A     -0.739380    21A     -0.724865
      22A     -0.715741    23A     -0.710960    24A     -0.673951
      25A     -0.624538

  @DF-RHF Final Energy:  -287.65824435865306

   => Energetics <=

    Nuclear Repulsion Energy =            278.4104295025583156
    One-Electron Energy =                -932.3794350905542387
    Two-Electron Energy =                 366.3107612293429156
    Total Energy =                       -287.6582443586530644
  Basis Set: (AUG-CC-PVTZ AUX)
    Blend: AUG-CC-PVTZ-RI
    Molecular point group: c1

    Geometry (in Angstrom), charge = 1, multiplicity = 1:

       Center              X                  Y                   Z               Mass
    ------------   -----------------  -----------------  -----------------  -----------------
         O           -1.743629915815     0.053364445119    -0.870660790047    15.994914619570
         N            0.742734084185     0.010893445119    -0.172949790047    14.003074004430
         C           -0.234066915815    -0.704198554881     0.722096209953    12.000000000000
         C            0.988292084185     1.425621445119     0.249928209953    12.000000000000
         C            2.023264084185    -0.750046554881    -0.315373790047    12.000000000000
         C           -1.617097915815    -0.100001554881     0.541517209953    12.000000000000
         H            0.253097784185     0.047307745119    -1.105058990047     1.007825032230
         H           -0.238410915815    -1.747080554881     0.398646209953     1.007825032230
         H            0.129071084185    -0.641680554881     1.750888209953     1.007825032230
         H            1.397010084185     1.419103445119     1.260658209953     1.007825032230
         H            1.701522084185     1.873788445119    -0.441445790047     1.007825032230
         H            0.049576084185     1.974523445119     0.214091209953     1.007825032230
         H            2.497593084185    -0.814128554881     0.664072209953     1.007825032230
         H            1.800391084185    -1.747005554881    -0.694373790047     1.007825032230
         H            2.670711084185    -0.219761554881    -1.013355790047     1.007825032230
         H           -2.357185915815    -0.793514554881     0.955637209953     1.007825032230
         H           -1.716366915815     0.858406445119     1.064104209953     1.007825032230
         H           -2.650724915815     0.323270445119    -1.099198790047     1.007825032230

  Basis Set: AUG-CC-PVTZ
    Blend: AUG-CC-PVTZ
  Basis Set: (AUG-CC-PVTZ AUX)
    Blend: AUG-CC-PVTZ-JKFIT
	 Reference Energy          =    -287.6582443586530644 [Eh]
	 Singles Energy            =      -0.0000000000000000 [Eh]
	 Same-Spin Energy          =      -0.2852126066643390 [Eh]
	 Opposite-Spin Energy      =      -0.9998501338647480 [Eh]
	 Correlation Energy        =      -1.2850627405290869 [Eh]
	 Total Energy              =    -288.9433070991821637 [Eh]

	 ================> DF-SCS-MP2 Energies <==================
	-----------------------------------------------------------
	 SCS Same-Spin Scale       =       0.3333333333333333 [-]
	 SCS Opposite-Spin Scale   =       1.2000000000000000 [-]
	 SCS Same-Spin Energy      =      -0.0950708688881130 [Eh]
	 SCS Opposite-Spin Energy  =      -1.1998201606376975 [Eh]
	 SCS Correlation Energy    =      -1.2948910295258105 [Eh]
	 SCS Total Energy          =    -288.9531353881788505 [Eh]
	-----------------------------------------------------------

  Dipole Moment: [D]
     X:     1.3458      Y:     0.3092      Z:     0.6391     Total:     1.5216

*** Psi4 exiting successfully. Buy a developer a beer!
