                               Psi4 1.4a3.dev225

  ==> Input File <==

--------------------------------------------------------------------------
#psi4
#
memory 32 gb

molecule  {
1 1
  O       -1.7781010     0.0481890    -0.8899830
  N        0.7082630     0.0057180    -0.1922720
  C       -0.2685380    -0.7093740     0.7027740
  C        0.9764378     1.4025350     0.2741660
  C        1.9887930    -0.7552220    -0.3346960
  C       -1.6515690    -0.1051770     0.5221950
  H        0.2279220     0.0414410    -1.1066860
  H       -0.2728820    -1.7522560     0.3793240
  H        0.0946000    -0.6468560     1.7315660
  H        1.3625390     1.4139280     1.2413360
  H        1.6670510     1.8686130    -0.4607680
  H        0.0151050     1.9693480     0.1947690
  H        2.4631220    -0.8193040     0.6447500
  H        1.7659200    -1.7521810    -0.7136960
  H        2.6362400    -0.2249370    -1.0326780
  H       -2.3916570    -0.7986900     0.9363150
  H       -1.7508380     0.8532310     1.0447820
  H       -2.6851960     0.3180950    -1.1185210
units angstrom
no_reorient  #important for SAPT in psi4, default
symmetry c1  #important for SAPT in psi4, default
}

set PROPERTIES_ORIGIN ["COM"]
properties('MP2/aug-cc-pvtz', properties = ['dipole'])
--------------------------------------------------------------------------

    Molecular point group: c1
  Charge       = 1
  Multiplicity = 1
  Basis Set: AUG-CC-PVTZ
    Blend: AUG-CC-PVTZ
  Basis Set: (AUG-CC-PVTZ AUX)
    Blend: AUG-CC-PVTZ-JKFIT

    Orbital Energies [Eh]
    ---------------------

    Doubly Occupied:

       1A    -20.733071     2A    -15.856627     3A    -11.456823
       4A    -11.453920     5A    -11.449452     6A    -11.449175
       7A     -1.539533     8A     -1.487416     9A     -1.206542
      10A     -1.165179    11A     -1.094395    12A     -1.026082
      13A     -0.918023    14A     -0.876432    15A     -0.852744
      16A     -0.838779    17A     -0.791002    18A     -0.769143
      19A     -0.746018    20A     -0.739059    21A     -0.720256
      22A     -0.713329    23A     -0.710276    24A     -0.673815
      25A     -0.624048

  @DF-RHF Final Energy:  -287.65587133605590

   => Energetics <=

    Nuclear Repulsion Energy =            278.5269009159392226
    One-Electron Energy =                -932.5832684992501527
    Two-Electron Energy =                 366.4004962472550346
    Total Energy =                       -287.6558713360558954
  Basis Set: (AUG-CC-PVTZ AUX)
    Blend: AUG-CC-PVTZ-RI
    Molecular point group: c1

    Geometry (in Angstrom), charge = 1, multiplicity = 1:

       Center              X                  Y                   Z               Mass
    ------------   -----------------  -----------------  -----------------  -----------------
         O           -1.746746396545     0.055757876002    -0.876660815925    15.994914619570
         N            0.739617603455     0.013286876002    -0.178949815925    14.003074004430
         C           -0.237183396545    -0.701805123998     0.716096184075    12.000000000000
         C            1.007792403455     1.410103876002     0.287488184075    12.000000000000
         C            2.020147603455    -0.747653123998    -0.321373815925    12.000000000000
         C           -1.620214396545    -0.097608123998     0.535517184075    12.000000000000
         H            0.259276603455     0.049009876002    -1.093363815925     1.007825032230
         H           -0.241527396545    -1.744687123998     0.392646184075     1.007825032230
         H            0.125954603455    -0.639287123998     1.744888184075     1.007825032230
         H            1.393893603455     1.421496876002     1.254658184075     1.007825032230
         H            1.698405603455     1.876181876002    -0.447445815925     1.007825032230
         H            0.046459603455     1.976916876002     0.208091184075     1.007825032230
         H            2.494476603455    -0.811735123998     0.658072184075     1.007825032230
         H            1.797274603455    -1.744612123998    -0.700373815925     1.007825032230
         H            2.667594603455    -0.217368123998    -1.019355815925     1.007825032230
         H           -2.360302396545    -0.791121123998     0.949637184075     1.007825032230
         H           -1.719483396545     0.860799876002     1.058104184075     1.007825032230
         H           -2.653841396545     0.325663876002    -1.105198815925     1.007825032230

  Basis Set: AUG-CC-PVTZ
    Blend: AUG-CC-PVTZ
  Basis Set: (AUG-CC-PVTZ AUX)
    Blend: AUG-CC-PVTZ-JKFIT
	 Reference Energy          =    -287.6558713360558954 [Eh]
	 Singles Energy            =      -0.0000000000000000 [Eh]
	 Same-Spin Energy          =      -0.2851045423044605 [Eh]
	 Opposite-Spin Energy      =      -0.9996600962445367 [Eh]
	 Correlation Energy        =      -1.2847646385489973 [Eh]
	 Total Energy              =    -288.9406359746049020 [Eh]

	 ================> DF-SCS-MP2 Energies <==================
	-----------------------------------------------------------
	 SCS Same-Spin Scale       =       0.3333333333333333 [-]
	 SCS Opposite-Spin Scale   =       1.2000000000000000 [-]
	 SCS Same-Spin Energy      =      -0.0950348474348202 [Eh]
	 SCS Opposite-Spin Energy  =      -1.1995921154934439 [Eh]
	 SCS Correlation Energy    =      -1.2946269629282641 [Eh]
	 SCS Total Energy          =    -288.9504982989841437 [Eh]
	-----------------------------------------------------------

  Dipole Moment: [D]
     X:     1.3653      Y:     0.3201      Z:     0.6591     Total:     1.5495

*** Psi4 exiting successfully. Buy a developer a beer!
