                               Psi4 1.4a3.dev225

  ==> Input File <==

--------------------------------------------------------------------------
#psi4
#
memory 32 gb

molecule  {
1 1
  O       -1.7781010     0.0481890    -0.8899830
  N        0.7082630     0.0057180    -0.1922720
  C       -0.1387758    -0.6143783     0.5838724
  C        0.9538210     1.4204460     0.2306060
  C        1.9887930    -0.7552220    -0.3346960
  C       -1.6515690    -0.1051770     0.5221950
  H        0.2279220     0.0414410    -1.1066860
  H       -0.2728820    -1.7522560     0.3793240
  H        0.0946000    -0.6468560     1.7315660
  H        1.3625390     1.4139280     1.2413360
  H        1.6670510     1.8686130    -0.4607680
  H        0.0151050     1.9693480     0.1947690
  H        2.4631220    -0.8193040     0.6447500
  H        1.7659200    -1.7521810    -0.7136960
  H        2.6362400    -0.2249370    -1.0326780
  H       -2.3916570    -0.7986900     0.9363150
  H       -1.7508380     0.8532310     1.0447820
  H       -2.6851960     0.3180950    -1.1185210
units angstrom
no_reorient  #important for SAPT in psi4, default
symmetry c1  #important for SAPT in psi4, default
}

set PROPERTIES_ORIGIN ["COM"]
properties('MP2/aug-cc-pvtz', properties = ['dipole'])
--------------------------------------------------------------------------

    Molecular point group: c1
  Charge       = 1
  Multiplicity = 1
  Basis Set: AUG-CC-PVTZ
    Blend: AUG-CC-PVTZ
  Basis Set: (AUG-CC-PVTZ AUX)
    Blend: AUG-CC-PVTZ-JKFIT

    Orbital Energies [Eh]
    ---------------------

    Doubly Occupied:

       1A    -20.729928     2A    -15.863769     3A    -11.455664
       4A    -11.455582     5A    -11.455458     6A    -11.453347
       7A     -1.560806     8A     -1.520204     9A     -1.200409
      10A     -1.178259    11A     -1.103398    12A     -1.033523
      13A     -0.932033    14A     -0.885586    15A     -0.857400
      16A     -0.852471    17A     -0.791628    18A     -0.761978
      19A     -0.759468    20A     -0.748636    21A     -0.731282
      22A     -0.713524    23A     -0.669244    24A     -0.651681
      25A     -0.615919

  @DF-RHF Final Energy:  -287.61500012756818

   => Energetics <=

    Nuclear Repulsion Energy =            281.2992354759225577
    One-Electron Energy =                -937.8660762343495207
    Two-Electron Energy =                 368.9518406308587259
    Total Energy =                       -287.6150001275681802
  Basis Set: (AUG-CC-PVTZ AUX)
    Blend: AUG-CC-PVTZ-RI
    Molecular point group: c1

    Geometry (in Angstrom), charge = 1, multiplicity = 1:

       Center              X                  Y                   Z               Mass
    ------------   -----------------  -----------------  -----------------  -----------------
         O           -1.761017878851     0.040719003858    -0.855021362902    15.994914619570
         N            0.725346121149    -0.001751996142    -0.157310362902    14.003074004430
         C           -0.121692678851    -0.621848296142     0.618834037098    12.000000000000
         C            0.970904121149     1.412976003858     0.265567637098    12.000000000000
         C            2.005876121149    -0.762691996142    -0.299734362902    12.000000000000
         C           -1.634485878851    -0.112646996142     0.557156637098    12.000000000000
         H            0.245005121149     0.033971003858    -1.071724362902     1.007825032230
         H           -0.255798878851    -1.759725996142     0.414285637098     1.007825032230
         H            0.111683121149    -0.654325996142     1.766527637098     1.007825032230
         H            1.379622121149     1.406458003858     1.276297637098     1.007825032230
         H            1.684134121149     1.861143003858    -0.425806362902     1.007825032230
         H            0.032188121149     1.961878003858     0.229730637098     1.007825032230
         H            2.480205121149    -0.826773996142     0.679711637098     1.007825032230
         H            1.783003121149    -1.759650996142    -0.678734362902     1.007825032230
         H            2.653323121149    -0.232406996142    -0.997716362902     1.007825032230
         H           -2.374573878851    -0.806159996142     0.971276637098     1.007825032230
         H           -1.733754878851     0.845761003858     1.079743637098     1.007825032230
         H           -2.668112878851     0.310625003858    -1.083559362902     1.007825032230

  Basis Set: AUG-CC-PVTZ
    Blend: AUG-CC-PVTZ
  Basis Set: (AUG-CC-PVTZ AUX)
    Blend: AUG-CC-PVTZ-JKFIT
	 Reference Energy          =    -287.6150001275681802 [Eh]
	 Singles Energy            =      -0.0000000000000000 [Eh]
	 Same-Spin Energy          =      -0.2873755117822991 [Eh]
	 Opposite-Spin Energy      =      -1.0018486292747322 [Eh]
	 Correlation Energy        =      -1.2892241410570313 [Eh]
	 Total Energy              =    -288.9042242686252280 [Eh]

	 ================> DF-SCS-MP2 Energies <==================
	-----------------------------------------------------------
	 SCS Same-Spin Scale       =       0.3333333333333333 [-]
	 SCS Opposite-Spin Scale   =       1.2000000000000000 [-]
	 SCS Same-Spin Energy      =      -0.0957918372607664 [Eh]
	 SCS Opposite-Spin Energy  =      -1.2022183551296786 [Eh]
	 SCS Correlation Energy    =      -1.2980101923904450 [Eh]
	 SCS Total Energy          =    -288.9130103199586301 [Eh]
	-----------------------------------------------------------

  Dipole Moment: [D]
     X:     1.5428      Y:     0.4334      Z:     0.5399     Total:     1.6910

*** Psi4 exiting successfully. Buy a developer a beer!
