                               Psi4 1.4a3.dev225

  ==> Input File <==

--------------------------------------------------------------------------
#psi4
#
memory 32 gb

molecule  {
1 1
  O       -1.7781010     0.0481890    -0.8899830
  N        0.7082630     0.0057180    -0.1922720
  C       -0.2685380    -0.7093740     0.7027740
  C        0.9374161     1.3259327     0.2023549
  C        1.9887930    -0.7552220    -0.3346960
  C       -1.6515690    -0.1051770     0.5221950
  H        0.2279220     0.0414410    -1.1066860
  H       -0.2728820    -1.7522560     0.3793240
  H        0.0946000    -0.6468560     1.7315660
  H        1.3625390     1.4139280     1.2413360
  H        1.6670510     1.8686130    -0.4607680
  H        0.0151050     1.9693480     0.1947690
  H        2.4631220    -0.8193040     0.6447500
  H        1.7659200    -1.7521810    -0.7136960
  H        2.6362400    -0.2249370    -1.0326780
  H       -2.3916570    -0.7986900     0.9363150
  H       -1.7508380     0.8532310     1.0447820
  H       -2.6851960     0.3180950    -1.1185210
units angstrom
no_reorient  #important for SAPT in psi4, default
symmetry c1  #important for SAPT in psi4, default
}

set PROPERTIES_ORIGIN ["COM"]
properties('MP2/aug-cc-pvtz', properties = ['dipole'])
--------------------------------------------------------------------------

    Molecular point group: c1
  Charge       = 1
  Multiplicity = 1
  Basis Set: AUG-CC-PVTZ
    Blend: AUG-CC-PVTZ
  Basis Set: (AUG-CC-PVTZ AUX)
    Blend: AUG-CC-PVTZ-JKFIT

    Orbital Energies [Eh]
    ---------------------

    Doubly Occupied:

       1A    -20.734259     2A    -15.860323     3A    -11.459776
       4A    -11.455344     5A    -11.452249     6A    -11.447633
       7A     -1.544710     8A     -1.507951     9A     -1.211715
      10A     -1.171280    11A     -1.091253    12A     -1.028816
      13A     -0.928058    14A     -0.882161    15A     -0.857461
      16A     -0.848871    17A     -0.798556    18A     -0.751271
      19A     -0.749958    20A     -0.742029    21A     -0.720508
      22A     -0.704142    23A     -0.701727    24A     -0.673981
      25A     -0.625506

  @DF-RHF Final Energy:  -287.64929080485922

   => Energetics <=

    Nuclear Repulsion Energy =            280.3272689938485200
    One-Electron Energy =                -936.0540427277809385
    Two-Electron Energy =                 368.0774829290731986
    Total Energy =                       -287.6492908048592199
  Basis Set: (AUG-CC-PVTZ AUX)
    Blend: AUG-CC-PVTZ-RI
    Molecular point group: c1

    Geometry (in Angstrom), charge = 1, multiplicity = 1:

       Center              X                  Y                   Z               Mass
    ------------   -----------------  -----------------  -----------------  -----------------
         O           -1.741548809890     0.065961098624    -0.867095768400    15.994914619570
         N            0.744815190110     0.023490098624    -0.169384768400    14.003074004430
         C           -0.231985809890    -0.691601901376     0.725661231600    12.000000000000
         C            0.973968290110     1.343704798624     0.225242131600    12.000000000000
         C            2.025345190110    -0.737449901376    -0.311808768400    12.000000000000
         C           -1.615016809890    -0.087404901376     0.545082231600    12.000000000000
         H            0.264474190110     0.059213098624    -1.083798768400     1.007825032230
         H           -0.236329809890    -1.734483901376     0.402211231600     1.007825032230
         H            0.131152190110    -0.629083901376     1.754453231600     1.007825032230
         H            1.399091190110     1.431700098624     1.264223231600     1.007825032230
         H            1.703603190110     1.886385098624    -0.437880768400     1.007825032230
         H            0.051657190110     1.987120098624     0.217656231600     1.007825032230
         H            2.499674190110    -0.801531901376     0.667637231600     1.007825032230
         H            1.802472190110    -1.734408901376    -0.690808768400     1.007825032230
         H            2.672792190110    -0.207164901376    -1.009790768400     1.007825032230
         H           -2.355104809890    -0.780917901376     0.959202231600     1.007825032230
         H           -1.714285809890     0.871003098624     1.067669231600     1.007825032230
         H           -2.648643809890     0.335867098624    -1.095633768400     1.007825032230

  Basis Set: AUG-CC-PVTZ
    Blend: AUG-CC-PVTZ
  Basis Set: (AUG-CC-PVTZ AUX)
    Blend: AUG-CC-PVTZ-JKFIT
	 Reference Energy          =    -287.6492908048592199 [Eh]
	 Singles Energy            =      -0.0000000000000000 [Eh]
	 Same-Spin Energy          =      -0.2860673164054748 [Eh]
	 Opposite-Spin Energy      =      -0.9999738539461245 [Eh]
	 Correlation Energy        =      -1.2860411703515993 [Eh]
	 Total Energy              =    -288.9353319752108291 [Eh]

	 ================> DF-SCS-MP2 Energies <==================
	-----------------------------------------------------------
	 SCS Same-Spin Scale       =       0.3333333333333333 [-]
	 SCS Opposite-Spin Scale   =       1.2000000000000000 [-]
	 SCS Same-Spin Energy      =      -0.0953557721351583 [Eh]
	 SCS Opposite-Spin Energy  =      -1.1999686247353494 [Eh]
	 SCS Correlation Energy    =      -1.2953243968705077 [Eh]
	 SCS Total Energy          =    -288.9446152017297322 [Eh]
	-----------------------------------------------------------

  Dipole Moment: [D]
     X:     1.3364      Y:     0.1973      Z:     0.6400     Total:     1.4948

*** Psi4 exiting successfully. Buy a developer a beer!
