                               Psi4 1.4a3.dev225

  ==> Input File <==

--------------------------------------------------------------------------
#psi4
#
memory 32 gb

molecule  {
1 1
  O       -1.7781010     0.0481890    -0.8899830
  N        0.7082630     0.0057180    -0.1922720
  C       -0.2685380    -0.7093740     0.7027740
  C        0.9538210     1.4204460     0.2306060
  C        1.9887930    -0.7552220    -0.3346960
  C       -1.6515690    -0.1051770     0.5221950
  H        0.2279220     0.0414410    -1.1066860
  H       -0.2728820    -1.7522560     0.3793240
  H        0.0946000    -0.6468560     1.7315660
  H        1.4208929     1.3730424     1.2146104
  H        1.6670510     1.8686130    -0.4607680
  H        0.0151050     1.9693480     0.1947690
  H        2.4631220    -0.8193040     0.6447500
  H        1.7659200    -1.7521810    -0.7136960
  H        2.6362400    -0.2249370    -1.0326780
  H       -2.3916570    -0.7986900     0.9363150
  H       -1.7508380     0.8532310     1.0447820
  H       -2.6851960     0.3180950    -1.1185210
units angstrom
no_reorient  #important for SAPT in psi4, default
symmetry c1  #important for SAPT in psi4, default
}

set PROPERTIES_ORIGIN ["COM"]
properties('MP2/aug-cc-pvtz', properties = ['dipole'])
--------------------------------------------------------------------------

    Molecular point group: c1
  Charge       = 1
  Multiplicity = 1
  Basis Set: AUG-CC-PVTZ
    Blend: AUG-CC-PVTZ
  Basis Set: (AUG-CC-PVTZ AUX)
    Blend: AUG-CC-PVTZ-JKFIT

    Orbital Energies [Eh]
    ---------------------

    Doubly Occupied:

       1A    -20.733165     2A    -15.855625     3A    -11.456880
       4A    -11.454107     5A    -11.449678     6A    -11.449492
       7A     -1.539645     8A     -1.487115     9A     -1.206722
      10A     -1.165994    11A     -1.093240    12A     -1.024765
      13A     -0.919065    14A     -0.876986    15A     -0.854580
      16A     -0.835808    17A     -0.792151    18A     -0.757542
      19A     -0.747037    20A     -0.739845    21A     -0.724935
      22A     -0.717488    23A     -0.711633    24A     -0.673819
      25A     -0.624359

  @DF-RHF Final Energy:  -287.65873861125647

   => Energetics <=

    Nuclear Repulsion Energy =            278.5551042089975340
    One-Electron Energy =                -932.6443358679841822
    Two-Electron Energy =                 366.4304930477301241
    Total Energy =                       -287.6587386112564673
  Basis Set: (AUG-CC-PVTZ AUX)
    Blend: AUG-CC-PVTZ-RI
    Molecular point group: c1

    Geometry (in Angstrom), charge = 1, multiplicity = 1:

       Center              X                  Y                   Z               Mass
    ------------   -----------------  -----------------  -----------------  -----------------
         O           -1.744386682688     0.053829550702    -0.870559770263    15.994914619570
         N            0.741977317312     0.011358550702    -0.172848770263    14.003074004430
         C           -0.234823682688    -0.703733449298     0.722197229737    12.000000000000
         C            0.987535317312     1.426086550702     0.250029229737    12.000000000000
         C            2.022507317312    -0.749581449298    -0.315272770263    12.000000000000
         C           -1.617854682688    -0.099536449298     0.541618229737    12.000000000000
         H            0.261636317312     0.047081550702    -1.087262770263     1.007825032230
         H           -0.239167682688    -1.746615449298     0.398747229737     1.007825032230
         H            0.128314317312    -0.641215449298     1.750989229737     1.007825032230
         H            1.454607217312     1.378682950702     1.234033629737     1.007825032230
         H            1.700765317312     1.874253550702    -0.441344770263     1.007825032230
         H            0.048819317312     1.974988550702     0.214192229737     1.007825032230
         H            2.496836317312    -0.813663449298     0.664173229737     1.007825032230
         H            1.799634317312    -1.746540449298    -0.694272770263     1.007825032230
         H            2.669954317312    -0.219296449298    -1.013254770263     1.007825032230
         H           -2.357942682688    -0.793049449298     0.955738229737     1.007825032230
         H           -1.717123682688     0.858871550702     1.064205229737     1.007825032230
         H           -2.651481682688     0.323735550702    -1.099097770263     1.007825032230

  Basis Set: AUG-CC-PVTZ
    Blend: AUG-CC-PVTZ
  Basis Set: (AUG-CC-PVTZ AUX)
    Blend: AUG-CC-PVTZ-JKFIT
	 Reference Energy          =    -287.6587386112564673 [Eh]
	 Singles Energy            =      -0.0000000000000000 [Eh]
	 Same-Spin Energy          =      -0.2850797071259604 [Eh]
	 Opposite-Spin Energy      =      -0.9995040265394529 [Eh]
	 Correlation Energy        =      -1.2845837336654133 [Eh]
	 Total Energy              =    -288.9433223449218531 [Eh]

	 ================> DF-SCS-MP2 Energies <==================
	-----------------------------------------------------------
	 SCS Same-Spin Scale       =       0.3333333333333333 [-]
	 SCS Opposite-Spin Scale   =       1.2000000000000000 [-]
	 SCS Same-Spin Energy      =      -0.0950265690419868 [Eh]
	 SCS Opposite-Spin Energy  =      -1.1994048318473434 [Eh]
	 SCS Correlation Energy    =      -1.2944314008893301 [Eh]
	 SCS Total Energy          =    -288.9531700121457902 [Eh]
	-----------------------------------------------------------

  Dipole Moment: [D]
     X:     1.3887      Y:     0.3012      Z:     0.6416     Total:     1.5591

*** Psi4 exiting successfully. Buy a developer a beer!
