                               Psi4 1.4a3.dev225

  ==> Input File <==

--------------------------------------------------------------------------
#psi4
#
memory 32 gb

molecule  {
1 1
  O       -1.7781010     0.0481890    -0.8899830
  N        0.7082630     0.0057180    -0.1922720
  C       -0.2685380    -0.7093740     0.7027740
  C        0.9538210     1.4204460     0.2306060
  C        1.9887930    -0.7552220    -0.3346960
  C       -1.6515690    -0.1051770     0.5221950
  H        0.2279220     0.0414410    -1.1066860
  H       -0.2728820    -1.7522560     0.3793240
  H        0.0946000    -0.6468560     1.7315660
  H        1.4250691     1.4471032     1.2133993
  H        1.6670510     1.8686130    -0.4607680
  H        0.0151050     1.9693480     0.1947690
  H        2.4631220    -0.8193040     0.6447500
  H        1.7659200    -1.7521810    -0.7136960
  H        2.6362400    -0.2249370    -1.0326780
  H       -2.3916570    -0.7986900     0.9363150
  H       -1.7508380     0.8532310     1.0447820
  H       -2.6851960     0.3180950    -1.1185210
units angstrom
no_reorient  #important for SAPT in psi4, default
symmetry c1  #important for SAPT in psi4, default
}

set PROPERTIES_ORIGIN ["COM"]
properties('MP2/aug-cc-pvtz', properties = ['dipole'])
--------------------------------------------------------------------------

    Molecular point group: c1
  Charge       = 1
  Multiplicity = 1
  Basis Set: AUG-CC-PVTZ
    Blend: AUG-CC-PVTZ
  Basis Set: (AUG-CC-PVTZ AUX)
    Blend: AUG-CC-PVTZ-JKFIT

    Orbital Energies [Eh]
    ---------------------

    Doubly Occupied:

       1A    -20.733153     2A    -15.856868     3A    -11.456889
       4A    -11.454070     5A    -11.449694     6A    -11.448715
       7A     -1.539650     8A     -1.487136     9A     -1.206691
      10A     -1.165776    11A     -1.093430    12A     -1.024688
      13A     -0.919199    14A     -0.876830    15A     -0.854276
      16A     -0.837666    17A     -0.792446    18A     -0.756343
      19A     -0.747108    20A     -0.739909    21A     -0.724676
      22A     -0.715876    23A     -0.711310    24A     -0.673957
      25A     -0.624321

  @DF-RHF Final Energy:  -287.65884083840723

   => Energetics <=

    Nuclear Repulsion Energy =            278.4327802793249589
    One-Electron Energy =                -932.4018898670371982
    Two-Electron Energy =                 366.3102687493049530
    Total Energy =                       -287.6588408384072295
  Basis Set: (AUG-CC-PVTZ AUX)
    Blend: AUG-CC-PVTZ-RI
    Molecular point group: c1

    Geometry (in Angstrom), charge = 1, multiplicity = 1:

       Center              X                  Y                   Z               Mass
    ------------   -----------------  -----------------  -----------------  -----------------
         O           -1.744433400311     0.053001059603    -0.870546222130    15.994914619570
         N            0.741930599689     0.010530059603    -0.172835222130    14.003074004430
         C           -0.234870400311    -0.704561940397     0.722210777870    12.000000000000
         C            0.987488599689     1.425258059603     0.250042777870    12.000000000000
         C            2.022460599689    -0.750409940397    -0.315259222130    12.000000000000
         C           -1.617901400311    -0.100364940397     0.541631777870    12.000000000000
         H            0.261589599689     0.046253059603    -1.087249222130     1.007825032230
         H           -0.239214400311    -1.747443940397     0.398760777870     1.007825032230
         H            0.128267599689    -0.642043940397     1.751002777870     1.007825032230
         H            1.458736699689     1.451915259603     1.232836077870     1.007825032230
         H            1.700718599689     1.873425059603    -0.441331222130     1.007825032230
         H            0.048772599689     1.974160059603     0.214205777870     1.007825032230
         H            2.496789599689    -0.814491940397     0.664186777870     1.007825032230
         H            1.799587599689    -1.747368940397    -0.694259222130     1.007825032230
         H            2.669907599689    -0.220124940397    -1.013241222130     1.007825032230
         H           -2.357989400311    -0.793877940397     0.955751777870     1.007825032230
         H           -1.717170400311     0.858043059603     1.064218777870     1.007825032230
         H           -2.651528400311     0.322907059603    -1.099084222130     1.007825032230

  Basis Set: AUG-CC-PVTZ
    Blend: AUG-CC-PVTZ
  Basis Set: (AUG-CC-PVTZ AUX)
    Blend: AUG-CC-PVTZ-JKFIT
	 Reference Energy          =    -287.6588408384072295 [Eh]
	 Singles Energy            =      -0.0000000000000000 [Eh]
	 Same-Spin Energy          =      -0.2850091163584074 [Eh]
	 Opposite-Spin Energy      =      -0.9993811228250256 [Eh]
	 Correlation Energy        =      -1.2843902391834330 [Eh]
	 Total Energy              =    -288.9432310775906672 [Eh]

	 ================> DF-SCS-MP2 Energies <==================
	-----------------------------------------------------------
	 SCS Same-Spin Scale       =       0.3333333333333333 [-]
	 SCS Opposite-Spin Scale   =       1.2000000000000000 [-]
	 SCS Same-Spin Energy      =      -0.0950030387861358 [Eh]
	 SCS Opposite-Spin Energy  =      -1.1992573473900305 [Eh]
	 SCS Correlation Energy    =      -1.2942603861761663 [Eh]
	 SCS Total Energy          =    -288.9531012245834063 [Eh]
	-----------------------------------------------------------

  Dipole Moment: [D]
     X:     1.3993      Y:     0.3128      Z:     0.6632     Total:     1.5798

*** Psi4 exiting successfully. Buy a developer a beer!
