                               Psi4 1.4a3.dev225

  ==> Input File <==

--------------------------------------------------------------------------
#psi4
#
memory 32 gb

molecule  {
1 1
  O       -1.7781010     0.0481890    -0.8899830
  N        0.7082630     0.0057180    -0.1922720
  C       -0.2685380    -0.7093740     0.7027740
  C        0.9538210     1.4204460     0.2306060
  C        1.9887930    -0.7552220    -0.3346960
  C       -1.6515690    -0.1051770     0.5221950
  H        0.2279220     0.0414410    -1.1066860
  H       -0.2728820    -1.7522560     0.3793240
  H        0.0946000    -0.6468560     1.7315660
  H        1.3625390     1.4139280     1.2413360
  H        1.7408783     1.7884069    -0.4271890
  H        0.0151050     1.9693480     0.1947690
  H        2.4631220    -0.8193040     0.6447500
  H        1.7659200    -1.7521810    -0.7136960
  H        2.6362400    -0.2249370    -1.0326780
  H       -2.3916570    -0.7986900     0.9363150
  H       -1.7508380     0.8532310     1.0447820
  H       -2.6851960     0.3180950    -1.1185210
units angstrom
no_reorient  #important for SAPT in psi4, default
symmetry c1  #important for SAPT in psi4, default
}

set PROPERTIES_ORIGIN ["COM"]
properties('MP2/aug-cc-pvtz', properties = ['dipole'])
--------------------------------------------------------------------------

    Molecular point group: c1
  Charge       = 1
  Multiplicity = 1
  Basis Set: AUG-CC-PVTZ
    Blend: AUG-CC-PVTZ
  Basis Set: (AUG-CC-PVTZ AUX)
    Blend: AUG-CC-PVTZ-JKFIT

    Orbital Energies [Eh]
    ---------------------

    Doubly Occupied:

       1A    -20.733240     2A    -15.855483     3A    -11.456619
       4A    -11.454363     5A    -11.449939     6A    -11.449640
       7A     -1.539731     8A     -1.487251     9A     -1.206985
      10A     -1.166041    11A     -1.093683    12A     -1.024888
      13A     -0.917223    14A     -0.877439    15A     -0.855340
      16A     -0.837204    17A     -0.792778    18A     -0.754682
      19A     -0.747907    20A     -0.741027    21A     -0.729799
      22A     -0.715236    23A     -0.709001    24A     -0.674334
      25A     -0.624460

  @DF-RHF Final Energy:  -287.65799705621919

   => Energetics <=

    Nuclear Repulsion Energy =            278.5984720882462398
    One-Electron Energy =                -932.7243500785651804
    Two-Electron Energy =                 366.4678809340997532
    Total Energy =                       -287.6579970562191875
  Basis Set: (AUG-CC-PVTZ AUX)
    Blend: AUG-CC-PVTZ-RI
    Molecular point group: c1

    Geometry (in Angstrom), charge = 1, multiplicity = 1:

       Center              X                  Y                   Z               Mass
    ------------   -----------------  -----------------  -----------------  -----------------
         O           -1.744559777958     0.054269414763    -0.871234375781    15.994914619570
         N            0.741804222042     0.011798414763    -0.173523375781    14.003074004430
         C           -0.234996777958    -0.703293585237     0.721522624219    12.000000000000
         C            0.987362222042     1.426526414763     0.249354624219    12.000000000000
         C            2.022334222042    -0.749141585237    -0.315947375781    12.000000000000
         C           -1.618027777958    -0.099096585237     0.540943624219    12.000000000000
         H            0.261463222042     0.047521414763    -1.087937375781     1.007825032230
         H           -0.239340777958    -1.746175585237     0.398072624219     1.007825032230
         H            0.128141222042    -0.640775585237     1.750314624219     1.007825032230
         H            1.396080222042     1.420008414763     1.260084624219     1.007825032230
         H            1.774419522042     1.794487314763    -0.408440375781     1.007825032230
         H            0.048646222042     1.975428414763     0.213517624219     1.007825032230
         H            2.496663222042    -0.813223585237     0.663498624219     1.007825032230
         H            1.799461222042    -1.746100585237    -0.694947375781     1.007825032230
         H            2.669781222042    -0.218856585237    -1.013929375781     1.007825032230
         H           -2.358115777958    -0.792609585237     0.955063624219     1.007825032230
         H           -1.717296777958     0.859311414763     1.063530624219     1.007825032230
         H           -2.651654777958     0.324175414763    -1.099772375781     1.007825032230

  Basis Set: AUG-CC-PVTZ
    Blend: AUG-CC-PVTZ
  Basis Set: (AUG-CC-PVTZ AUX)
    Blend: AUG-CC-PVTZ-JKFIT
	 Reference Energy          =    -287.6579970562191875 [Eh]
	 Singles Energy            =      -0.0000000000000000 [Eh]
	 Same-Spin Energy          =      -0.2851163494577446 [Eh]
	 Opposite-Spin Energy      =      -0.9995876764659508 [Eh]
	 Correlation Energy        =      -1.2847040259236953 [Eh]
	 Total Energy              =    -288.9427010821428894 [Eh]

	 ================> DF-SCS-MP2 Energies <==================
	-----------------------------------------------------------
	 SCS Same-Spin Scale       =       0.3333333333333333 [-]
	 SCS Opposite-Spin Scale   =       1.2000000000000000 [-]
	 SCS Same-Spin Energy      =      -0.0950387831525815 [Eh]
	 SCS Opposite-Spin Energy  =      -1.1995052117591409 [Eh]
	 SCS Correlation Energy    =      -1.2945439949117223 [Eh]
	 SCS Total Energy          =    -288.9525410511309360 [Eh]
	-----------------------------------------------------------

  Dipole Moment: [D]
     X:     1.3907      Y:     0.2749      Z:     0.6902     Total:     1.5767

*** Psi4 exiting successfully. Buy a developer a beer!
