                               Psi4 1.4a3.dev225

  ==> Input File <==

--------------------------------------------------------------------------
#psi4
#
memory 32 gb

molecule  {
1 1
  O       -1.7781010     0.0481890    -0.8899830
  N        0.7082630     0.0057180    -0.1922720
  C       -0.2685380    -0.7093740     0.7027740
  C        0.9538210     1.4204460     0.2306060
  C        1.9887930    -0.7552220    -0.3346960
  C       -1.6515690    -0.1051770     0.5221950
  H        0.2279220     0.0414410    -1.1066860
  H       -0.2728820    -1.7522560     0.3793240
  H        0.0946000    -0.6468560     1.7315660
  H        1.3625390     1.4139280     1.2413360
  H        1.6670510     1.8686130    -0.4607680
  H        0.0151050     1.9693480     0.1947690
  H        2.4631220    -0.8193040     0.6447500
  H        1.7250111    -1.9351755    -0.7832624
  H        2.6362400    -0.2249370    -1.0326780
  H       -2.3916570    -0.7986900     0.9363150
  H       -1.7508380     0.8532310     1.0447820
  H       -2.6851960     0.3180950    -1.1185210
units angstrom
no_reorient  #important for SAPT in psi4, default
symmetry c1  #important for SAPT in psi4, default
}

set PROPERTIES_ORIGIN ["COM"]
properties('MP2/aug-cc-pvtz', properties = ['dipole'])
--------------------------------------------------------------------------

    Molecular point group: c1
  Charge       = 1
  Multiplicity = 1
  Basis Set: AUG-CC-PVTZ
    Blend: AUG-CC-PVTZ
  Basis Set: (AUG-CC-PVTZ AUX)
    Blend: AUG-CC-PVTZ-JKFIT

    Orbital Energies [Eh]
    ---------------------

    Doubly Occupied:

       1A    -20.733029     2A    -15.857535     3A    -11.468679
       4A    -11.456535     5A    -11.453961     6A    -11.450189
       7A     -1.539542     8A     -1.487187     9A     -1.205853
      10A     -1.158421    11A     -1.088115    12A     -1.024843
      13A     -0.914968    14A     -0.876888    15A     -0.850147
      16A     -0.833144    17A     -0.791645    18A     -0.758119
      19A     -0.745271    20A     -0.736499    21A     -0.717735
      22A     -0.714780    23A     -0.688218    24A     -0.674163
      25A     -0.624217

  @DF-RHF Final Energy:  -287.63820420879665

   => Energetics <=

    Nuclear Repulsion Energy =            277.7472685167389841
    One-Electron Energy =                -931.0715804550992516
    Two-Electron Energy =                 365.6861077295636733
    Total Energy =                       -287.6382042087966511
  Basis Set: (AUG-CC-PVTZ AUX)
    Blend: AUG-CC-PVTZ-RI
    Molecular point group: c1

    Geometry (in Angstrom), charge = 1, multiplicity = 1:

       Center              X                  Y                   Z               Mass
    ------------   -----------------  -----------------  -----------------  -----------------
         O           -1.743276266027     0.055419271023    -0.870080525892    15.994914619570
         N            0.743087733973     0.012948271023    -0.172369525892    14.003074004430
         C           -0.233713266027    -0.702143728977     0.722676474108    12.000000000000
         C            0.988645733973     1.427676271023     0.250508474108    12.000000000000
         C            2.023617733973    -0.747991728977    -0.314793525892    12.000000000000
         C           -1.616744266027    -0.097946728977     0.542097474108    12.000000000000
         H            0.262746733973     0.048671271023    -1.086783525892     1.007825032230
         H           -0.238057266027    -1.745025728977     0.399226474108     1.007825032230
         H            0.129424733973    -0.639625728977     1.751468474108     1.007825032230
         H            1.397363733973     1.421158271023     1.261238474108     1.007825032230
         H            1.701875733973     1.875843271023    -0.440865525892     1.007825032230
         H            0.049929733973     1.976578271023     0.214671474108     1.007825032230
         H            2.497946733973    -0.812073728977     0.664652474108     1.007825032230
         H            1.759835833973    -1.927945228977    -0.763359925892     1.007825032230
         H            2.671064733973    -0.217706728977    -1.012775525892     1.007825032230
         H           -2.356832266027    -0.791459728977     0.956217474108     1.007825032230
         H           -1.716013266027     0.860461271023     1.064684474108     1.007825032230
         H           -2.650371266027     0.325325271023    -1.098618525892     1.007825032230

  Basis Set: AUG-CC-PVTZ
    Blend: AUG-CC-PVTZ
  Basis Set: (AUG-CC-PVTZ AUX)
    Blend: AUG-CC-PVTZ-JKFIT
	 Reference Energy          =    -287.6382042087966511 [Eh]
	 Singles Energy            =      -0.0000000000000000 [Eh]
	 Same-Spin Energy          =      -0.2853014292925928 [Eh]
	 Opposite-Spin Energy      =      -1.0013215440608834 [Eh]
	 Correlation Energy        =      -1.2866229733534762 [Eh]
	 Total Energy              =    -288.9248271821501248 [Eh]

	 ================> DF-SCS-MP2 Energies <==================
	-----------------------------------------------------------
	 SCS Same-Spin Scale       =       0.3333333333333333 [-]
	 SCS Opposite-Spin Scale   =       1.2000000000000000 [-]
	 SCS Same-Spin Energy      =      -0.0951004764308643 [Eh]
	 SCS Opposite-Spin Energy  =      -1.2015858528730601 [Eh]
	 SCS Correlation Energy    =      -1.2966863293039244 [Eh]
	 SCS Total Energy          =    -288.9348905381006034 [Eh]
	-----------------------------------------------------------

  Dipole Moment: [D]
     X:     1.3705      Y:     0.3127      Z:     0.6589     Total:     1.5525

*** Psi4 exiting successfully. Buy a developer a beer!
