                               Psi4 1.4a3.dev225

  ==> Input File <==

--------------------------------------------------------------------------
#psi4
#
memory 32 gb

molecule  {
1 1
  O       -1.7781010     0.0481890    -0.8899830
  N        0.7082630     0.0057180    -0.1922720
  C       -0.2287265    -0.6229591     0.6558301
  C        0.9538210     1.4204460     0.2306060
  C        1.9887930    -0.7552220    -0.3346960
  C       -1.6515690    -0.1051770     0.5221950
  H        0.2279220     0.0414410    -1.1066860
  H       -0.2728820    -1.7522560     0.3793240
  H        0.0946000    -0.6468560     1.7315660
  H        1.3625390     1.4139280     1.2413360
  H        1.6670510     1.8686130    -0.4607680
  H        0.0151050     1.9693480     0.1947690
  H        2.4631220    -0.8193040     0.6447500
  H        1.7659200    -1.7521810    -0.7136960
  H        2.6362400    -0.2249370    -1.0326780
  H       -2.3916570    -0.7986900     0.9363150
  H       -1.7508380     0.8532310     1.0447820
  H       -2.6851960     0.3180950    -1.1185210
units angstrom
no_reorient  #important for SAPT in psi4, default
symmetry c1  #important for SAPT in psi4, default
}

set PROPERTIES_ORIGIN ["COM"]
properties('MP2/aug-cc-pvtz', properties = ['dipole'])
--------------------------------------------------------------------------

    Molecular point group: c1
  Charge       = 1
  Multiplicity = 1
  Basis Set: AUG-CC-PVTZ
    Blend: AUG-CC-PVTZ
  Basis Set: (AUG-CC-PVTZ AUX)
    Blend: AUG-CC-PVTZ-JKFIT

    Orbital Energies [Eh]
    ---------------------

    Doubly Occupied:

       1A    -20.731910     2A    -15.861631     3A    -11.455671
       4A    -11.453389     5A    -11.453317     6A    -11.451790
       7A     -1.544687     8A     -1.505699     9A     -1.205837
      10A     -1.171046    11A     -1.101515    12A     -1.026348
      13A     -0.923880    14A     -0.880184    15A     -0.854956
      16A     -0.845273    17A     -0.792980    18A     -0.758581
      19A     -0.749508    20A     -0.746560    21A     -0.727842
      22A     -0.713372    23A     -0.692262    24A     -0.671492
      25A     -0.619844

  @DF-RHF Final Energy:  -287.64773226975660

   => Energetics <=

    Nuclear Repulsion Energy =            280.0870119339570579
    One-Electron Energy =                -935.5903420276246152
    Two-Electron Energy =                 367.8555978239108981
    Total Energy =                       -287.6477322697566024
  Basis Set: (AUG-CC-PVTZ AUX)
    Blend: AUG-CC-PVTZ-RI
    Molecular point group: c1

    Geometry (in Angstrom), charge = 1, multiplicity = 1:

       Center              X                  Y                   Z               Mass
    ------------   -----------------  -----------------  -----------------  -----------------
         O           -1.749036684852     0.041861943596    -0.864605937157    15.994914619570
         N            0.737327315148    -0.000609056404    -0.166894937157    14.003074004430
         C           -0.199662184852    -0.629286156404     0.681207162843    12.000000000000
         C            0.982885315148     1.414118943596     0.255983062843    12.000000000000
         C            2.017857315148    -0.761549056404    -0.309318937157    12.000000000000
         C           -1.622504684852    -0.111504056404     0.547572062843    12.000000000000
         H            0.256986315148     0.035113943596    -1.081308937157     1.007825032230
         H           -0.243817684852    -1.758583056404     0.404701062843     1.007825032230
         H            0.123664315148    -0.653183056404     1.756943062843     1.007825032230
         H            1.391603315148     1.407600943596     1.266713062843     1.007825032230
         H            1.696115315148     1.862285943596    -0.435390937157     1.007825032230
         H            0.044169315148     1.963020943596     0.220146062843     1.007825032230
         H            2.492186315148    -0.825631056404     0.670127062843     1.007825032230
         H            1.794984315148    -1.758508056404    -0.688318937157     1.007825032230
         H            2.665304315148    -0.231264056404    -1.007300937157     1.007825032230
         H           -2.362592684852    -0.805017056404     0.961692062843     1.007825032230
         H           -1.721773684852     0.846903943596     1.070159062843     1.007825032230
         H           -2.656131684852     0.311767943596    -1.093143937157     1.007825032230

  Basis Set: AUG-CC-PVTZ
    Blend: AUG-CC-PVTZ
  Basis Set: (AUG-CC-PVTZ AUX)
    Blend: AUG-CC-PVTZ-JKFIT
	 Reference Energy          =    -287.6477322697566024 [Eh]
	 Singles Energy            =      -0.0000000000000000 [Eh]
	 Same-Spin Energy          =      -0.2859795080549110 [Eh]
	 Opposite-Spin Energy      =      -1.0001795207384083 [Eh]
	 Correlation Energy        =      -1.2861590287933193 [Eh]
	 Total Energy              =    -288.9338912985498951 [Eh]

	 ================> DF-SCS-MP2 Energies <==================
	-----------------------------------------------------------
	 SCS Same-Spin Scale       =       0.3333333333333333 [-]
	 SCS Opposite-Spin Scale   =       1.2000000000000000 [-]
	 SCS Same-Spin Energy      =      -0.0953265026849703 [Eh]
	 SCS Opposite-Spin Energy  =      -1.2002154248860899 [Eh]
	 SCS Correlation Energy    =      -1.2955419275710602 [Eh]
	 SCS Total Energy          =    -288.9432741973276393 [Eh]
	-----------------------------------------------------------

  Dipole Moment: [D]
     X:     1.4839      Y:     0.3592      Z:     0.5994     Total:     1.6402

*** Psi4 exiting successfully. Buy a developer a beer!
