                               Psi4 1.4a3.dev225

  ==> Input File <==

--------------------------------------------------------------------------
#psi4
#
memory 32 gb

molecule  {
1 1
  O       -1.7781010     0.0481890    -0.8899830
  N        0.7082630     0.0057180    -0.1922720
  C       -0.2685380    -0.7093740     0.7027740
  C        0.9538210     1.4204460     0.2306060
  C        1.9887930    -0.7552220    -0.3346960
  C       -1.6515690    -0.1051770     0.5221950
  H        0.2279220     0.0414410    -1.1066860
  H       -0.2728820    -1.7522560     0.3793240
  H        0.0946000    -0.6468560     1.7315660
  H        1.3625390     1.4139280     1.2413360
  H        1.6670510     1.8686130    -0.4607680
  H        0.0151050     1.9693480     0.1947690
  H        2.4631220    -0.8193040     0.6447500
  H        1.7659200    -1.7521810    -0.7136960
  H        2.6362400    -0.2249370    -1.0326780
  H       -2.3916570    -0.7986900     0.9363150
  H       -1.7508380     0.8532310     1.0447820
  H       -2.7038298     0.3236395    -1.1232157
units angstrom
no_reorient  #important for SAPT in psi4, default
symmetry c1  #important for SAPT in psi4, default
}

set PROPERTIES_ORIGIN ["COM"]
properties('MP2/aug-cc-pvtz', properties = ['dipole'])
--------------------------------------------------------------------------

    Molecular point group: c1
  Charge       = 1
  Multiplicity = 1
  Basis Set: AUG-CC-PVTZ
    Blend: AUG-CC-PVTZ
  Basis Set: (AUG-CC-PVTZ AUX)
    Blend: AUG-CC-PVTZ-JKFIT

    Orbital Energies [Eh]
    ---------------------

    Doubly Occupied:

       1A    -20.734434     2A    -15.856090     3A    -11.456833
       4A    -11.453794     5A    -11.449416     6A    -11.448959
       7A     -1.536076     8A     -1.486214     9A     -1.205657
      10A     -1.165899    11A     -1.092657    12A     -1.023688
      13A     -0.918353    14A     -0.875296    15A     -0.851758
      16A     -0.837028    17A     -0.791427    18A     -0.757465
      19A     -0.745683    20A     -0.738821    21A     -0.724989
      22A     -0.716844    23A     -0.711326    24A     -0.672948
      25A     -0.623596

  @DF-RHF Final Energy:  -287.65779690922159

   => Energetics <=

    Nuclear Repulsion Energy =            278.3893086990534016
    One-Electron Energy =                -932.3437151127712923
    Two-Electron Energy =                 366.2966095044962458
    Total Energy =                       -287.6577969092215881
  Basis Set: (AUG-CC-PVTZ AUX)
    Blend: AUG-CC-PVTZ-RI
    Molecular point group: c1

    Geometry (in Angstrom), charge = 1, multiplicity = 1:

       Center              X                  Y                   Z               Mass
    ------------   -----------------  -----------------  -----------------  -----------------
         O           -1.743525449429     0.053310154144    -0.870806221888    15.994914619570
         N            0.742838550571     0.010839154144    -0.173095221888    14.003074004430
         C           -0.233962449429    -0.704252845856     0.721950778112    12.000000000000
         C            0.988396550571     1.425567154144     0.249782778112    12.000000000000
         C            2.023368550571    -0.750100845856    -0.315519221888    12.000000000000
         C           -1.616993449429    -0.100055845856     0.541371778112    12.000000000000
         H            0.262497550571     0.046562154144    -1.087509221888     1.007825032230
         H           -0.238306449429    -1.747134845856     0.398500778112     1.007825032230
         H            0.129175550571    -0.641734845856     1.750742778112     1.007825032230
         H            1.397114550571     1.419049154144     1.260512778112     1.007825032230
         H            1.701626550571     1.873734154144    -0.441591221888     1.007825032230
         H            0.049680550571     1.974469154144     0.213945778112     1.007825032230
         H            2.497697550571    -0.814182845856     0.663926778112     1.007825032230
         H            1.800495550571    -1.747059845856    -0.694519221888     1.007825032230
         H            2.670815550571    -0.219815845856    -1.013501221888     1.007825032230
         H           -2.357081449429    -0.793568845856     0.955491778112     1.007825032230
         H           -1.716262449429     0.858352154144     1.063958778112     1.007825032230
         H           -2.669254249429     0.328760654144    -1.104038921888     1.007825032230

  Basis Set: AUG-CC-PVTZ
    Blend: AUG-CC-PVTZ
  Basis Set: (AUG-CC-PVTZ AUX)
    Blend: AUG-CC-PVTZ-JKFIT
	 Reference Energy          =    -287.6577969092215881 [Eh]
	 Singles Energy            =      -0.0000000000000000 [Eh]
	 Same-Spin Energy          =      -0.2852505371679041 [Eh]
	 Opposite-Spin Energy      =      -1.0000197249647429 [Eh]
	 Correlation Energy        =      -1.2852702621326471 [Eh]
	 Total Energy              =    -288.9430671713542438 [Eh]

	 ================> DF-SCS-MP2 Energies <==================
	-----------------------------------------------------------
	 SCS Same-Spin Scale       =       0.3333333333333333 [-]
	 SCS Opposite-Spin Scale   =       1.2000000000000000 [-]
	 SCS Same-Spin Energy      =      -0.0950835123893014 [Eh]
	 SCS Opposite-Spin Energy  =      -1.2000236699576914 [Eh]
	 SCS Correlation Energy    =      -1.2951071823469928 [Eh]
	 SCS Total Energy          =    -288.9529040915685982 [Eh]
	-----------------------------------------------------------

  Dipole Moment: [D]
     X:     1.3421      Y:     0.3160      Z:     0.6492     Total:     1.5240

*** Psi4 exiting successfully. Buy a developer a beer!
