                               Psi4 1.4a3.dev225

  ==> Input File <==

--------------------------------------------------------------------------
#psi4
#
memory 32 gb

molecule  {
1 1
  O       -1.7781010     0.0481890    -0.8899830
  N        0.7082630     0.0057180    -0.1922720
  C       -0.2685380    -0.7093740     0.7027740
  C        0.9538210     1.4204460     0.2306060
  C        1.9887930    -0.7552220    -0.3346960
  C       -1.6497945    -0.1073278     0.5419997
  H        0.2279220     0.0414410    -1.1066860
  H       -0.2728820    -1.7522560     0.3793240
  H        0.0946000    -0.6468560     1.7315660
  H        1.3625390     1.4139280     1.2413360
  H        1.6670510     1.8686130    -0.4607680
  H        0.0151050     1.9693480     0.1947690
  H        2.4631220    -0.8193040     0.6447500
  H        1.7659200    -1.7521810    -0.7136960
  H        2.6362400    -0.2249370    -1.0326780
  H       -2.3916570    -0.7986900     0.9363150
  H       -1.7508380     0.8532310     1.0447820
  H       -2.6851960     0.3180950    -1.1185210
units angstrom
no_reorient  #important for SAPT in psi4, default
symmetry c1  #important for SAPT in psi4, default
}

set PROPERTIES_ORIGIN ["COM"]
properties('MP2/aug-cc-pvtz', properties = ['dipole'])
--------------------------------------------------------------------------

    Molecular point group: c1
  Charge       = 1
  Multiplicity = 1
  Basis Set: AUG-CC-PVTZ
    Blend: AUG-CC-PVTZ
  Basis Set: (AUG-CC-PVTZ AUX)
    Blend: AUG-CC-PVTZ-JKFIT

    Orbital Energies [Eh]
    ---------------------

    Doubly Occupied:

       1A    -20.731084     2A    -15.856566     3A    -11.457540
       4A    -11.454098     5A    -11.449756     6A    -11.449283
       7A     -1.532986     8A     -1.486149     9A     -1.208217
      10A     -1.166231    11A     -1.093908    12A     -1.025340
      13A     -0.918965    14A     -0.875617    15A     -0.851292
      16A     -0.837840    17A     -0.792048    18A     -0.757319
      19A     -0.743705    20A     -0.739029    21A     -0.725389
      22A     -0.715888    23A     -0.710522    24A     -0.676730
      25A     -0.626684

  @DF-RHF Final Energy:  -287.65872142667740

   => Energetics <=

    Nuclear Repulsion Energy =            278.3101738522985329
    One-Electron Energy =                -932.1734180948677704
    Two-Electron Energy =                 366.2045228158917780
    Total Energy =                       -287.6587214266774026
  Basis Set: (AUG-CC-PVTZ AUX)
    Blend: AUG-CC-PVTZ-RI
    Molecular point group: c1

    Geometry (in Angstrom), charge = 1, multiplicity = 1:

       Center              X                  Y                   Z               Mass
    ------------   -----------------  -----------------  -----------------  -----------------
         O           -1.743970257619     0.053658659279    -0.873496673147    15.994914619570
         N            0.742393742381     0.011187659279    -0.175785673147    14.003074004430
         C           -0.234407257619    -0.703904340721     0.719260326853    12.000000000000
         C            0.987951742381     1.425915659279     0.247092326853    12.000000000000
         C            2.022923742381    -0.749752340721    -0.318209673147    12.000000000000
         C           -1.615663757619    -0.101858140721     0.558486026853    12.000000000000
         H            0.262052742381     0.046910659279    -1.090199673147     1.007825032230
         H           -0.238751257619    -1.746786340721     0.395810326853     1.007825032230
         H            0.128730742381    -0.641386340721     1.748052326853     1.007825032230
         H            1.396669742381     1.419397659279     1.257822326853     1.007825032230
         H            1.701181742381     1.874082659279    -0.444281673147     1.007825032230
         H            0.049235742381     1.974817659279     0.211255326853     1.007825032230
         H            2.497252742381    -0.813834340721     0.661236326853     1.007825032230
         H            1.800050742381    -1.746711340721    -0.697209673147     1.007825032230
         H            2.670370742381    -0.219467340721    -1.016191673147     1.007825032230
         H           -2.357526257619    -0.793220340721     0.952801326853     1.007825032230
         H           -1.716707257619     0.858700659279     1.061268326853     1.007825032230
         H           -2.651065257619     0.323564659279    -1.102034673147     1.007825032230

  Basis Set: AUG-CC-PVTZ
    Blend: AUG-CC-PVTZ
  Basis Set: (AUG-CC-PVTZ AUX)
    Blend: AUG-CC-PVTZ-JKFIT
	 Reference Energy          =    -287.6587214266774026 [Eh]
	 Singles Energy            =      -0.0000000000000000 [Eh]
	 Same-Spin Energy          =      -0.2850385440613576 [Eh]
	 Opposite-Spin Energy      =      -0.9997130713860445 [Eh]
	 Correlation Energy        =      -1.2847516154474021 [Eh]
	 Total Energy              =    -288.9434730421248219 [Eh]

	 ================> DF-SCS-MP2 Energies <==================
	-----------------------------------------------------------
	 SCS Same-Spin Scale       =       0.3333333333333333 [-]
	 SCS Opposite-Spin Scale   =       1.2000000000000000 [-]
	 SCS Same-Spin Energy      =      -0.0950128480204525 [Eh]
	 SCS Opposite-Spin Energy  =      -1.1996556856632534 [Eh]
	 SCS Correlation Energy    =      -1.2946685336837060 [Eh]
	 SCS Total Energy          =    -288.9533899603611076 [Eh]
	-----------------------------------------------------------

  Dipole Moment: [D]
     X:     1.3873      Y:     0.3040      Z:     0.7110     Total:     1.5882

*** Psi4 exiting successfully. Buy a developer a beer!
