                               Psi4 1.4a3.dev225

  ==> Input File <==

--------------------------------------------------------------------------
#psi4
#
memory 32 gb

molecule  {
1 1
  O       -1.7781010     0.0481890    -0.8899830
  N        0.7082630     0.0057180    -0.1922720
  C       -0.2685380    -0.7093740     0.7027740
  C        1.0560471     1.3988659     0.2305342
  C        1.9887930    -0.7552220    -0.3346960
  C       -1.6515690    -0.1051770     0.5221950
  H        0.2279220     0.0414410    -1.1066860
  H       -0.2728820    -1.7522560     0.3793240
  H        0.0946000    -0.6468560     1.7315660
  H        1.3625390     1.4139280     1.2413360
  H        1.6670510     1.8686130    -0.4607680
  H        0.0151050     1.9693480     0.1947690
  H        2.4631220    -0.8193040     0.6447500
  H        1.7659200    -1.7521810    -0.7136960
  H        2.6362400    -0.2249370    -1.0326780
  H       -2.3916570    -0.7986900     0.9363150
  H       -1.7508380     0.8532310     1.0447820
  H       -2.6851960     0.3180950    -1.1185210
units angstrom
no_reorient  #important for SAPT in psi4, default
symmetry c1  #important for SAPT in psi4, default
}

set PROPERTIES_ORIGIN ["COM"]
properties('MP2/aug-cc-pvtz', properties = ['dipole'])
--------------------------------------------------------------------------

    Molecular point group: c1
  Charge       = 1
  Multiplicity = 1
  Basis Set: AUG-CC-PVTZ
    Blend: AUG-CC-PVTZ
  Basis Set: (AUG-CC-PVTZ AUX)
    Blend: AUG-CC-PVTZ-JKFIT

    Orbital Energies [Eh]
    ---------------------

    Doubly Occupied:

       1A    -20.732780     2A    -15.856871     3A    -11.458399
       4A    -11.453965     5A    -11.450505     6A    -11.448303
       7A     -1.539209     8A     -1.487758     9A     -1.208765
      10A     -1.162589    11A     -1.095999    12A     -1.025820
      13A     -0.920224    14A     -0.879167    15A     -0.850510
      16A     -0.837648    17A     -0.793971    18A     -0.771391
      19A     -0.746227    20A     -0.739885    21A     -0.728757
      22A     -0.715340    23A     -0.692472    24A     -0.672493
      25A     -0.623805

  @DF-RHF Final Energy:  -287.64752368984512

   => Energetics <=

    Nuclear Repulsion Energy =            278.2520357252632834
    One-Electron Energy =                -932.0134168654591349
    Two-Electron Energy =                 366.1138574503507925
    Total Energy =                       -287.6475236898451158
  Basis Set: (AUG-CC-PVTZ AUX)
    Blend: AUG-CC-PVTZ-RI
    Molecular point group: c1

    Geometry (in Angstrom), charge = 1, multiplicity = 1:

       Center              X                  Y                   Z               Mass
    ------------   -----------------  -----------------  -----------------  -----------------
         O           -1.757350143569     0.056246590363    -0.870849176212    15.994914619570
         N            0.729013856431     0.013775590363    -0.173138176212    14.003074004430
         C           -0.247787143569    -0.701316409637     0.721907823788    12.000000000000
         C            1.076797956431     1.406923490363     0.249668023788    12.000000000000
         C            2.009543856431    -0.747164409637    -0.315562176212    12.000000000000
         C           -1.630818143569    -0.097119409637     0.541328823788    12.000000000000
         H            0.248672856431     0.049498590363    -1.087552176212     1.007825032230
         H           -0.252131143569    -1.744198409637     0.398457823788     1.007825032230
         H            0.115350856431    -0.638798409637     1.750699823788     1.007825032230
         H            1.383289856431     1.421985590363     1.260469823788     1.007825032230
         H            1.687801856431     1.876670590363    -0.441634176212     1.007825032230
         H            0.035855856431     1.977405590363     0.213902823788     1.007825032230
         H            2.483872856431    -0.811246409637     0.663883823788     1.007825032230
         H            1.786670856431    -1.744123409637    -0.694562176212     1.007825032230
         H            2.656990856431    -0.216879409637    -1.013544176212     1.007825032230
         H           -2.370906143569    -0.790632409637     0.955448823788     1.007825032230
         H           -1.730087143569     0.861288590363     1.063915823788     1.007825032230
         H           -2.664445143569     0.326152590363    -1.099387176212     1.007825032230

  Basis Set: AUG-CC-PVTZ
    Blend: AUG-CC-PVTZ
  Basis Set: (AUG-CC-PVTZ AUX)
    Blend: AUG-CC-PVTZ-JKFIT
	 Reference Energy          =    -287.6475236898451158 [Eh]
	 Singles Energy            =      -0.0000000000000000 [Eh]
	 Same-Spin Energy          =      -0.2852281788962259 [Eh]
	 Opposite-Spin Energy      =      -1.0000580229150531 [Eh]
	 Correlation Energy        =      -1.2852862018112789 [Eh]
	 Total Energy              =    -288.9328098916564045 [Eh]

	 ================> DF-SCS-MP2 Energies <==================
	-----------------------------------------------------------
	 SCS Same-Spin Scale       =       0.3333333333333333 [-]
	 SCS Opposite-Spin Scale   =       1.2000000000000000 [-]
	 SCS Same-Spin Energy      =      -0.0950760596320753 [Eh]
	 SCS Opposite-Spin Energy  =      -1.2000696274980636 [Eh]
	 SCS Correlation Energy    =      -1.2951456871301388 [Eh]
	 SCS Total Energy          =    -288.9426693769752319 [Eh]
	-----------------------------------------------------------

  Dipole Moment: [D]
     X:     1.3328      Y:     0.3101      Z:     0.6778     Total:     1.5270

*** Psi4 exiting successfully. Buy a developer a beer!
