                               Psi4 1.4a3.dev225

  ==> Input File <==

--------------------------------------------------------------------------
#psi4
#
memory 32 gb

molecule  {
1 1
  O       -1.7781010     0.0481890    -0.8899830
  N        0.7082630     0.0057180    -0.1922720
  C       -0.2685380    -0.7093740     0.7027740
  C        0.9538210     1.4204460     0.2306060
  C        1.9887930    -0.7552220    -0.3346960
  C       -1.6515690    -0.1051770     0.5221950
  H        0.2279220     0.0414410    -1.1066860
  H       -0.2728820    -1.7522560     0.3793240
  H        0.0946000    -0.6468560     1.7315660
  H        1.4554918     1.4636522     1.1976260
  H        1.6670510     1.8686130    -0.4607680
  H        0.0151050     1.9693480     0.1947690
  H        2.4631220    -0.8193040     0.6447500
  H        1.7659200    -1.7521810    -0.7136960
  H        2.6362400    -0.2249370    -1.0326780
  H       -2.3916570    -0.7986900     0.9363150
  H       -1.7508380     0.8532310     1.0447820
  H       -2.6851960     0.3180950    -1.1185210
units angstrom
no_reorient  #important for SAPT in psi4, default
symmetry c1  #important for SAPT in psi4, default
}

set PROPERTIES_ORIGIN ["COM"]
properties('MP2/aug-cc-pvtz', properties = ['dipole'])
--------------------------------------------------------------------------

    Molecular point group: c1
  Charge       = 1
  Multiplicity = 1
  Basis Set: AUG-CC-PVTZ
    Blend: AUG-CC-PVTZ
  Basis Set: (AUG-CC-PVTZ AUX)
    Blend: AUG-CC-PVTZ-JKFIT

    Orbital Energies [Eh]
    ---------------------

    Doubly Occupied:

       1A    -20.733163     2A    -15.857179     3A    -11.456819
       4A    -11.454026     5A    -11.449775     6A    -11.448526
       7A     -1.539662     8A     -1.487157     9A     -1.206721
      10A     -1.165689    11A     -1.093668    12A     -1.024584
      13A     -0.919280    14A     -0.876740    15A     -0.854689
      16A     -0.837837    17A     -0.792757    18A     -0.756241
      19A     -0.747255    20A     -0.740011    21A     -0.724652
      22A     -0.714832    23A     -0.710804    24A     -0.673865
      25A     -0.624306

  @DF-RHF Final Energy:  -287.65814346823686

   => Energetics <=

    Nuclear Repulsion Energy =            278.3955856498058665
    One-Electron Energy =                -932.3269812648211428
    Two-Electron Energy =                 366.2732521467784181
    Total Energy =                       -287.6581434682368581
  Basis Set: (AUG-CC-PVTZ AUX)
    Blend: AUG-CC-PVTZ-RI
    Molecular point group: c1

    Geometry (in Angstrom), charge = 1, multiplicity = 1:

       Center              X                  Y                   Z               Mass
    ------------   -----------------  -----------------  -----------------  -----------------
         O           -1.744773727936     0.052815931989    -0.870369771988    15.994914619570
         N            0.741590272064     0.010344931989    -0.172658771988    14.003074004430
         C           -0.235210727936    -0.704747068011     0.722387228012    12.000000000000
         C            0.987148272064     1.425072931989     0.250219228012    12.000000000000
         C            2.022120272064    -0.750595068011    -0.315082771988    12.000000000000
         C           -1.618241727936    -0.100550068011     0.541808228012    12.000000000000
         H            0.261249272064     0.046067931989    -1.087072771988     1.007825032230
         H           -0.239554727936    -1.747629068011     0.398937228012     1.007825032230
         H            0.127927272064    -0.642229068011     1.751179228012     1.007825032230
         H            1.488819072064     1.468279131989     1.217239228012     1.007825032230
         H            1.700378272064     1.873239931989    -0.441154771988     1.007825032230
         H            0.048432272064     1.973974931989     0.214382228012     1.007825032230
         H            2.496449272064    -0.814677068011     0.664363228012     1.007825032230
         H            1.799247272064    -1.747554068011    -0.694082771988     1.007825032230
         H            2.669567272064    -0.220310068011    -1.013064771988     1.007825032230
         H           -2.358329727936    -0.794063068011     0.955928228012     1.007825032230
         H           -1.717510727936     0.857857931989     1.064395228012     1.007825032230
         H           -2.651868727936     0.322721931989    -1.098907771988     1.007825032230

  Basis Set: AUG-CC-PVTZ
    Blend: AUG-CC-PVTZ
  Basis Set: (AUG-CC-PVTZ AUX)
    Blend: AUG-CC-PVTZ-JKFIT
	 Reference Energy          =    -287.6581434682368581 [Eh]
	 Singles Energy            =      -0.0000000000000000 [Eh]
	 Same-Spin Energy          =      -0.2850269139728398 [Eh]
	 Opposite-Spin Energy      =      -0.9993970735294770 [Eh]
	 Correlation Energy        =      -1.2844239875023169 [Eh]
	 Total Energy              =    -288.9425674557391517 [Eh]

	 ================> DF-SCS-MP2 Energies <==================
	-----------------------------------------------------------
	 SCS Same-Spin Scale       =       0.3333333333333333 [-]
	 SCS Opposite-Spin Scale   =       1.2000000000000000 [-]
	 SCS Same-Spin Energy      =      -0.0950089713242799 [Eh]
	 SCS Opposite-Spin Energy  =      -1.1992764882353724 [Eh]
	 SCS Correlation Energy    =      -1.2942854595596522 [Eh]
	 SCS Total Energy          =    -288.9524289277965181 [Eh]
	-----------------------------------------------------------

  Dipole Moment: [D]
     X:     1.4148      Y:     0.3153      Z:     0.6621     Total:     1.5935

*** Psi4 exiting successfully. Buy a developer a beer!
