                               Psi4 1.4a3.dev225

  ==> Input File <==

--------------------------------------------------------------------------
#psi4
#
memory 32 gb

molecule  {
1 1
  O       -1.7781010     0.0481890    -0.8899830
  N        0.7082630     0.0057180    -0.1922720
  C       -0.2685380    -0.7093740     0.7027740
  C        0.9538210     1.4204460     0.2306060
  C        1.9887930    -0.7552220    -0.3346960
  C       -1.6515690    -0.1051770     0.5221950
  H        0.2279220     0.0414410    -1.1066860
  H       -0.2728820    -1.7522560     0.3793240
  H        0.0946000    -0.6468560     1.7315660
  H        1.3625390     1.4139280     1.2413360
  H        1.6670510     1.8686130    -0.4607680
  H        0.0151050     1.9693480     0.1947690
  H        2.4631220    -0.8193040     0.6447500
  H        1.7659200    -1.7521810    -0.7136960
  H        2.5768279    -0.2735979    -0.9686286
  H       -2.3916570    -0.7986900     0.9363150
  H       -1.7508380     0.8532310     1.0447820
  H       -2.6851960     0.3180950    -1.1185210
units angstrom
no_reorient  #important for SAPT in psi4, default
symmetry c1  #important for SAPT in psi4, default
}

set PROPERTIES_ORIGIN ["COM"]
properties('MP2/aug-cc-pvtz', properties = ['dipole'])
--------------------------------------------------------------------------

    Molecular point group: c1
  Charge       = 1
  Multiplicity = 1
  Basis Set: AUG-CC-PVTZ
    Blend: AUG-CC-PVTZ
  Basis Set: (AUG-CC-PVTZ AUX)
    Blend: AUG-CC-PVTZ-JKFIT

    Orbital Energies [Eh]
    ---------------------

    Doubly Occupied:

       1A    -20.733036     2A    -15.855864     3A    -11.456742
       4A    -11.453952     5A    -11.449363     6A    -11.438738
       7A     -1.539543     8A     -1.487457     9A     -1.208604
      10A     -1.170978    11A     -1.098511    12A     -1.024866
      13A     -0.920894    14A     -0.877026    15A     -0.855257
      16A     -0.843744    17A     -0.791898    18A     -0.762831
      19A     -0.750460    20A     -0.743666    21A     -0.725963
      22A     -0.717471    23A     -0.711916    24A     -0.675244
      25A     -0.624248

  @DF-RHF Final Energy:  -287.65324985202898

   => Energetics <=

    Nuclear Repulsion Energy =            278.9833421166470089
    One-Electron Energy =                -933.4366383708712647
    Two-Electron Energy =                 366.8000464021952780
    Total Energy =                       -287.6532498520289778
  Basis Set: (AUG-CC-PVTZ AUX)
    Blend: AUG-CC-PVTZ-RI
    Molecular point group: c1

    Geometry (in Angstrom), charge = 1, multiplicity = 1:

       Center              X                  Y                   Z               Mass
    ------------   -----------------  -----------------  -----------------  -----------------
         O           -1.743069277492     0.053916530141    -0.871575237008    15.994914619570
         N            0.743294722508     0.011445530141    -0.173864237008    14.003074004430
         C           -0.233506277492    -0.703646469859     0.721181762992    12.000000000000
         C            0.988852722508     1.426173530141     0.249013762992    12.000000000000
         C            2.023824722508    -0.749494469859    -0.316288237008    12.000000000000
         C           -1.616537277492    -0.099449469859     0.540602762992    12.000000000000
         H            0.262953722508     0.047168530141    -1.088278237008     1.007825032230
         H           -0.237850277492    -1.746528469859     0.397731762992     1.007825032230
         H            0.129631722508    -0.641128469859     1.749973762992     1.007825032230
         H            1.397570722508     1.419655530141     1.259743762992     1.007825032230
         H            1.702082722508     1.874340530141    -0.442360237008     1.007825032230
         H            0.050136722508     1.975075530141     0.213176762992     1.007825032230
         H            2.498153722508    -0.813576469859     0.663157762992     1.007825032230
         H            1.800951722508    -1.746453469859    -0.695288237008     1.007825032230
         H            2.611859622508    -0.267870369859    -0.950220837008     1.007825032230
         H           -2.356625277492    -0.792962469859     0.954722762992     1.007825032230
         H           -1.715806277492     0.858958530141     1.063189762992     1.007825032230
         H           -2.650164277492     0.323822530141    -1.100113237008     1.007825032230

  Basis Set: AUG-CC-PVTZ
    Blend: AUG-CC-PVTZ
  Basis Set: (AUG-CC-PVTZ AUX)
    Blend: AUG-CC-PVTZ-JKFIT
	 Reference Energy          =    -287.6532498520289778 [Eh]
	 Singles Energy            =      -0.0000000000000000 [Eh]
	 Same-Spin Energy          =      -0.2849405247120562 [Eh]
	 Opposite-Spin Energy      =      -0.9988330629780227 [Eh]
	 Correlation Energy        =      -1.2837735876900789 [Eh]
	 Total Energy              =    -288.9370234397190416 [Eh]

	 ================> DF-SCS-MP2 Energies <==================
	-----------------------------------------------------------
	 SCS Same-Spin Scale       =       0.3333333333333333 [-]
	 SCS Opposite-Spin Scale   =       1.2000000000000000 [-]
	 SCS Same-Spin Energy      =      -0.0949801749040187 [Eh]
	 SCS Opposite-Spin Energy  =      -1.1985996755736272 [Eh]
	 SCS Correlation Energy    =      -1.2935798504776459 [Eh]
	 SCS Total Energy          =    -288.9468297025066477 [Eh]
	-----------------------------------------------------------

  Dipole Moment: [D]
     X:     1.3682      Y:     0.3085      Z:     0.6666     Total:     1.5529

*** Psi4 exiting successfully. Buy a developer a beer!
