                               Psi4 1.4a3.dev225

  ==> Input File <==

--------------------------------------------------------------------------
#psi4
#
memory 32 gb

molecule  {
1 1
  O       -1.7781010     0.0481890    -0.8899830
  N        0.7082630     0.0057180    -0.1922720
  C       -0.2685380    -0.7093740     0.7027740
  C        0.9538210     1.4204460     0.2306060
  C        1.9887930    -0.7552220    -0.3346960
  C       -1.6515690    -0.1051770     0.5221950
  H        0.2279220     0.0414410    -1.1066860
  H       -0.2728820    -1.7522560     0.3793240
  H        0.0946000    -0.6468560     1.7315660
  H        1.3625390     1.4139280     1.2413360
  H        1.5854094     1.9439089    -0.4867721
  H        0.0151050     1.9693480     0.1947690
  H        2.4631220    -0.8193040     0.6447500
  H        1.7659200    -1.7521810    -0.7136960
  H        2.6362400    -0.2249370    -1.0326780
  H       -2.3916570    -0.7986900     0.9363150
  H       -1.7508380     0.8532310     1.0447820
  H       -2.6851960     0.3180950    -1.1185210
units angstrom
no_reorient  #important for SAPT in psi4, default
symmetry c1  #important for SAPT in psi4, default
}

set PROPERTIES_ORIGIN ["COM"]
properties('MP2/aug-cc-pvtz', properties = ['dipole'])
--------------------------------------------------------------------------

    Molecular point group: c1
  Charge       = 1
  Multiplicity = 1
  Basis Set: AUG-CC-PVTZ
    Blend: AUG-CC-PVTZ
  Basis Set: (AUG-CC-PVTZ AUX)
    Blend: AUG-CC-PVTZ-JKFIT

    Orbital Energies [Eh]
    ---------------------

    Doubly Occupied:

       1A    -20.733053     2A    -15.857042     3A    -11.457403
       4A    -11.453970     5A    -11.449197     6A    -11.448564
       7A     -1.539551     8A     -1.487048     9A     -1.206378
      10A     -1.166273    11A     -1.092547    12A     -1.024977
      13A     -0.921284    14A     -0.876917    15A     -0.852069
      16A     -0.837601    17A     -0.791321    18A     -0.761252
      19A     -0.745053    20A     -0.738414    21A     -0.720823
      22A     -0.717031    23A     -0.712578    24A     -0.673751
      25A     -0.624255

  @DF-RHF Final Energy:  -287.65809788136573

   => Energetics <=

    Nuclear Repulsion Energy =            278.4451816301414055
    One-Electron Energy =                -932.4298592391868397
    Two-Electron Energy =                 366.3265797276797002
    Total Energy =                       -287.6580978813657339
  Basis Set: (AUG-CC-PVTZ AUX)
    Blend: AUG-CC-PVTZ-RI
    Molecular point group: c1

    Geometry (in Angstrom), charge = 1, multiplicity = 1:

       Center              X                  Y                   Z               Mass
    ------------   -----------------  -----------------  -----------------  -----------------
         O           -1.742820604200     0.052529870728    -0.870567841420    15.994914619570
         N            0.743543395800     0.010058870728    -0.172856841420    14.003074004430
         C           -0.233257604200    -0.705033129272     0.722189158580    12.000000000000
         C            0.989101395800     1.424786870728     0.250021158580    12.000000000000
         C            2.024073395800    -0.750881129272    -0.315280841420    12.000000000000
         C           -1.616288604200    -0.100836129272     0.541610158580    12.000000000000
         H            0.263202395800     0.045781870728    -1.087270841420     1.007825032230
         H           -0.237601604200    -1.747915129272     0.398739158580     1.007825032230
         H            0.129880395800    -0.642515129272     1.750981158580     1.007825032230
         H            1.397819395800     1.418268870728     1.260751158580     1.007825032230
         H            1.620689795800     1.948249770728    -0.467356941420     1.007825032230
         H            0.050385395800     1.973688870728     0.214184158580     1.007825032230
         H            2.498402395800    -0.814963129272     0.664165158580     1.007825032230
         H            1.801200395800    -1.747840129272    -0.694280841420     1.007825032230
         H            2.671520395800    -0.220596129272    -1.013262841420     1.007825032230
         H           -2.356376604200    -0.794349129272     0.955730158580     1.007825032230
         H           -1.715557604200     0.857571870728     1.064197158580     1.007825032230
         H           -2.649915604200     0.322435870728    -1.099105841420     1.007825032230

  Basis Set: AUG-CC-PVTZ
    Blend: AUG-CC-PVTZ
  Basis Set: (AUG-CC-PVTZ AUX)
    Blend: AUG-CC-PVTZ-JKFIT
	 Reference Energy          =    -287.6580978813657339 [Eh]
	 Singles Energy            =      -0.0000000000000000 [Eh]
	 Same-Spin Energy          =      -0.2850434143385691 [Eh]
	 Opposite-Spin Energy      =      -0.9994335965357726 [Eh]
	 Correlation Energy        =      -1.2844770108743417 [Eh]
	 Total Energy              =    -288.9425748922400885 [Eh]

	 ================> DF-SCS-MP2 Energies <==================
	-----------------------------------------------------------
	 SCS Same-Spin Scale       =       0.3333333333333333 [-]
	 SCS Opposite-Spin Scale   =       1.2000000000000000 [-]
	 SCS Same-Spin Energy      =      -0.0950144714461897 [Eh]
	 SCS Opposite-Spin Energy  =      -1.1993203158429271 [Eh]
	 SCS Correlation Energy    =      -1.2943347872891167 [Eh]
	 SCS Total Energy          =    -288.9524326686548648 [Eh]
	-----------------------------------------------------------

  Dipole Moment: [D]
     X:     1.3393      Y:     0.3420      Z:     0.6373     Total:     1.5221

*** Psi4 exiting successfully. Buy a developer a beer!
