                               Psi4 1.4a3.dev225

  ==> Input File <==

--------------------------------------------------------------------------
#psi4
#
memory 32 gb

molecule  {
1 1
  O       -1.7781010     0.0481890    -0.8899830
  N        0.7082630     0.0057180    -0.1922720
  C       -0.2685380    -0.7093740     0.7027740
  C        0.9538210     1.4204460     0.2306060
  C        1.8176395    -0.6535160    -0.3156598
  C       -1.6515690    -0.1051770     0.5221950
  H        0.2279220     0.0414410    -1.1066860
  H       -0.2728820    -1.7522560     0.3793240
  H        0.0946000    -0.6468560     1.7315660
  H        1.3625390     1.4139280     1.2413360
  H        1.6670510     1.8686130    -0.4607680
  H        0.0151050     1.9693480     0.1947690
  H        2.4631220    -0.8193040     0.6447500
  H        1.7659200    -1.7521810    -0.7136960
  H        2.6362400    -0.2249370    -1.0326780
  H       -2.3916570    -0.7986900     0.9363150
  H       -1.7508380     0.8532310     1.0447820
  H       -2.6851960     0.3180950    -1.1185210
units angstrom
no_reorient  #important for SAPT in psi4, default
symmetry c1  #important for SAPT in psi4, default
}

set PROPERTIES_ORIGIN ["COM"]
properties('MP2/aug-cc-pvtz', properties = ['dipole'])
--------------------------------------------------------------------------

    Molecular point group: c1
  Charge       = 1
  Multiplicity = 1
  Basis Set: AUG-CC-PVTZ
    Blend: AUG-CC-PVTZ
  Basis Set: (AUG-CC-PVTZ AUX)
    Blend: AUG-CC-PVTZ-JKFIT

    Orbital Energies [Eh]
    ---------------------

    Doubly Occupied:

       1A    -20.736880     2A    -15.861899     3A    -11.462438
       4A    -11.457970     5A    -11.454653     6A    -11.449881
       7A     -1.559546     8A     -1.527704     9A     -1.219728
      10A     -1.179590    11A     -1.085501    12A     -1.037305
      13A     -0.938849    14A     -0.889383    15A     -0.869808
      16A     -0.854533    17A     -0.806543    18A     -0.761246
      19A     -0.749075    20A     -0.735886    21A     -0.723632
      22A     -0.705305    23A     -0.673078    24A     -0.659730
      25A     -0.627781

  @DF-RHF Final Energy:  -287.61364505941958

   => Energetics <=

    Nuclear Repulsion Energy =            282.3668683830524060
    One-Electron Energy =                -939.9051375383590994
    Two-Electron Energy =                 369.9246240958871113
    Total Energy =                       -287.6136450594195821
  Basis Set: (AUG-CC-PVTZ AUX)
    Blend: AUG-CC-PVTZ-RI
    Molecular point group: c1

    Geometry (in Angstrom), charge = 1, multiplicity = 1:

       Center              X                  Y                   Z               Mass
    ------------   -----------------  -----------------  -----------------  -----------------
         O           -1.720936707953     0.039825209745    -0.873394310991    15.994914619570
         N            0.765427292047    -0.002645790255    -0.175683310991    14.003074004430
         C           -0.211373707953    -0.717737790255     0.719362689009    12.000000000000
         C            1.010985292047     1.412082209745     0.247194689009    12.000000000000
         C            1.874803792047    -0.661879790255    -0.299071110991    12.000000000000
         C           -1.594404707953    -0.113540790255     0.538783689009    12.000000000000
         H            0.285086292047     0.033077209745    -1.090097310991     1.007825032230
         H           -0.215717707953    -1.760619790255     0.395912689009     1.007825032230
         H            0.151764292047    -0.655219790255     1.748154689009     1.007825032230
         H            1.419703292047     1.405564209745     1.257924689009     1.007825032230
         H            1.724215292047     1.860249209745    -0.444179310991     1.007825032230
         H            0.072269292047     1.960984209745     0.211357689009     1.007825032230
         H            2.520286292047    -0.827667790255     0.661338689009     1.007825032230
         H            1.823084292047    -1.760544790255    -0.697107310991     1.007825032230
         H            2.693404292047    -0.233300790255    -1.016089310991     1.007825032230
         H           -2.334492707953    -0.807053790255     0.952903689009     1.007825032230
         H           -1.693673707953     0.844867209745     1.061370689009     1.007825032230
         H           -2.628031707953     0.309731209745    -1.101932310991     1.007825032230

  Basis Set: AUG-CC-PVTZ
    Blend: AUG-CC-PVTZ
  Basis Set: (AUG-CC-PVTZ AUX)
    Blend: AUG-CC-PVTZ-JKFIT
	 Reference Energy          =    -287.6136450594195821 [Eh]
	 Singles Energy            =      -0.0000000000000000 [Eh]
	 Same-Spin Energy          =      -0.2877345986731161 [Eh]
	 Opposite-Spin Energy      =      -1.0016546018970462 [Eh]
	 Correlation Energy        =      -1.2893892005701624 [Eh]
	 Total Energy              =    -288.9030342599897381 [Eh]

	 ================> DF-SCS-MP2 Energies <==================
	-----------------------------------------------------------
	 SCS Same-Spin Scale       =       0.3333333333333333 [-]
	 SCS Opposite-Spin Scale   =       1.2000000000000000 [-]
	 SCS Same-Spin Energy      =      -0.0959115328910387 [Eh]
	 SCS Opposite-Spin Energy  =      -1.2019855222764555 [Eh]
	 SCS Correlation Energy    =      -1.2978970551674942 [Eh]
	 SCS Total Energy          =    -288.9115421145870641 [Eh]
	-----------------------------------------------------------

  Dipole Moment: [D]
     X:     1.1325      Y:     0.4320      Z:     0.7140     Total:     1.4067

*** Psi4 exiting successfully. Buy a developer a beer!
