                               Psi4 1.4a3.dev225

  ==> Input File <==

--------------------------------------------------------------------------
#psi4
#
memory 32 gb

molecule  {
1 1
  O       -1.7781010     0.0481890    -0.8899830
  N        0.7082630     0.0057180    -0.1922720
  C       -0.2685380    -0.7093740     0.7027740
  C        0.9702259     1.5149593     0.2588571
  C        1.9887930    -0.7552220    -0.3346960
  C       -1.6515690    -0.1051770     0.5221950
  H        0.2279220     0.0414410    -1.1066860
  H       -0.2728820    -1.7522560     0.3793240
  H        0.0946000    -0.6468560     1.7315660
  H        1.3625390     1.4139280     1.2413360
  H        1.6670510     1.8686130    -0.4607680
  H        0.0151050     1.9693480     0.1947690
  H        2.4631220    -0.8193040     0.6447500
  H        1.7659200    -1.7521810    -0.7136960
  H        2.6362400    -0.2249370    -1.0326780
  H       -2.3916570    -0.7986900     0.9363150
  H       -1.7508380     0.8532310     1.0447820
  H       -2.6851960     0.3180950    -1.1185210
units angstrom
no_reorient  #important for SAPT in psi4, default
symmetry c1  #important for SAPT in psi4, default
}

set PROPERTIES_ORIGIN ["COM"]
properties('MP2/aug-cc-pvtz', properties = ['dipole'])
--------------------------------------------------------------------------

    Molecular point group: c1
  Charge       = 1
  Multiplicity = 1
  Basis Set: AUG-CC-PVTZ
    Blend: AUG-CC-PVTZ
  Basis Set: (AUG-CC-PVTZ AUX)
    Blend: AUG-CC-PVTZ-JKFIT

    Orbital Energies [Eh]
    ---------------------

    Doubly Occupied:

       1A    -20.731796     2A    -15.849331     3A    -11.454344
       4A    -11.453938     5A    -11.452729     6A    -11.446403
       7A     -1.536760     8A     -1.468852     9A     -1.202067
      10A     -1.164393    11A     -1.093292    12A     -1.021029
      13A     -0.911370    14A     -0.872734    15A     -0.850739
      16A     -0.828218    17A     -0.786816    18A     -0.773052
      19A     -0.753067    20A     -0.739186    21A     -0.730982
      22A     -0.718962    23A     -0.697734    24A     -0.671791
      25A     -0.622819

  @DF-RHF Final Energy:  -287.65219411405951

   => Energetics <=

    Nuclear Repulsion Energy =            276.8158147315828046
    One-Electron Energy =                -929.2712093857278433
    Two-Electron Energy =                 364.8032005400855269
    Total Energy =                       -287.6521941140595118
  Basis Set: (AUG-CC-PVTZ AUX)
    Blend: AUG-CC-PVTZ-RI
    Molecular point group: c1

    Geometry (in Angstrom), charge = 1, multiplicity = 1:

       Center              X                  Y                   Z               Mass
    ------------   -----------------  -----------------  -----------------  -----------------
         O           -1.745918987986     0.040783258255    -0.874621711162    15.994914619570
         N            0.740445012014    -0.001687741745    -0.176910711162    14.003074004430
         C           -0.236355987986    -0.716779741745     0.718135288838    12.000000000000
         C            1.002407912014     1.507553558255     0.274218388838    12.000000000000
         C            2.020975012014    -0.762627741745    -0.319334711162    12.000000000000
         C           -1.619386987986    -0.112582741745     0.537556288838    12.000000000000
         H            0.260104012014     0.034035258255    -1.091324711162     1.007825032230
         H           -0.240699987986    -1.759661741745     0.394685288838     1.007825032230
         H            0.126782012014    -0.654261741745     1.746927288838     1.007825032230
         H            1.394721012014     1.406522258255     1.256697288838     1.007825032230
         H            1.699233012014     1.861207258255    -0.445406711162     1.007825032230
         H            0.047287012014     1.961942258255     0.210130288838     1.007825032230
         H            2.495304012014    -0.826709741745     0.660111288838     1.007825032230
         H            1.798102012014    -1.759586741745    -0.698334711162     1.007825032230
         H            2.668422012014    -0.232342741745    -1.017316711162     1.007825032230
         H           -2.359474987986    -0.806095741745     0.951676288838     1.007825032230
         H           -1.718655987986     0.845825258255     1.060143288838     1.007825032230
         H           -2.653013987986     0.310689258255    -1.103159711162     1.007825032230

  Basis Set: AUG-CC-PVTZ
    Blend: AUG-CC-PVTZ
  Basis Set: (AUG-CC-PVTZ AUX)
    Blend: AUG-CC-PVTZ-JKFIT
	 Reference Energy          =    -287.6521941140595118 [Eh]
	 Singles Energy            =      -0.0000000000000000 [Eh]
	 Same-Spin Energy          =      -0.2845480966224293 [Eh]
	 Opposite-Spin Energy      =      -0.9998639039453473 [Eh]
	 Correlation Energy        =      -1.2844120005677766 [Eh]
	 Total Energy              =    -288.9366061146272955 [Eh]

	 ================> DF-SCS-MP2 Energies <==================
	-----------------------------------------------------------
	 SCS Same-Spin Scale       =       0.3333333333333333 [-]
	 SCS Opposite-Spin Scale   =       1.2000000000000000 [-]
	 SCS Same-Spin Energy      =      -0.0948493655408098 [Eh]
	 SCS Opposite-Spin Energy  =      -1.1998366847344166 [Eh]
	 SCS Correlation Energy    =      -1.2946860502752264 [Eh]
	 SCS Total Energy          =    -288.9468801643347433 [Eh]
	-----------------------------------------------------------

  Dipole Moment: [D]
     X:     1.4057      Y:     0.4515      Z:     0.6918     Total:     1.6305

*** Psi4 exiting successfully. Buy a developer a beer!
