                               Psi4 1.4a3.dev225

  ==> Input File <==

--------------------------------------------------------------------------
#psi4
#
memory 32 gb

molecule  {
1 1
  O       -1.7781010     0.0481890    -0.8899830
  N        0.7082630     0.0057180    -0.1922720
  C       -0.2685380    -0.7093740     0.7027740
  C        0.9538210     1.4204460     0.2306060
  C        1.9887930    -0.7552220    -0.3346960
  C       -1.6515690    -0.1051770     0.5221950
  H        0.2279220     0.0414410    -1.1066860
  H       -0.2728820    -1.7522560     0.3793240
  H        0.0946000    -0.6468560     1.7315660
  H        1.3625390     1.4139280     1.2413360
  H        1.6406629     1.8942991    -0.4702935
  H        0.0151050     1.9693480     0.1947690
  H        2.4631220    -0.8193040     0.6447500
  H        1.7659200    -1.7521810    -0.7136960
  H        2.6362400    -0.2249370    -1.0326780
  H       -2.3916570    -0.7986900     0.9363150
  H       -1.7508380     0.8532310     1.0447820
  H       -2.6851960     0.3180950    -1.1185210
units angstrom
no_reorient  #important for SAPT in psi4, default
symmetry c1  #important for SAPT in psi4, default
}

set PROPERTIES_ORIGIN ["COM"]
properties('MP2/aug-cc-pvtz', properties = ['dipole'])
--------------------------------------------------------------------------

    Molecular point group: c1
  Charge       = 1
  Multiplicity = 1
  Basis Set: AUG-CC-PVTZ
    Blend: AUG-CC-PVTZ
  Basis Set: (AUG-CC-PVTZ AUX)
    Blend: AUG-CC-PVTZ-JKFIT

    Orbital Energies [Eh]
    ---------------------

    Doubly Occupied:

       1A    -20.733105     2A    -15.856507     3A    -11.457168
       4A    -11.454106     5A    -11.449418     6A    -11.448920
       7A     -1.539600     8A     -1.487081     9A     -1.206555
      10A     -1.166092    11A     -1.092825    12A     -1.024941
      13A     -0.919794    14A     -0.877054    15A     -0.853032
      16A     -0.837359    17A     -0.791779    18A     -0.758840
      19A     -0.745654    20A     -0.739105    21A     -0.723157
      22A     -0.717942    23A     -0.712105    24A     -0.674007
      25A     -0.624323

  @DF-RHF Final Energy:  -287.65923912163856

   => Energetics <=

    Nuclear Repulsion Energy =            278.4883861499819204
    One-Electron Energy =                -932.5143046526879971
    Two-Electron Energy =                 366.3666793810675131
    Total Energy =                       -287.6592391216385636
  Basis Set: (AUG-CC-PVTZ AUX)
    Blend: AUG-CC-PVTZ-RI
    Molecular point group: c1

    Geometry (in Angstrom), charge = 1, multiplicity = 1:

       Center              X                  Y                   Z               Mass
    ------------   -----------------  -----------------  -----------------  -----------------
         O           -1.743438704909     0.053084837427    -0.870752181495    15.994914619570
         N            0.742925295091     0.010613837427    -0.173041181495    14.003074004430
         C           -0.233875704909    -0.704478162573     0.722004818505    12.000000000000
         C            0.988483295091     1.425341837427     0.249836818505    12.000000000000
         C            2.023455295091    -0.750326162573    -0.315465181495    12.000000000000
         C           -1.616906704909    -0.100281162573     0.541425818505    12.000000000000
         H            0.262584295091     0.046336837427    -1.087455181495     1.007825032230
         H           -0.238219704909    -1.747360162573     0.398554818505     1.007825032230
         H            0.129262295091    -0.641960162573     1.750796818505     1.007825032230
         H            1.397201295091     1.418823837427     1.260566818505     1.007825032230
         H            1.675325195091     1.899194937427    -0.451062681495     1.007825032230
         H            0.049767295091     1.974243837427     0.213999818505     1.007825032230
         H            2.497784295091    -0.814408162573     0.663980818505     1.007825032230
         H            1.800582295091    -1.747285162573    -0.694465181495     1.007825032230
         H            2.670902295091    -0.220041162573    -1.013447181495     1.007825032230
         H           -2.356994704909    -0.793794162573     0.955545818505     1.007825032230
         H           -1.716175704909     0.858126837427     1.064012818505     1.007825032230
         H           -2.650533704909     0.322990837427    -1.099290181495     1.007825032230

  Basis Set: AUG-CC-PVTZ
    Blend: AUG-CC-PVTZ
  Basis Set: (AUG-CC-PVTZ AUX)
    Blend: AUG-CC-PVTZ-JKFIT
	 Reference Energy          =    -287.6592391216385636 [Eh]
	 Singles Energy            =      -0.0000000000000000 [Eh]
	 Same-Spin Energy          =      -0.2850101405915694 [Eh]
	 Opposite-Spin Energy      =      -0.9993958845633203 [Eh]
	 Correlation Energy        =      -1.2844060251548897 [Eh]
	 Total Energy              =    -288.9436451467934717 [Eh]

	 ================> DF-SCS-MP2 Energies <==================
	-----------------------------------------------------------
	 SCS Same-Spin Scale       =       0.3333333333333333 [-]
	 SCS Opposite-Spin Scale   =       1.2000000000000000 [-]
	 SCS Same-Spin Energy      =      -0.0950033801971898 [Eh]
	 SCS Opposite-Spin Energy  =      -1.1992750614759844 [Eh]
	 SCS Correlation Energy    =      -1.2942784416731741 [Eh]
	 SCS Total Energy          =    -288.9535175633117206 [Eh]
	-----------------------------------------------------------

  Dipole Moment: [D]
     X:     1.3600      Y:     0.3196      Z:     0.6536     Total:     1.5424

*** Psi4 exiting successfully. Buy a developer a beer!
