                               Psi4 1.4a3.dev225

  ==> Input File <==

--------------------------------------------------------------------------
#psi4
#
memory 32 gb

molecule  {
1 1
  O       -1.7781010     0.0481890    -0.8899830
  N        0.7082630     0.0057180    -0.1922720
  C       -0.2685380    -0.7093740     0.7027740
  C        0.9538210     1.4204460     0.2306060
  C        1.9887930    -0.7552220    -0.3346960
  C       -1.6515690    -0.1051770     0.5221950
  H        0.2279220     0.0414410    -1.1066860
  H       -0.2728820    -1.7522560     0.3793240
  H        0.0946000    -0.6468560     1.7315660
  H        1.3625390     1.4139280     1.2413360
  H        1.6925701     1.8423808    -0.4504002
  H        0.0151050     1.9693480     0.1947690
  H        2.4631220    -0.8193040     0.6447500
  H        1.7659200    -1.7521810    -0.7136960
  H        2.6362400    -0.2249370    -1.0326780
  H       -2.3916570    -0.7986900     0.9363150
  H       -1.7508380     0.8532310     1.0447820
  H       -2.6851960     0.3180950    -1.1185210
units angstrom
no_reorient  #important for SAPT in psi4, default
symmetry c1  #important for SAPT in psi4, default
}

set PROPERTIES_ORIGIN ["COM"]
properties('MP2/aug-cc-pvtz', properties = ['dipole'])
--------------------------------------------------------------------------

    Molecular point group: c1
  Charge       = 1
  Multiplicity = 1
  Basis Set: AUG-CC-PVTZ
    Blend: AUG-CC-PVTZ
  Basis Set: (AUG-CC-PVTZ AUX)
    Blend: AUG-CC-PVTZ-JKFIT

    Orbital Energies [Eh]
    ---------------------

    Doubly Occupied:

       1A    -20.733168     2A    -15.855986     3A    -11.456905
       4A    -11.454238     5A    -11.449663     6A    -11.449281
       7A     -1.539661     8A     -1.487146     9A     -1.206755
      10A     -1.166018    11A     -1.093203    12A     -1.024910
      13A     -0.918440    14A     -0.877226    15A     -0.854123
      16A     -0.837228    17A     -0.792267    18A     -0.756598
      19A     -0.746574    20A     -0.740016    21A     -0.726983
      22A     -0.716405    23A     -0.711068    24A     -0.674196
      25A     -0.624393

  @DF-RHF Final Energy:  -287.65921006146323

   => Energetics <=

    Nuclear Repulsion Energy =            278.5394779419592624
    One-Electron Energy =                -932.6124720768465295
    Two-Electron Energy =                 366.4137840734240399
    Total Energy =                       -287.6592100614632272
  Basis Set: (AUG-CC-PVTZ AUX)
    Blend: AUG-CC-PVTZ-RI
    Molecular point group: c1

    Geometry (in Angstrom), charge = 1, multiplicity = 1:

       Center              X                  Y                   Z               Mass
    ------------   -----------------  -----------------  -----------------  -----------------
         O           -1.744019371782     0.053665628472    -0.870974720570    15.994914619570
         N            0.742344628218     0.011194628472    -0.173263720570    14.003074004430
         C           -0.234456371782    -0.703897371528     0.721782279430    12.000000000000
         C            0.987902628218     1.425922628472     0.249614279430    12.000000000000
         C            2.022874628218    -0.749745371528    -0.315687720570    12.000000000000
         C           -1.617487371782    -0.099700371528     0.541203279430    12.000000000000
         H            0.262003628218     0.046917628472    -1.087677720570     1.007825032230
         H           -0.238800371782    -1.746779371528     0.398332279430     1.007825032230
         H            0.128681628218    -0.641379371528     1.750574279430     1.007825032230
         H            1.396620628218     1.419404628472     1.260344279430     1.007825032230
         H            1.726651728218     1.847857428472    -0.431391920570     1.007825032230
         H            0.049186628218     1.974824628472     0.213777279430     1.007825032230
         H            2.497203628218    -0.813827371528     0.663758279430     1.007825032230
         H            1.800001628218    -1.746704371528    -0.694687720570     1.007825032230
         H            2.670321628218    -0.219460371528    -1.013669720570     1.007825032230
         H           -2.357575371782    -0.793213371528     0.955323279430     1.007825032230
         H           -1.716756371782     0.858707628472     1.063790279430     1.007825032230
         H           -2.651114371782     0.323571628472    -1.099512720570     1.007825032230

  Basis Set: AUG-CC-PVTZ
    Blend: AUG-CC-PVTZ
  Basis Set: (AUG-CC-PVTZ AUX)
    Blend: AUG-CC-PVTZ-JKFIT
	 Reference Energy          =    -287.6592100614632272 [Eh]
	 Singles Energy            =      -0.0000000000000000 [Eh]
	 Same-Spin Energy          =      -0.2850344545429326 [Eh]
	 Opposite-Spin Energy      =      -0.9994484493470497 [Eh]
	 Correlation Energy        =      -1.2844829038899823 [Eh]
	 Total Energy              =    -288.9436929653531934 [Eh]

	 ================> DF-SCS-MP2 Energies <==================
	-----------------------------------------------------------
	 SCS Same-Spin Scale       =       0.3333333333333333 [-]
	 SCS Opposite-Spin Scale   =       1.2000000000000000 [-]
	 SCS Same-Spin Energy      =      -0.0950114848476442 [Eh]
	 SCS Opposite-Spin Energy  =      -1.1993381392164595 [Eh]
	 SCS Correlation Energy    =      -1.2943496240641037 [Eh]
	 SCS Total Energy          =    -288.9535596855273525 [Eh]
	-----------------------------------------------------------

  Dipole Moment: [D]
     X:     1.3770      Y:     0.2974      Z:     0.6713     Total:     1.5605

*** Psi4 exiting successfully. Buy a developer a beer!
