                               Psi4 1.4a3.dev225

  ==> Input File <==

--------------------------------------------------------------------------
#psi4
#
memory 32 gb

molecule  {
1 1
  O       -1.7781010     0.0481890    -0.8899830
  N        0.7082630     0.0057180    -0.1922720
  C       -0.2685380    -0.7093740     0.7027740
  C        0.9538210     1.4204460     0.2306060
  C        1.9887930    -0.7552220    -0.3346960
  C       -1.6481156    -0.0717418     0.6777064
  H        0.2279220     0.0414410    -1.1066860
  H       -0.2728820    -1.7522560     0.3793240
  H        0.0946000    -0.6468560     1.7315660
  H        1.3625390     1.4139280     1.2413360
  H        1.6670510     1.8686130    -0.4607680
  H        0.0151050     1.9693480     0.1947690
  H        2.4631220    -0.8193040     0.6447500
  H        1.7659200    -1.7521810    -0.7136960
  H        2.6362400    -0.2249370    -1.0326780
  H       -2.3916570    -0.7986900     0.9363150
  H       -1.7508380     0.8532310     1.0447820
  H       -2.6851960     0.3180950    -1.1185210
units angstrom
no_reorient  #important for SAPT in psi4, default
symmetry c1  #important for SAPT in psi4, default
}

set PROPERTIES_ORIGIN ["COM"]
properties('MP2/aug-cc-pvtz', properties = ['dipole'])
--------------------------------------------------------------------------

    Molecular point group: c1
  Charge       = 1
  Multiplicity = 1
  Basis Set: AUG-CC-PVTZ
    Blend: AUG-CC-PVTZ
  Basis Set: (AUG-CC-PVTZ AUX)
    Blend: AUG-CC-PVTZ-JKFIT

    Orbital Energies [Eh]
    ---------------------

    Doubly Occupied:

       1A    -20.718068     2A    -15.857860     3A    -11.462640
       4A    -11.457208     5A    -11.450730     6A    -11.450462
       7A     -1.506400     8A     -1.470688     9A     -1.212919
      10A     -1.167292    11A     -1.100027    12A     -1.032403
      13A     -0.919547    14A     -0.872584    15A     -0.842349
      16A     -0.835921    17A     -0.795681    18A     -0.758490
      19A     -0.739898    20A     -0.733953    21A     -0.726571
      22A     -0.716657    23A     -0.694701    24A     -0.672012
      25A     -0.634216

  @DF-RHF Final Energy:  -287.63528244731873

   => Energetics <=

    Nuclear Repulsion Energy =            276.8023370557035037
    One-Electron Energy =                -929.2166841180337542
    Two-Electron Energy =                 364.7790646150115776
    Total Energy =                       -287.6352824473187297
  Basis Set: (AUG-CC-PVTZ AUX)
    Blend: AUG-CC-PVTZ-RI
    Molecular point group: c1

    Geometry (in Angstrom), charge = 1, multiplicity = 1:

       Center              X                  Y                   Z               Mass
    ------------   -----------------  -----------------  -----------------  -----------------
         O           -1.744193882633     0.048918698726    -0.891572444650    15.994914619570
         N            0.742170117367     0.006447698726    -0.193861444650    14.003074004430
         C           -0.234630882633    -0.708644301274     0.701184555350    12.000000000000
         C            0.987728117367     1.421175698726     0.229016555350    12.000000000000
         C            2.022700117367    -0.754492301274    -0.336285444650    12.000000000000
         C           -1.614208482633    -0.071012101274     0.676116955350    12.000000000000
         H            0.261829117367     0.042170698726    -1.108275444650     1.007825032230
         H           -0.238974882633    -1.751526301274     0.377734555350     1.007825032230
         H            0.128507117367    -0.646126301274     1.729976555350     1.007825032230
         H            1.396446117367     1.414657698726     1.239746555350     1.007825032230
         H            1.700958117367     1.869342698726    -0.462357444650     1.007825032230
         H            0.049012117367     1.970077698726     0.193179555350     1.007825032230
         H            2.497029117367    -0.818574301274     0.643160555350     1.007825032230
         H            1.799827117367    -1.751451301274    -0.715285444650     1.007825032230
         H            2.670147117367    -0.224207301274    -1.034267444650     1.007825032230
         H           -2.357749882633    -0.797960301274     0.934725555350     1.007825032230
         H           -1.716930882633     0.853960698726     1.043192555350     1.007825032230
         H           -2.651288882633     0.318824698726    -1.120110444650     1.007825032230

  Basis Set: AUG-CC-PVTZ
    Blend: AUG-CC-PVTZ
  Basis Set: (AUG-CC-PVTZ AUX)
    Blend: AUG-CC-PVTZ-JKFIT
	 Reference Energy          =    -287.6352824473187297 [Eh]
	 Singles Energy            =      -0.0000000000000000 [Eh]
	 Same-Spin Energy          =      -0.2856130753990822 [Eh]
	 Opposite-Spin Energy      =      -1.0028041049987384 [Eh]
	 Correlation Energy        =      -1.2884171803978206 [Eh]
	 Total Energy              =    -288.9236996277165304 [Eh]

	 ================> DF-SCS-MP2 Energies <==================
	-----------------------------------------------------------
	 SCS Same-Spin Scale       =       0.3333333333333333 [-]
	 SCS Opposite-Spin Scale   =       1.2000000000000000 [-]
	 SCS Same-Spin Energy      =      -0.0952043584663607 [Eh]
	 SCS Opposite-Spin Energy  =      -1.2033649259984860 [Eh]
	 SCS Correlation Energy    =      -1.2985692844648467 [Eh]
	 SCS Total Energy          =    -288.9338517317835908 [Eh]
	-----------------------------------------------------------

  Dipole Moment: [D]
     X:     1.4925      Y:     0.2881      Z:     0.9775     Total:     1.8073

*** Psi4 exiting successfully. Buy a developer a beer!
