                               Psi4 1.4a3.dev225

  ==> Input File <==

--------------------------------------------------------------------------
#psi4
#
memory 32 gb

molecule  {
1 1
  O       -1.7781010     0.0481890    -0.8899830
  N        0.7082630     0.0057180    -0.1922720
  C       -0.2685380    -0.7093740     0.7027740
  C        0.9538210     1.4204460     0.2306060
  C        1.9887930    -0.7552220    -0.3346960
  C       -1.6515690    -0.1051770     0.5221950
  H        0.2279220     0.0414410    -1.1066860
  H       -0.2728820    -1.7522560     0.3793240
  H        0.0946000    -0.6468560     1.7315660
  H        1.3625390     1.4139280     1.2413360
  H        1.6670510     1.8686130    -0.4607680
  H        0.0151050     1.9693480     0.1947690
  H        2.4631220    -0.8193040     0.6447500
  H        1.7659200    -1.7521810    -0.7136960
  H        2.6243576    -0.2346692    -1.0198681
  H       -2.3916570    -0.7986900     0.9363150
  H       -1.7508380     0.8532310     1.0447820
  H       -2.6851960     0.3180950    -1.1185210
units angstrom
no_reorient  #important for SAPT in psi4, default
symmetry c1  #important for SAPT in psi4, default
}

set PROPERTIES_ORIGIN ["COM"]
properties('MP2/aug-cc-pvtz', properties = ['dipole'])
--------------------------------------------------------------------------

    Molecular point group: c1
  Charge       = 1
  Multiplicity = 1
  Basis Set: AUG-CC-PVTZ
    Blend: AUG-CC-PVTZ
  Basis Set: (AUG-CC-PVTZ AUX)
    Blend: AUG-CC-PVTZ-JKFIT

    Orbital Energies [Eh]
    ---------------------

    Doubly Occupied:

       1A    -20.733110     2A    -15.856154     3A    -11.456969
       4A    -11.454122     5A    -11.449152     6A    -11.447425
       7A     -1.539606     8A     -1.487156     9A     -1.206938
      10A     -1.166882    11A     -1.094026    12A     -1.024906
      13A     -0.919394    14A     -0.877106    15A     -0.853743
      16A     -0.838527    17A     -0.791986    18A     -0.758279
      19A     -0.746606    20A     -0.741146    21A     -0.725406
      22A     -0.717263    23A     -0.711765    24A     -0.674392
      25A     -0.624331

  @DF-RHF Final Energy:  -287.65942532031943

   => Energetics <=

    Nuclear Repulsion Energy =            278.6022536494639326
    One-Electron Energy =                -932.7305787829493511
    Two-Electron Energy =                 366.4688998131659901
    Total Energy =                       -287.6594253203194285
  Basis Set: (AUG-CC-PVTZ AUX)
    Blend: AUG-CC-PVTZ-RI
    Molecular point group: c1

    Geometry (in Angstrom), charge = 1, multiplicity = 1:

       Center              X                  Y                   Z               Mass
    ------------   -----------------  -----------------  -----------------  -----------------
         O           -1.743600974873     0.053481049003    -0.871002039450    15.994914619570
         N            0.742763025127     0.011010049003    -0.173291039450    14.003074004430
         C           -0.234037974873    -0.704081950997     0.721754960550    12.000000000000
         C            0.988321025127     1.425738049003     0.249586960550    12.000000000000
         C            2.023293025127    -0.749929950997    -0.315715039450    12.000000000000
         C           -1.617068974873    -0.099884950997     0.541175960550    12.000000000000
         H            0.262422025127     0.046733049003    -1.087705039450     1.007825032230
         H           -0.238381974873    -1.746963950997     0.398304960550     1.007825032230
         H            0.129100025127    -0.641563950997     1.750546960550     1.007825032230
         H            1.397039025127     1.419220049003     1.260316960550     1.007825032230
         H            1.701551025127     1.873905049003    -0.441787039450     1.007825032230
         H            0.049605025127     1.974640049003     0.213749960550     1.007825032230
         H            2.497622025127    -0.814011950997     0.663730960550     1.007825032230
         H            1.800420025127    -1.746888950997    -0.694715039450     1.007825032230
         H            2.658857625127    -0.229377150997    -1.000887139450     1.007825032230
         H           -2.357156974873    -0.793397950997     0.955295960550     1.007825032230
         H           -1.716337974873     0.858523049003     1.063762960550     1.007825032230
         H           -2.650695974873     0.323387049003    -1.099540039450     1.007825032230

  Basis Set: AUG-CC-PVTZ
    Blend: AUG-CC-PVTZ
  Basis Set: (AUG-CC-PVTZ AUX)
    Blend: AUG-CC-PVTZ-JKFIT
	 Reference Energy          =    -287.6594253203194285 [Eh]
	 Singles Energy            =      -0.0000000000000000 [Eh]
	 Same-Spin Energy          =      -0.2849947874208340 [Eh]
	 Opposite-Spin Energy      =      -0.9992697955449298 [Eh]
	 Correlation Energy        =      -1.2842645829657637 [Eh]
	 Total Energy              =    -288.9436899032851898 [Eh]

	 ================> DF-SCS-MP2 Energies <==================
	-----------------------------------------------------------
	 SCS Same-Spin Scale       =       0.3333333333333333 [-]
	 SCS Opposite-Spin Scale   =       1.2000000000000000 [-]
	 SCS Same-Spin Energy      =      -0.0949982624736113 [Eh]
	 SCS Opposite-Spin Energy  =      -1.1991237546539157 [Eh]
	 SCS Correlation Energy    =      -1.2941220171275269 [Eh]
	 SCS Total Energy          =    -288.9535473374469348 [Eh]
	-----------------------------------------------------------

  Dipole Moment: [D]
     X:     1.3692      Y:     0.3085      Z:     0.6629     Total:     1.5522

*** Psi4 exiting successfully. Buy a developer a beer!
