                               Psi4 1.4a3.dev225

  ==> Input File <==

--------------------------------------------------------------------------
#psi4
#
memory 32 gb

molecule  {
1 1
  O       -1.7781010     0.0481890    -0.8899830
  N        0.7082630     0.0057180    -0.1922720
  C       -0.2685380    -0.7093740     0.7027740
  C        0.9538210     1.4204460     0.2306060
  C        1.9887930    -0.7552220    -0.3346960
  C       -1.6520467    -0.0991339     0.5480220
  H        0.2279220     0.0414410    -1.1066860
  H       -0.2728820    -1.7522560     0.3793240
  H        0.0946000    -0.6468560     1.7315660
  H        1.3625390     1.4139280     1.2413360
  H        1.6670510     1.8686130    -0.4607680
  H        0.0151050     1.9693480     0.1947690
  H        2.4631220    -0.8193040     0.6447500
  H        1.7659200    -1.7521810    -0.7136960
  H        2.6362400    -0.2249370    -1.0326780
  H       -2.3916570    -0.7986900     0.9363150
  H       -1.7508380     0.8532310     1.0447820
  H       -2.6851960     0.3180950    -1.1185210
units angstrom
no_reorient  #important for SAPT in psi4, default
symmetry c1  #important for SAPT in psi4, default
}

set PROPERTIES_ORIGIN ["COM"]
properties('MP2/aug-cc-pvtz', properties = ['dipole'])
--------------------------------------------------------------------------

    Molecular point group: c1
  Charge       = 1
  Multiplicity = 1
  Basis Set: AUG-CC-PVTZ
    Blend: AUG-CC-PVTZ
  Basis Set: (AUG-CC-PVTZ AUX)
    Blend: AUG-CC-PVTZ-JKFIT

    Orbital Energies [Eh]
    ---------------------

    Doubly Occupied:

       1A    -20.730758     2A    -15.856476     3A    -11.457758
       4A    -11.454016     5A    -11.449712     6A    -11.449335
       7A     -1.531470     8A     -1.485793     9A     -1.207470
      10A     -1.166236    11A     -1.094098    12A     -1.025823
      13A     -0.918960    14A     -0.874778    15A     -0.851080
      16A     -0.837771    17A     -0.792325    18A     -0.757268
      19A     -0.743163    20A     -0.738812    21A     -0.725418
      22A     -0.715476    23A     -0.709748    24A     -0.676568
      25A     -0.628209

  @DF-RHF Final Energy:  -287.65832727486969

   => Energetics <=

    Nuclear Repulsion Energy =            278.2087757258814236
    One-Electron Energy =                -931.9771603537747069
    Two-Electron Energy =                 366.1100573530235920
    Total Energy =                       -287.6583272748696913
  Basis Set: (AUG-CC-PVTZ AUX)
    Blend: AUG-CC-PVTZ-RI
    Molecular point group: c1

    Geometry (in Angstrom), charge = 1, multiplicity = 1:

       Center              X                  Y                   Z               Mass
    ------------   -----------------  -----------------  -----------------  -----------------
         O           -1.743670270569     0.052567253592    -0.874298827490    15.994914619570
         N            0.742693729431     0.010096253592    -0.176587827490    14.003074004430
         C           -0.234107270569    -0.704995746408     0.718458172510    12.000000000000
         C            0.988251729431     1.424824253592     0.246290172510    12.000000000000
         C            2.023223729431    -0.750843746408    -0.319011827490    12.000000000000
         C           -1.617615970569    -0.094755646408     0.563706172510    12.000000000000
         H            0.262352729431     0.045819253592    -1.091001827490     1.007825032230
         H           -0.238451270569    -1.747877746408     0.395008172510     1.007825032230
         H            0.129030729431    -0.642477746408     1.747250172510     1.007825032230
         H            1.396969729431     1.418306253592     1.257020172510     1.007825032230
         H            1.701481729431     1.872991253592    -0.445083827490     1.007825032230
         H            0.049535729431     1.973726253592     0.210453172510     1.007825032230
         H            2.497552729431    -0.814925746408     0.660434172510     1.007825032230
         H            1.800350729431    -1.747802746408    -0.698011827490     1.007825032230
         H            2.670670729431    -0.220558746408    -1.016993827490     1.007825032230
         H           -2.357226270569    -0.794311746408     0.951999172510     1.007825032230
         H           -1.716407270569     0.857609253592     1.060466172510     1.007825032230
         H           -2.650765270569     0.322473253592    -1.102836827490     1.007825032230

  Basis Set: AUG-CC-PVTZ
    Blend: AUG-CC-PVTZ
  Basis Set: (AUG-CC-PVTZ AUX)
    Blend: AUG-CC-PVTZ-JKFIT
	 Reference Energy          =    -287.6583272748696913 [Eh]
	 Singles Energy            =      -0.0000000000000000 [Eh]
	 Same-Spin Energy          =      -0.2850302123055924 [Eh]
	 Opposite-Spin Energy      =      -0.9998086683342056 [Eh]
	 Correlation Energy        =      -1.2848388806397981 [Eh]
	 Total Energy              =    -288.9431661555095161 [Eh]

	 ================> DF-SCS-MP2 Energies <==================
	-----------------------------------------------------------
	 SCS Same-Spin Scale       =       0.3333333333333333 [-]
	 SCS Opposite-Spin Scale   =       1.2000000000000000 [-]
	 SCS Same-Spin Energy      =      -0.0950100707685308 [Eh]
	 SCS Opposite-Spin Energy  =      -1.1997704020010467 [Eh]
	 SCS Correlation Energy    =      -1.2947804727695775 [Eh]
	 SCS Total Energy          =    -288.9531077476392511 [Eh]
	-----------------------------------------------------------

  Dipole Moment: [D]
     X:     1.3892      Y:     0.3081      Z:     0.7226     Total:     1.5959

*** Psi4 exiting successfully. Buy a developer a beer!
