                               Psi4 1.4a3.dev225

  ==> Input File <==

--------------------------------------------------------------------------
#psi4
#
memory 32 gb

molecule  {
1 1
  O       -1.7781010     0.0481890    -0.8899830
  N        0.7082630     0.0057180    -0.1922720
  C       -0.2685380    -0.7093740     0.7027740
  C        0.9538210     1.4204460     0.2306060
  C        1.9887930    -0.7552220    -0.3346960
  C       -1.6398696    -0.1452319     0.3686621
  H        0.2279220     0.0414410    -1.1066860
  H       -0.2728820    -1.7522560     0.3793240
  H        0.0946000    -0.6468560     1.7315660
  H        1.3625390     1.4139280     1.2413360
  H        1.6670510     1.8686130    -0.4607680
  H        0.0151050     1.9693480     0.1947690
  H        2.4631220    -0.8193040     0.6447500
  H        1.7659200    -1.7521810    -0.7136960
  H        2.6362400    -0.2249370    -1.0326780
  H       -2.3916570    -0.7986900     0.9363150
  H       -1.7508380     0.8532310     1.0447820
  H       -2.6851960     0.3180950    -1.1185210
units angstrom
no_reorient  #important for SAPT in psi4, default
symmetry c1  #important for SAPT in psi4, default
}

set PROPERTIES_ORIGIN ["COM"]
properties('MP2/aug-cc-pvtz', properties = ['dipole'])
--------------------------------------------------------------------------

    Molecular point group: c1
  Charge       = 1
  Multiplicity = 1
  Basis Set: AUG-CC-PVTZ
    Blend: AUG-CC-PVTZ
  Basis Set: (AUG-CC-PVTZ AUX)
    Blend: AUG-CC-PVTZ-JKFIT

    Orbital Energies [Eh]
    ---------------------

    Doubly Occupied:

       1A    -20.748175     2A    -15.855311     3A    -11.460814
       4A    -11.454531     5A    -11.448765     6A    -11.447595
       7A     -1.605250     8A     -1.491217     9A     -1.203995
      10A     -1.165043    11A     -1.087537    12A     -1.026601
      13A     -0.922552    14A     -0.903196    15A     -0.862539
      16A     -0.837937    17A     -0.800336    18A     -0.779416
      19A     -0.754817    20A     -0.743691    21A     -0.724816
      22A     -0.723186    23A     -0.717818    24A     -0.653561
      25A     -0.584215

  @DF-RHF Final Energy:  -287.63361660324784

   => Energetics <=

    Nuclear Repulsion Energy =            280.5283101545246609
    One-Electron Energy =                -936.3180224271350198
    Two-Electron Energy =                 368.1560956693625144
    Total Energy =                       -287.6336166032478445
  Basis Set: (AUG-CC-PVTZ AUX)
    Blend: AUG-CC-PVTZ-RI
    Molecular point group: c1

    Geometry (in Angstrom), charge = 1, multiplicity = 1:

       Center              X                  Y                   Z               Mass
    ------------   -----------------  -----------------  -----------------  -----------------
         O           -1.745292227901     0.058707384586    -0.850408565851    15.994914619570
         N            0.741071772099     0.016236384586    -0.152697565851    14.003074004430
         C           -0.235729227901    -0.698855615414     0.742348434149    12.000000000000
         C            0.986629772099     1.430964384586     0.270180434149    12.000000000000
         C            2.021601772099    -0.744703615414    -0.295121565851    12.000000000000
         C           -1.607060827901    -0.134713515414     0.408236534149    12.000000000000
         H            0.260730772099     0.051959384586    -1.067111565851     1.007825032230
         H           -0.240073227901    -1.741737615414     0.418898434149     1.007825032230
         H            0.127408772099    -0.636337615414     1.771140434149     1.007825032230
         H            1.395347772099     1.424446384586     1.280910434149     1.007825032230
         H            1.699859772099     1.879131384586    -0.421193565851     1.007825032230
         H            0.047913772099     1.979866384586     0.234343434149     1.007825032230
         H            2.495930772099    -0.808785615414     0.684324434149     1.007825032230
         H            1.798728772099    -1.741662615414    -0.674121565851     1.007825032230
         H            2.669048772099    -0.214418615414    -0.993103565851     1.007825032230
         H           -2.358848227901    -0.788171615414     0.975889434149     1.007825032230
         H           -1.718029227901     0.863749384586     1.084356434149     1.007825032230
         H           -2.652387227901     0.328613384586    -1.078946565851     1.007825032230

  Basis Set: AUG-CC-PVTZ
    Blend: AUG-CC-PVTZ
  Basis Set: (AUG-CC-PVTZ AUX)
    Blend: AUG-CC-PVTZ-JKFIT
	 Reference Energy          =    -287.6336166032478445 [Eh]
	 Singles Energy            =      -0.0000000000000000 [Eh]
	 Same-Spin Energy          =      -0.2856799424940019 [Eh]
	 Opposite-Spin Energy      =      -0.9986503235159558 [Eh]
	 Correlation Energy        =      -1.2843302660099578 [Eh]
	 Total Energy              =    -288.9179468692577757 [Eh]

	 ================> DF-SCS-MP2 Energies <==================
	-----------------------------------------------------------
	 SCS Same-Spin Scale       =       0.3333333333333333 [-]
	 SCS Opposite-Spin Scale   =       1.2000000000000000 [-]
	 SCS Same-Spin Energy      =      -0.0952266474980006 [Eh]
	 SCS Opposite-Spin Energy  =      -1.1983803882191471 [Eh]
	 SCS Correlation Energy    =      -1.2936070357171476 [Eh]
	 SCS Total Energy          =    -288.9272236389650175 [Eh]
	-----------------------------------------------------------

  Dipole Moment: [D]
     X:     1.2544      Y:     0.2730      Z:     0.2002     Total:     1.2992

*** Psi4 exiting successfully. Buy a developer a beer!
