                               Psi4 1.4a3.dev225

  ==> Input File <==

--------------------------------------------------------------------------
#psi4
#
memory 32 gb

molecule  {
1 1
  O       -1.7781010     0.0481890    -0.8899830
  N        0.7082630     0.0057180    -0.1922720
  C       -0.2685380    -0.7093740     0.7027740
  C        0.9538210     1.4204460     0.2306060
  C        1.9887930    -0.7552220    -0.3346960
  C       -1.6515690    -0.1051770     0.5221950
  H        0.2511602     0.0397128    -1.0624480
  H       -0.2728820    -1.7522560     0.3793240
  H        0.0946000    -0.6468560     1.7315660
  H        1.3625390     1.4139280     1.2413360
  H        1.6670510     1.8686130    -0.4607680
  H        0.0151050     1.9693480     0.1947690
  H        2.4631220    -0.8193040     0.6447500
  H        1.7659200    -1.7521810    -0.7136960
  H        2.6362400    -0.2249370    -1.0326780
  H       -2.3916570    -0.7986900     0.9363150
  H       -1.7508380     0.8532310     1.0447820
  H       -2.6851960     0.3180950    -1.1185210
units angstrom
no_reorient  #important for SAPT in psi4, default
symmetry c1  #important for SAPT in psi4, default
}

set PROPERTIES_ORIGIN ["COM"]
properties('MP2/aug-cc-pvtz', properties = ['dipole'])
--------------------------------------------------------------------------

    Molecular point group: c1
  Charge       = 1
  Multiplicity = 1
  Basis Set: AUG-CC-PVTZ
    Blend: AUG-CC-PVTZ
  Basis Set: (AUG-CC-PVTZ AUX)
    Blend: AUG-CC-PVTZ-JKFIT

    Orbital Energies [Eh]
    ---------------------

    Doubly Occupied:

       1A    -20.732375     2A    -15.853422     3A    -11.457507
       4A    -11.454144     5A    -11.450366     6A    -11.449815
       7A     -1.540058     8A     -1.493546     9A     -1.207271
      10A     -1.167071    11A     -1.099027    12A     -1.029728
      13A     -0.921499    14A     -0.878722    15A     -0.854809
      16A     -0.838225    17A     -0.792418    18A     -0.758401
      19A     -0.747000    20A     -0.739872    21A     -0.725938
      22A     -0.721106    23A     -0.712755    24A     -0.674395
      25A     -0.623922

  @DF-RHF Final Energy:  -287.65950175740477

   => Energetics <=

    Nuclear Repulsion Energy =            278.7814823333313257
    One-Electron Energy =                -933.0351877810699079
    Two-Electron Energy =                 366.5942036903338703
    Total Energy =                       -287.6595017574047688
  Basis Set: (AUG-CC-PVTZ AUX)
    Blend: AUG-CC-PVTZ-RI
    Molecular point group: c1

    Geometry (in Angstrom), charge = 1, multiplicity = 1:

       Center              X                  Y                   Z               Mass
    ------------   -----------------  -----------------  -----------------  -----------------
         O           -1.743993856188     0.053391511181    -0.871353614118    15.994914619570
         N            0.742370143812     0.010920511181    -0.173642614118    14.003074004430
         C           -0.234430856188    -0.704171488819     0.721403385882    12.000000000000
         C            0.987928143812     1.425648511181     0.249235385882    12.000000000000
         C            2.022900143812    -0.750019488819    -0.316066614118    12.000000000000
         C           -1.617461856188    -0.099974488819     0.540824385882    12.000000000000
         H            0.285267343812     0.044915311181    -1.043818614118     1.007825032230
         H           -0.238774856188    -1.747053488819     0.397953385882     1.007825032230
         H            0.128707143812    -0.641653488819     1.750195385882     1.007825032230
         H            1.396646143812     1.419130511181     1.259965385882     1.007825032230
         H            1.701158143812     1.873815511181    -0.442138614118     1.007825032230
         H            0.049212143812     1.974550511181     0.213398385882     1.007825032230
         H            2.497229143812    -0.814101488819     0.663379385882     1.007825032230
         H            1.800027143812    -1.746978488819    -0.695066614118     1.007825032230
         H            2.670347143812    -0.219734488819    -1.014048614118     1.007825032230
         H           -2.357549856188    -0.793487488819     0.954944385882     1.007825032230
         H           -1.716730856188     0.858433511181     1.063411385882     1.007825032230
         H           -2.651088856188     0.323297511181    -1.099891614118     1.007825032230

  Basis Set: AUG-CC-PVTZ
    Blend: AUG-CC-PVTZ
  Basis Set: (AUG-CC-PVTZ AUX)
    Blend: AUG-CC-PVTZ-JKFIT
	 Reference Energy          =    -287.6595017574047688 [Eh]
	 Singles Energy            =      -0.0000000000000000 [Eh]
	 Same-Spin Energy          =      -0.2845376951951939 [Eh]
	 Opposite-Spin Energy      =      -0.9983734382850009 [Eh]
	 Correlation Energy        =      -1.2829111334801948 [Eh]
	 Total Energy              =    -288.9424128908849525 [Eh]

	 ================> DF-SCS-MP2 Energies <==================
	-----------------------------------------------------------
	 SCS Same-Spin Scale       =       0.3333333333333333 [-]
	 SCS Opposite-Spin Scale   =       1.2000000000000000 [-]
	 SCS Same-Spin Energy      =      -0.0948458983983980 [Eh]
	 SCS Opposite-Spin Energy  =      -1.1980481259420011 [Eh]
	 SCS Correlation Energy    =      -1.2928940243403990 [Eh]
	 SCS Total Energy          =    -288.9523957817451674 [Eh]
	-----------------------------------------------------------

  Dipole Moment: [D]
     X:     1.4243      Y:     0.3066      Z:     0.7193     Total:     1.6248

*** Psi4 exiting successfully. Buy a developer a beer!
