                               Psi4 1.4a3.dev225

  ==> Input File <==

--------------------------------------------------------------------------
#psi4
#
memory 32 gb

molecule  {
1 1
  O       -1.7781010     0.0481890    -0.8899830
  N        0.7082630     0.0057180    -0.1922720
  C       -0.2685380    -0.7093740     0.7027740
  C        0.9538210     1.4204460     0.2306060
  C        2.0743698    -0.8060750    -0.3442141
  C       -1.6515690    -0.1051770     0.5221950
  H        0.2279220     0.0414410    -1.1066860
  H       -0.2728820    -1.7522560     0.3793240
  H        0.0946000    -0.6468560     1.7315660
  H        1.3625390     1.4139280     1.2413360
  H        1.6670510     1.8686130    -0.4607680
  H        0.0151050     1.9693480     0.1947690
  H        2.4631220    -0.8193040     0.6447500
  H        1.7659200    -1.7521810    -0.7136960
  H        2.6362400    -0.2249370    -1.0326780
  H       -2.3916570    -0.7986900     0.9363150
  H       -1.7508380     0.8532310     1.0447820
  H       -2.6851960     0.3180950    -1.1185210
units angstrom
no_reorient  #important for SAPT in psi4, default
symmetry c1  #important for SAPT in psi4, default
}

set PROPERTIES_ORIGIN ["COM"]
properties('MP2/aug-cc-pvtz', properties = ['dipole'])
--------------------------------------------------------------------------

    Molecular point group: c1
  Charge       = 1
  Multiplicity = 1
  Basis Set: AUG-CC-PVTZ
    Blend: AUG-CC-PVTZ
  Basis Set: (AUG-CC-PVTZ AUX)
    Blend: AUG-CC-PVTZ-JKFIT

    Orbital Energies [Eh]
    ---------------------

    Doubly Occupied:

       1A    -20.730830     2A    -15.849193     3A    -11.454856
       4A    -11.453888     5A    -11.451730     6A    -11.445857
       7A     -1.535998     8A     -1.468627     9A     -1.201459
      10A     -1.163611    11A     -1.095238    12A     -1.019440
      13A     -0.910982    14A     -0.872239    15A     -0.846556
      16A     -0.832335    17A     -0.785139    18A     -0.769425
      19A     -0.754386    20A     -0.748611    21A     -0.723344
      22A     -0.710679    23A     -0.707438    24A     -0.669522
      25A     -0.621924

  @DF-RHF Final Energy:  -287.65202962041087

   => Energetics <=

    Nuclear Repulsion Energy =            276.8042813027623765
    One-Electron Energy =                -929.2660072558838920
    Two-Electron Energy =                 364.8096963327105868
    Total Energy =                       -287.6520296204108718
  Basis Set: (AUG-CC-PVTZ AUX)
    Blend: AUG-CC-PVTZ-RI
    Molecular point group: c1

    Geometry (in Angstrom), charge = 1, multiplicity = 1:

       Center              X                  Y                   Z               Mass
    ------------   -----------------  -----------------  -----------------  -----------------
         O           -1.755132501091     0.060145662786    -0.869590954177    15.994914619570
         N            0.731231498909     0.017674662786    -0.171879954177    14.003074004430
         C           -0.245569501091    -0.697417337214     0.723166045823    12.000000000000
         C            0.976789498909     1.432402662786     0.250998045823    12.000000000000
         C            2.097338298909    -0.794118337214    -0.323822054177    12.000000000000
         C           -1.628600501091    -0.093220337214     0.542587045823    12.000000000000
         H            0.250890498909     0.053397662786    -1.086293954177     1.007825032230
         H           -0.249913501091    -1.740299337214     0.399716045823     1.007825032230
         H            0.117568498909    -0.634899337214     1.751958045823     1.007825032230
         H            1.385507498909     1.425884662786     1.261728045823     1.007825032230
         H            1.690019498909     1.880569662786    -0.440375954177     1.007825032230
         H            0.038073498909     1.981304662786     0.215161045823     1.007825032230
         H            2.486090498909    -0.807347337214     0.665142045823     1.007825032230
         H            1.788888498909    -1.740224337214    -0.693303954177     1.007825032230
         H            2.659208498909    -0.212980337214    -1.012285954177     1.007825032230
         H           -2.368688501091    -0.786733337214     0.956707045823     1.007825032230
         H           -1.727869501091     0.865187662786     1.065174045823     1.007825032230
         H           -2.662227501091     0.330051662786    -1.098128954177     1.007825032230

  Basis Set: AUG-CC-PVTZ
    Blend: AUG-CC-PVTZ
  Basis Set: (AUG-CC-PVTZ AUX)
    Blend: AUG-CC-PVTZ-JKFIT
	 Reference Energy          =    -287.6520296204108718 [Eh]
	 Singles Energy            =      -0.0000000000000000 [Eh]
	 Same-Spin Energy          =      -0.2846070005547643 [Eh]
	 Opposite-Spin Energy      =      -0.9999688344912365 [Eh]
	 Correlation Energy        =      -1.2845758350460008 [Eh]
	 Total Energy              =    -288.9366054554568564 [Eh]

	 ================> DF-SCS-MP2 Energies <==================
	-----------------------------------------------------------
	 SCS Same-Spin Scale       =       0.3333333333333333 [-]
	 SCS Opposite-Spin Scale   =       1.2000000000000000 [-]
	 SCS Same-Spin Energy      =      -0.0948690001849214 [Eh]
	 SCS Opposite-Spin Energy  =      -1.1999626013894837 [Eh]
	 SCS Correlation Energy    =      -1.2948316015744052 [Eh]
	 SCS Total Energy          =    -288.9468612219852730 [Eh]
	-----------------------------------------------------------

  Dipole Moment: [D]
     X:     1.5244      Y:     0.2241      Z:     0.6298     Total:     1.6645

*** Psi4 exiting successfully. Buy a developer a beer!
