                               Psi4 1.4a3.dev225

  ==> Input File <==

--------------------------------------------------------------------------
#psi4
#
memory 32 gb

molecule  {
1 1
  O       -1.7781010     0.0481890    -0.8899830
  N        0.7082630     0.0057180    -0.1922720
  C       -0.2685380    -0.7093740     0.7027740
  C        0.9795093     1.4156936     0.2307814
  C        1.9887930    -0.7552220    -0.3346960
  C       -1.6515690    -0.1051770     0.5221950
  H        0.2279220     0.0414410    -1.1066860
  H       -0.2728820    -1.7522560     0.3793240
  H        0.0946000    -0.6468560     1.7315660
  H        1.3625390     1.4139280     1.2413360
  H        1.6670510     1.8686130    -0.4607680
  H        0.0151050     1.9693480     0.1947690
  H        2.4631220    -0.8193040     0.6447500
  H        1.7659200    -1.7521810    -0.7136960
  H        2.6362400    -0.2249370    -1.0326780
  H       -2.3916570    -0.7986900     0.9363150
  H       -1.7508380     0.8532310     1.0447820
  H       -2.6851960     0.3180950    -1.1185210
units angstrom
no_reorient  #important for SAPT in psi4, default
symmetry c1  #important for SAPT in psi4, default
}

set PROPERTIES_ORIGIN ["COM"]
properties('MP2/aug-cc-pvtz', properties = ['dipole'])
--------------------------------------------------------------------------

    Molecular point group: c1
  Charge       = 1
  Multiplicity = 1
  Basis Set: AUG-CC-PVTZ
    Blend: AUG-CC-PVTZ
  Basis Set: (AUG-CC-PVTZ AUX)
    Blend: AUG-CC-PVTZ-JKFIT

    Orbital Energies [Eh]
    ---------------------

    Doubly Occupied:

       1A    -20.733029     2A    -15.856284     3A    -11.457343
       4A    -11.454104     5A    -11.449156     6A    -11.449138
       7A     -1.539495     8A     -1.487181     9A     -1.207112
      10A     -1.165033    11A     -1.093646    12A     -1.025111
      13A     -0.918913    14A     -0.877582    15A     -0.852644
      16A     -0.837048    17A     -0.792244    18A     -0.760684
      19A     -0.746092    20A     -0.739541    21A     -0.724540
      22A     -0.715330    23A     -0.711341    24A     -0.673975
      25A     -0.624216

  @DF-RHF Final Energy:  -287.65860105858644

   => Energetics <=

    Nuclear Repulsion Energy =            278.4409012360248994
    One-Electron Energy =                -932.4174377997717329
    Two-Electron Energy =                 366.3179355051603352
    Total Energy =                       -287.6586010585864415
  Basis Set: (AUG-CC-PVTZ AUX)
    Blend: AUG-CC-PVTZ-RI
    Molecular point group: c1

    Geometry (in Angstrom), charge = 1, multiplicity = 1:

       Center              X                  Y                   Z               Mass
    ------------   -----------------  -----------------  -----------------  -----------------
         O           -1.747155512175     0.054005185479    -0.870882102595    15.994914619570
         N            0.739208487825     0.011534185479    -0.173171102595    14.003074004430
         C           -0.237592512175    -0.703557814521     0.721874897405    12.000000000000
         C            1.010454787825     1.421509785479     0.249882297405    12.000000000000
         C            2.019738487825    -0.749405814521    -0.315595102595    12.000000000000
         C           -1.620623512175    -0.099360814521     0.541295897405    12.000000000000
         H            0.258867487825     0.047257185479    -1.087585102595     1.007825032230
         H           -0.241936512175    -1.746439814521     0.398424897405     1.007825032230
         H            0.125545487825    -0.641039814521     1.750666897405     1.007825032230
         H            1.393484487825     1.419744185479     1.260436897405     1.007825032230
         H            1.697996487825     1.874429185479    -0.441667102595     1.007825032230
         H            0.046050487825     1.975164185479     0.213869897405     1.007825032230
         H            2.494067487825    -0.813487814521     0.663850897405     1.007825032230
         H            1.796865487825    -1.746364814521    -0.694595102595     1.007825032230
         H            2.667185487825    -0.219120814521    -1.013577102595     1.007825032230
         H           -2.360711512175    -0.792873814521     0.955415897405     1.007825032230
         H           -1.719892512175     0.859047185479     1.063882897405     1.007825032230
         H           -2.654250512175     0.323911185479    -1.099420102595     1.007825032230

  Basis Set: AUG-CC-PVTZ
    Blend: AUG-CC-PVTZ
  Basis Set: (AUG-CC-PVTZ AUX)
    Blend: AUG-CC-PVTZ-JKFIT
	 Reference Energy          =    -287.6586010585864415 [Eh]
	 Singles Energy            =      -0.0000000000000000 [Eh]
	 Same-Spin Energy          =      -0.2850203451019993 [Eh]
	 Opposite-Spin Energy      =      -0.9994485133886782 [Eh]
	 Correlation Energy        =      -1.2844688584906776 [Eh]
	 Total Energy              =    -288.9430699170771391 [Eh]

	 ================> DF-SCS-MP2 Energies <==================
	-----------------------------------------------------------
	 SCS Same-Spin Scale       =       0.3333333333333333 [-]
	 SCS Opposite-Spin Scale   =       1.2000000000000000 [-]
	 SCS Same-Spin Energy      =      -0.0950067817006664 [Eh]
	 SCS Opposite-Spin Energy  =      -1.1993382160664139 [Eh]
	 SCS Correlation Energy    =      -1.2943449977670802 [Eh]
	 SCS Total Energy          =    -288.9529460563535395 [Eh]
	-----------------------------------------------------------

  Dipole Moment: [D]
     X:     1.3591      Y:     0.3124      Z:     0.6664     Total:     1.5456

*** Psi4 exiting successfully. Buy a developer a beer!
