                               Psi4 1.4a3.dev225

  ==> Input File <==

--------------------------------------------------------------------------
#psi4
#
memory 32 gb

molecule  {
1 1
  O       -1.7781010     0.0481890    -0.8899830
  N        0.7082630     0.0057180    -0.1922720
  C       -0.2685380    -0.7093740     0.7027740
  C        0.9538210     1.4204460     0.2306060
  C        1.9887930    -0.7552220    -0.3346960
  C       -1.6515690    -0.1051770     0.5221950
  H        0.3208747     0.0345281    -0.9297340
  H       -0.2728820    -1.7522560     0.3793240
  H        0.0946000    -0.6468560     1.7315660
  H        1.3625390     1.4139280     1.2413360
  H        1.6670510     1.8686130    -0.4607680
  H        0.0151050     1.9693480     0.1947690
  H        2.4631220    -0.8193040     0.6447500
  H        1.7659200    -1.7521810    -0.7136960
  H        2.6362400    -0.2249370    -1.0326780
  H       -2.3916570    -0.7986900     0.9363150
  H       -1.7508380     0.8532310     1.0447820
  H       -2.6851960     0.3180950    -1.1185210
units angstrom
no_reorient  #important for SAPT in psi4, default
symmetry c1  #important for SAPT in psi4, default
}

set PROPERTIES_ORIGIN ["COM"]
properties('MP2/aug-cc-pvtz', properties = ['dipole'])
--------------------------------------------------------------------------

    Molecular point group: c1
  Charge       = 1
  Multiplicity = 1
  Basis Set: AUG-CC-PVTZ
    Blend: AUG-CC-PVTZ
  Basis Set: (AUG-CC-PVTZ AUX)
    Blend: AUG-CC-PVTZ-JKFIT

    Orbital Energies [Eh]
    ---------------------

    Doubly Occupied:

       1A    -20.730436     2A    -15.842186     3A    -11.458892
       4A    -11.454130     5A    -11.452676     6A    -11.451817
       7A     -1.547788     8A     -1.514100     9A     -1.209222
      10A     -1.169907    11A     -1.125682    12A     -1.041864
      13A     -0.928181    14A     -0.882487    15A     -0.857976
      16A     -0.841020    17A     -0.793650    18A     -0.760548
      19A     -0.751433    20A     -0.740839    21A     -0.730767
      22A     -0.727641    23A     -0.714528    24A     -0.674712
      25A     -0.622736

  @DF-RHF Final Energy:  -287.62236170893567

   => Energetics <=

    Nuclear Repulsion Energy =            279.7190640467359799
    One-Electron Energy =                -934.6324148768699160
    Two-Electron Energy =                 367.2909891211982654
    Total Energy =                       -287.6223617089356708
  Basis Set: (AUG-CC-PVTZ AUX)
    Blend: AUG-CC-PVTZ-RI
    Molecular point group: c1

    Geometry (in Angstrom), charge = 1, multiplicity = 1:

       Center              X                  Y                   Z               Mass
    ------------   -----------------  -----------------  -----------------  -----------------
         O           -1.744773726817     0.053449510525    -0.872838237126    15.994914619570
         N            0.741590273183     0.010978510525    -0.175127237126    14.003074004430
         C           -0.235210726817    -0.704113489475     0.719918762874    12.000000000000
         C            0.987148273183     1.425706510525     0.247750762874    12.000000000000
         C            2.022120273183    -0.749961489475    -0.317551237126    12.000000000000
         C           -1.618241726817    -0.099916489475     0.539339762874    12.000000000000
         H            0.354201973183     0.039788610525    -0.912589237126     1.007825032230
         H           -0.239554726817    -1.746995489475     0.396468762874     1.007825032230
         H            0.127927273183    -0.641595489475     1.748710762874     1.007825032230
         H            1.395866273183     1.419188510525     1.258480762874     1.007825032230
         H            1.700378273183     1.873873510525    -0.443623237126     1.007825032230
         H            0.048432273183     1.974608510525     0.211913762874     1.007825032230
         H            2.496449273183    -0.814043489475     0.661894762874     1.007825032230
         H            1.799247273183    -1.746920489475    -0.696551237126     1.007825032230
         H            2.669567273183    -0.219676489475    -1.015533237126     1.007825032230
         H           -2.358329726817    -0.793429489475     0.953459762874     1.007825032230
         H           -1.717510726817     0.858491510525     1.061926762874     1.007825032230
         H           -2.651868726817     0.323355510525    -1.101376237126     1.007825032230

  Basis Set: AUG-CC-PVTZ
    Blend: AUG-CC-PVTZ
  Basis Set: (AUG-CC-PVTZ AUX)
    Blend: AUG-CC-PVTZ-JKFIT
	 Reference Energy          =    -287.6223617089356708 [Eh]
	 Singles Energy            =      -0.0000000000000000 [Eh]
	 Same-Spin Energy          =      -0.2833155043534827 [Eh]
	 Opposite-Spin Energy      =      -0.9959743869125751 [Eh]
	 Correlation Energy        =      -1.2792898912660577 [Eh]
	 Total Energy              =    -288.9016516002017170 [Eh]

	 ================> DF-SCS-MP2 Energies <==================
	-----------------------------------------------------------
	 SCS Same-Spin Scale       =       0.3333333333333333 [-]
	 SCS Opposite-Spin Scale   =       1.2000000000000000 [-]
	 SCS Same-Spin Energy      =      -0.0944385014511609 [Eh]
	 SCS Opposite-Spin Energy  =      -1.1951692642950902 [Eh]
	 SCS Correlation Energy    =      -1.2896077657462510 [Eh]
	 SCS Total Energy          =    -288.9119694746819391 [Eh]
	-----------------------------------------------------------

  Dipole Moment: [D]
     X:     1.5707      Y:     0.3010      Z:     0.8818     Total:     1.8263

*** Psi4 exiting successfully. Buy a developer a beer!
