                               Psi4 1.4a3.dev225

  ==> Input File <==

--------------------------------------------------------------------------
#psi4
#
memory 32 gb

molecule  {
1 1
  O       -1.7781010     0.0481890    -0.8899830
  N        0.7082630     0.0057180    -0.1922720
  C       -0.3408194    -0.8333494     0.7714700
  C        0.9538210     1.4204460     0.2306060
  C        1.9887930    -0.7552220    -0.3346960
  C       -1.6515690    -0.1051770     0.5221950
  H        0.2279220     0.0414410    -1.1066860
  H       -0.2728820    -1.7522560     0.3793240
  H        0.0946000    -0.6468560     1.7315660
  H        1.3625390     1.4139280     1.2413360
  H        1.6670510     1.8686130    -0.4607680
  H        0.0151050     1.9693480     0.1947690
  H        2.4631220    -0.8193040     0.6447500
  H        1.7659200    -1.7521810    -0.7136960
  H        2.6362400    -0.2249370    -1.0326780
  H       -2.3916570    -0.7986900     0.9363150
  H       -1.7508380     0.8532310     1.0447820
  H       -2.6851960     0.3180950    -1.1185210
units angstrom
no_reorient  #important for SAPT in psi4, default
symmetry c1  #important for SAPT in psi4, default
}

set PROPERTIES_ORIGIN ["COM"]
properties('MP2/aug-cc-pvtz', properties = ['dipole'])
--------------------------------------------------------------------------

    Molecular point group: c1
  Charge       = 1
  Multiplicity = 1
  Basis Set: AUG-CC-PVTZ
    Blend: AUG-CC-PVTZ
  Basis Set: (AUG-CC-PVTZ AUX)
    Blend: AUG-CC-PVTZ-JKFIT

    Orbital Energies [Eh]
    ---------------------

    Doubly Occupied:

       1A    -20.736040     2A    -15.842446     3A    -11.466545
       4A    -11.459102     5A    -11.443766     6A    -11.442846
       7A     -1.538575     8A     -1.460297     9A     -1.213056
      10A     -1.157482    11A     -1.081017    12A     -1.029716
      13A     -0.913145    14A     -0.873475    15A     -0.855115
      16A     -0.826647    17A     -0.791803    18A     -0.770433
      19A     -0.745562    20A     -0.743779    21A     -0.718585
      22A     -0.716440    23A     -0.710941    24A     -0.662147
      25A     -0.627064

  @DF-RHF Final Energy:  -287.63895945350748

   => Energetics <=

    Nuclear Repulsion Energy =            276.2827853083862237
    One-Electron Energy =                -928.1914387939608559
    Two-Electron Energy =                 364.2696940320671501
    Total Energy =                       -287.6389594535074821
  Basis Set: (AUG-CC-PVTZ AUX)
    Blend: AUG-CC-PVTZ-RI
    Molecular point group: c1

    Geometry (in Angstrom), charge = 1, multiplicity = 1:

       Center              X                  Y                   Z               Mass
    ------------   -----------------  -----------------  -----------------  -----------------
         O           -1.734106208704     0.069885371984    -0.880008864272    15.994914619570
         N            0.752257791296     0.027414371984    -0.182297864272    14.003074004430
         C           -0.296824608704    -0.811653028016     0.781444135728    12.000000000000
         C            0.997815791296     1.442142371984     0.240580135728    12.000000000000
         C            2.032787791296    -0.733525628016    -0.324721864272    12.000000000000
         C           -1.607574208704    -0.083480628016     0.532169135728    12.000000000000
         H            0.271916791296     0.063137371984    -1.096711864272     1.007825032230
         H           -0.228887208704    -1.730559628016     0.389298135728     1.007825032230
         H            0.138594791296    -0.625159628016     1.741540135728     1.007825032230
         H            1.406533791296     1.435624371984     1.251310135728     1.007825032230
         H            1.711045791296     1.890309371984    -0.450793864272     1.007825032230
         H            0.059099791296     1.991044371984     0.204743135728     1.007825032230
         H            2.507116791296    -0.797607628016     0.654724135728     1.007825032230
         H            1.809914791296    -1.730484628016    -0.703721864272     1.007825032230
         H            2.680234791296    -0.203240628016    -1.022703864272     1.007825032230
         H           -2.347662208704    -0.776993628016     0.946289135728     1.007825032230
         H           -1.706843208704     0.874927371984     1.054756135728     1.007825032230
         H           -2.641201208704     0.339791371984    -1.108546864272     1.007825032230

  Basis Set: AUG-CC-PVTZ
    Blend: AUG-CC-PVTZ
  Basis Set: (AUG-CC-PVTZ AUX)
    Blend: AUG-CC-PVTZ-JKFIT
	 Reference Energy          =    -287.6389594535074821 [Eh]
	 Singles Energy            =      -0.0000000000000000 [Eh]
	 Same-Spin Energy          =      -0.2847715596386092 [Eh]
	 Opposite-Spin Energy      =      -1.0005301040525694 [Eh]
	 Correlation Energy        =      -1.2853016636911785 [Eh]
	 Total Energy              =    -288.9242611171986823 [Eh]

	 ================> DF-SCS-MP2 Energies <==================
	-----------------------------------------------------------
	 SCS Same-Spin Scale       =       0.3333333333333333 [-]
	 SCS Opposite-Spin Scale   =       1.2000000000000000 [-]
	 SCS Same-Spin Energy      =      -0.0949238532128697 [Eh]
	 SCS Opposite-Spin Energy  =      -1.2006361248630832 [Eh]
	 SCS Correlation Energy    =      -1.2955599780759530 [Eh]
	 SCS Total Energy          =    -288.9345194315834533 [Eh]
	-----------------------------------------------------------

  Dipole Moment: [D]
     X:     1.1282      Y:     0.2124      Z:     0.7856     Total:     1.3911

*** Psi4 exiting successfully. Buy a developer a beer!
