                               Psi4 1.4a3.dev225

  ==> Input File <==

--------------------------------------------------------------------------
#psi4
#
memory 32 gb

molecule  {
1 1
  O       -1.7781010     0.0481890    -0.8899830
  N        0.7082630     0.0057180    -0.1922720
  C       -0.2114094    -0.5787789     0.6320995
  C        0.9538210     1.4204460     0.2306060
  C        1.9887930    -0.7552220    -0.3346960
  C       -1.6515690    -0.1051770     0.5221950
  H        0.2279220     0.0414410    -1.1066860
  H       -0.2728820    -1.7522560     0.3793240
  H        0.0946000    -0.6468560     1.7315660
  H        1.3625390     1.4139280     1.2413360
  H        1.6670510     1.8686130    -0.4607680
  H        0.0151050     1.9693480     0.1947690
  H        2.4631220    -0.8193040     0.6447500
  H        1.7659200    -1.7521810    -0.7136960
  H        2.6362400    -0.2249370    -1.0326780
  H       -2.3916570    -0.7986900     0.9363150
  H       -1.7508380     0.8532310     1.0447820
  H       -2.6851960     0.3180950    -1.1185210
units angstrom
no_reorient  #important for SAPT in psi4, default
symmetry c1  #important for SAPT in psi4, default
}

set PROPERTIES_ORIGIN ["COM"]
properties('MP2/aug-cc-pvtz', properties = ['dipole'])
--------------------------------------------------------------------------

    Molecular point group: c1
  Charge       = 1
  Multiplicity = 1
  Basis Set: AUG-CC-PVTZ
    Blend: AUG-CC-PVTZ
  Basis Set: (AUG-CC-PVTZ AUX)
    Blend: AUG-CC-PVTZ-JKFIT

    Orbital Energies [Eh]
    ---------------------

    Doubly Occupied:

       1A    -20.731514     2A    -15.863370     3A    -11.456377
       4A    -11.455228     5A    -11.453628     6A    -11.453015
       7A     -1.550382     8A     -1.513752     9A     -1.206645
      10A     -1.173412    11A     -1.105912    12A     -1.028660
      13A     -0.926399    14A     -0.881575    15A     -0.856188
      16A     -0.849198    17A     -0.794192    18A     -0.759628
      19A     -0.754130    20A     -0.748176    21A     -0.729446
      22A     -0.711220    23A     -0.685183    24A     -0.663232
      25A     -0.616140

  @DF-RHF Final Energy:  -287.63253918375011

   => Energetics <=

    Nuclear Repulsion Energy =            280.9013680774272075
    One-Electron Energy =                -937.1346101889331521
    Two-Electron Energy =                 368.6007029277557763
    Total Energy =                       -287.6325391837501115
  Basis Set: (AUG-CC-PVTZ AUX)
    Blend: AUG-CC-PVTZ-RI
    Molecular point group: c1

    Geometry (in Angstrom), charge = 1, multiplicity = 1:

       Center              X                  Y                   Z               Mass
    ------------   -----------------  -----------------  -----------------  -----------------
         O           -1.751343276514     0.035977258461    -0.861445084353    15.994914619570
         N            0.735020723486    -0.006493741539    -0.163734084353    14.003074004430
         C           -0.184651676514    -0.590990641539     0.660637415647    12.000000000000
         C            0.980578723486     1.408234258461     0.259143915647    12.000000000000
         C            2.015550723486    -0.767433741539    -0.306158084353    12.000000000000
         C           -1.624811276514    -0.117388741539     0.550732915647    12.000000000000
         H            0.254679723486     0.029229258461    -1.078148084353     1.007825032230
         H           -0.246124276514    -1.764467741539     0.407861915647     1.007825032230
         H            0.121357723486    -0.659067741539     1.760103915647     1.007825032230
         H            1.389296723486     1.401716258461     1.269873915647     1.007825032230
         H            1.693808723486     1.856401258461    -0.432230084353     1.007825032230
         H            0.041862723486     1.957136258461     0.223306915647     1.007825032230
         H            2.489879723486    -0.831515741539     0.673287915647     1.007825032230
         H            1.792677723486    -1.764392741539    -0.685158084353     1.007825032230
         H            2.662997723486    -0.237148741539    -1.004140084353     1.007825032230
         H           -2.364899276514    -0.810901741539     0.964852915647     1.007825032230
         H           -1.724080276514     0.841019258461     1.073319915647     1.007825032230
         H           -2.658438276514     0.305883258461    -1.089983084353     1.007825032230

  Basis Set: AUG-CC-PVTZ
    Blend: AUG-CC-PVTZ
  Basis Set: (AUG-CC-PVTZ AUX)
    Blend: AUG-CC-PVTZ-JKFIT
	 Reference Energy          =    -287.6325391837501115 [Eh]
	 Singles Energy            =      -0.0000000000000000 [Eh]
	 Same-Spin Energy          =      -0.2867438547827454 [Eh]
	 Opposite-Spin Energy      =      -1.0011148578003435 [Eh]
	 Correlation Energy        =      -1.2878587125830889 [Eh]
	 Total Energy              =    -288.9203978963332133 [Eh]

	 ================> DF-SCS-MP2 Energies <==================
	-----------------------------------------------------------
	 SCS Same-Spin Scale       =       0.3333333333333333 [-]
	 SCS Opposite-Spin Scale   =       1.2000000000000000 [-]
	 SCS Same-Spin Energy      =      -0.0955812849275818 [Eh]
	 SCS Opposite-Spin Energy  =      -1.2013378293604122 [Eh]
	 SCS Correlation Energy    =      -1.2969191142879941 [Eh]
	 SCS Total Energy          =    -288.9294582980381279 [Eh]
	-----------------------------------------------------------

  Dipole Moment: [D]
     X:     1.5292      Y:     0.3838      Z:     0.5719     Total:     1.6771

*** Psi4 exiting successfully. Buy a developer a beer!
