                               Psi4 1.4a3.dev225

  ==> Input File <==

--------------------------------------------------------------------------
#psi4
#
memory 32 gb

molecule  {
1 1
  O       -1.7781010     0.0481890    -0.8899830
  N        0.7082630     0.0057180    -0.1922720
  C       -0.2685380    -0.7093740     0.7027740
  C        0.9620235     1.4677026     0.2447315
  C        1.9887930    -0.7552220    -0.3346960
  C       -1.6515690    -0.1051770     0.5221950
  H        0.2279220     0.0414410    -1.1066860
  H       -0.2728820    -1.7522560     0.3793240
  H        0.0946000    -0.6468560     1.7315660
  H        1.3625390     1.4139280     1.2413360
  H        1.6670510     1.8686130    -0.4607680
  H        0.0151050     1.9693480     0.1947690
  H        2.4631220    -0.8193040     0.6447500
  H        1.7659200    -1.7521810    -0.7136960
  H        2.6362400    -0.2249370    -1.0326780
  H       -2.3916570    -0.7986900     0.9363150
  H       -1.7508380     0.8532310     1.0447820
  H       -2.6851960     0.3180950    -1.1185210
units angstrom
no_reorient  #important for SAPT in psi4, default
symmetry c1  #important for SAPT in psi4, default
}

set PROPERTIES_ORIGIN ["COM"]
properties('MP2/aug-cc-pvtz', properties = ['dipole'])
--------------------------------------------------------------------------

    Molecular point group: c1
  Charge       = 1
  Multiplicity = 1
  Basis Set: AUG-CC-PVTZ
    Blend: AUG-CC-PVTZ
  Basis Set: (AUG-CC-PVTZ AUX)
    Blend: AUG-CC-PVTZ-JKFIT

    Orbital Energies [Eh]
    ---------------------

    Doubly Occupied:

       1A    -20.732497     2A    -15.853133     3A    -11.455537
       4A    -11.453498     5A    -11.451240     6A    -11.448033
       7A     -1.538087     8A     -1.477615     9A     -1.204324
      10A     -1.164791    11A     -1.093372    12A     -1.023001
      13A     -0.915071    14A     -0.874876    15A     -0.852000
      16A     -0.832373    17A     -0.789072    18A     -0.764762
      19A     -0.747415    20A     -0.739782    21A     -0.730269
      22A     -0.719251    23A     -0.705563    24A     -0.673163
      25A     -0.623645

  @DF-RHF Final Energy:  -287.65748278404260

   => Energetics <=

    Nuclear Repulsion Energy =            277.6523569498496613
    One-Electron Energy =                -930.8949400945909929
    Two-Electron Energy =                 365.5851003606986751
    Total Energy =                       -287.6574827840425996
  Basis Set: (AUG-CC-PVTZ AUX)
    Blend: AUG-CC-PVTZ-RI
    Molecular point group: c1

    Geometry (in Angstrom), charge = 1, multiplicity = 1:

       Center              X                  Y                   Z               Mass
    ------------   -----------------  -----------------  -----------------  -----------------
         O           -1.744826450122     0.047077725007    -0.872740218812    15.994914619570
         N            0.741537549878     0.004606725007    -0.175029218812    14.003074004430
         C           -0.235263450122    -0.710485274993     0.720016781188    12.000000000000
         C            0.995298049878     1.466591325007     0.261974281188    12.000000000000
         C            2.022067549878    -0.756333274993    -0.317453218812    12.000000000000
         C           -1.618294450122    -0.106288274993     0.539437781188    12.000000000000
         H            0.261196549878     0.040329725007    -1.089443218812     1.007825032230
         H           -0.239607450122    -1.753367274993     0.396566781188     1.007825032230
         H            0.127874549878    -0.647967274993     1.748808781188     1.007825032230
         H            1.395813549878     1.412816725007     1.258578781188     1.007825032230
         H            1.700325549878     1.867501725007    -0.443525218812     1.007825032230
         H            0.048379549878     1.968236725007     0.212011781188     1.007825032230
         H            2.496396549878    -0.820415274993     0.661992781188     1.007825032230
         H            1.799194549878    -1.753292274993    -0.696453218812     1.007825032230
         H            2.669514549878    -0.226048274993    -1.015435218812     1.007825032230
         H           -2.358382450122    -0.799801274993     0.953557781188     1.007825032230
         H           -1.717563450122     0.852119725007     1.062024781188     1.007825032230
         H           -2.651921450122     0.316983725007    -1.101278218812     1.007825032230

  Basis Set: AUG-CC-PVTZ
    Blend: AUG-CC-PVTZ
  Basis Set: (AUG-CC-PVTZ AUX)
    Blend: AUG-CC-PVTZ-JKFIT
	 Reference Energy          =    -287.6574827840425996 [Eh]
	 Singles Energy            =      -0.0000000000000000 [Eh]
	 Same-Spin Energy          =      -0.2847193583110505 [Eh]
	 Opposite-Spin Energy      =      -0.9995323302287586 [Eh]
	 Correlation Energy        =      -1.2842516885398092 [Eh]
	 Total Energy              =    -288.9417344725824250 [Eh]

	 ================> DF-SCS-MP2 Energies <==================
	-----------------------------------------------------------
	 SCS Same-Spin Scale       =       0.3333333333333333 [-]
	 SCS Opposite-Spin Scale   =       1.2000000000000000 [-]
	 SCS Same-Spin Energy      =      -0.0949064527703502 [Eh]
	 SCS Opposite-Spin Energy  =      -1.1994387962745103 [Eh]
	 SCS Correlation Energy    =      -1.2943452490448606 [Eh]
	 SCS Total Energy          =    -288.9518280330874518 [Eh]
	-----------------------------------------------------------

  Dipole Moment: [D]
     X:     1.3867      Y:     0.3762      Z:     0.6761     Total:     1.5880

*** Psi4 exiting successfully. Buy a developer a beer!
