                               Psi4 1.4a3.dev225

  ==> Input File <==

--------------------------------------------------------------------------
#psi4
#
memory 32 gb

molecule  {
1 1
  O       -1.7781010     0.0481890    -0.8899830
  N        0.7082630     0.0057180    -0.1922720
  C       -0.2685380    -0.7093740     0.7027740
  C        0.9309050     1.4366334     0.1865308
  C        1.9887930    -0.7552220    -0.3346960
  C       -1.6515690    -0.1051770     0.5221950
  H        0.2279220     0.0414410    -1.1066860
  H       -0.2728820    -1.7522560     0.3793240
  H        0.0946000    -0.6468560     1.7315660
  H        1.3625390     1.4139280     1.2413360
  H        1.6670510     1.8686130    -0.4607680
  H        0.0151050     1.9693480     0.1947690
  H        2.4631220    -0.8193040     0.6447500
  H        1.7659200    -1.7521810    -0.7136960
  H        2.6362400    -0.2249370    -1.0326780
  H       -2.3916570    -0.7986900     0.9363150
  H       -1.7508380     0.8532310     1.0447820
  H       -2.6851960     0.3180950    -1.1185210
units angstrom
no_reorient  #important for SAPT in psi4, default
symmetry c1  #important for SAPT in psi4, default
}

set PROPERTIES_ORIGIN ["COM"]
properties('MP2/aug-cc-pvtz', properties = ['dipole'])
--------------------------------------------------------------------------

    Molecular point group: c1
  Charge       = 1
  Multiplicity = 1
  Basis Set: AUG-CC-PVTZ
    Blend: AUG-CC-PVTZ
  Basis Set: (AUG-CC-PVTZ AUX)
    Blend: AUG-CC-PVTZ-JKFIT

    Orbital Energies [Eh]
    ---------------------

    Doubly Occupied:

       1A    -20.733279     2A    -15.856224     3A    -11.457352
       4A    -11.454477     5A    -11.450015     6A    -11.449529
       7A     -1.539829     8A     -1.487051     9A     -1.206886
      10A     -1.167364    11A     -1.092170    12A     -1.024049
      13A     -0.920258    14A     -0.878143    15A     -0.855053
      16A     -0.837520    17A     -0.793612    18A     -0.750913
      19A     -0.744882    20A     -0.741076    21A     -0.732677
      22A     -0.713783    23A     -0.709744    24A     -0.674121
      25A     -0.624717

  @DF-RHF Final Energy:  -287.65632344499716

   => Energetics <=

    Nuclear Repulsion Energy =            278.5107597815916165
    One-Electron Energy =                -932.5447180820083304
    Two-Electron Energy =                 366.3776348554196147
    Total Energy =                       -287.6563234449971560
  Basis Set: (AUG-CC-PVTZ AUX)
    Blend: AUG-CC-PVTZ-RI
    Molecular point group: c1

    Geometry (in Angstrom), charge = 1, multiplicity = 1:

       Center              X                  Y                   Z               Mass
    ------------   -----------------  -----------------  -----------------  -----------------
         O           -1.740681548688     0.051216059813    -0.864988040368    15.994914619570
         N            0.745682451312     0.008745059813    -0.167277040368    14.003074004430
         C           -0.231118548688    -0.706346940187     0.727768959632    12.000000000000
         C            0.968324451312     1.439660459813     0.211525759632    12.000000000000
         C            2.026212451312    -0.752194940187    -0.309701040368    12.000000000000
         C           -1.614149548688    -0.102149940187     0.547189959632    12.000000000000
         H            0.265341451312     0.044468059813    -1.081691040368     1.007825032230
         H           -0.235462548688    -1.749228940187     0.404318959632     1.007825032230
         H            0.132019451312    -0.643828940187     1.756560959632     1.007825032230
         H            1.399958451312     1.416955059813     1.266330959632     1.007825032230
         H            1.704470451312     1.871640059813    -0.435773040368     1.007825032230
         H            0.052524451312     1.972375059813     0.219763959632     1.007825032230
         H            2.500541451312    -0.816276940187     0.669744959632     1.007825032230
         H            1.803339451312    -1.749153940187    -0.688701040368     1.007825032230
         H            2.673659451312    -0.221909940187    -1.007683040368     1.007825032230
         H           -2.354237548688    -0.795662940187     0.961309959632     1.007825032230
         H           -1.713418548688     0.856258059813     1.069776959632     1.007825032230
         H           -2.647776548688     0.321122059813    -1.093526040368     1.007825032230

  Basis Set: AUG-CC-PVTZ
    Blend: AUG-CC-PVTZ
  Basis Set: (AUG-CC-PVTZ AUX)
    Blend: AUG-CC-PVTZ-JKFIT
	 Reference Energy          =    -287.6563234449971560 [Eh]
	 Singles Energy            =      -0.0000000000000000 [Eh]
	 Same-Spin Energy          =      -0.2850430974127323 [Eh]
	 Opposite-Spin Energy      =      -0.9994861153207837 [Eh]
	 Correlation Energy        =      -1.2845292127335159 [Eh]
	 Total Energy              =    -288.9408526577306588 [Eh]

	 ================> DF-SCS-MP2 Energies <==================
	-----------------------------------------------------------
	 SCS Same-Spin Scale       =       0.3333333333333333 [-]
	 SCS Opposite-Spin Scale   =       1.2000000000000000 [-]
	 SCS Same-Spin Energy      =      -0.0950143658042441 [Eh]
	 SCS Opposite-Spin Energy  =      -1.1993833383849404 [Eh]
	 SCS Correlation Energy    =      -1.2943977041891845 [Eh]
	 SCS Total Energy          =    -288.9507211491863359 [Eh]
	-----------------------------------------------------------

  Dipole Moment: [D]
     X:     1.3693      Y:     0.2904      Z:     0.6589     Total:     1.5471

*** Psi4 exiting successfully. Buy a developer a beer!
