                               Psi4 1.4a3.dev225

  ==> Input File <==

--------------------------------------------------------------------------
#psi4
#
memory 32 gb

molecule  {
1 1
  O       -1.7781010     0.0481890    -0.8899830
  N        0.7082630     0.0057180    -0.1922720
  C       -0.2685380    -0.7093740     0.7027740
  C        0.9538210     1.4204460     0.2306060
  C        1.9887930    -0.7552220    -0.3346960
  C       -1.6515690    -0.1051770     0.5221950
  H        0.2279220     0.0414410    -1.1066860
  H       -0.2728820    -1.7522560     0.3793240
  H        0.0946000    -0.6468560     1.7315660
  H        1.3625390     1.4139280     1.2413360
  H        1.6670510     1.8686130    -0.4607680
  H        0.0151050     1.9693480     0.1947690
  H        2.4631220    -0.8193040     0.6447500
  H        1.7659200    -1.7521810    -0.7136960
  H        2.6362400    -0.2249370    -1.0326780
  H       -2.3916570    -0.7986900     0.9363150
  H       -1.7508380     0.8532310     1.0447820
  H       -2.5920270     0.2903726    -1.0950475
units angstrom
no_reorient  #important for SAPT in psi4, default
symmetry c1  #important for SAPT in psi4, default
}

set PROPERTIES_ORIGIN ["COM"]
properties('MP2/aug-cc-pvtz', properties = ['dipole'])
--------------------------------------------------------------------------

    Molecular point group: c1
  Charge       = 1
  Multiplicity = 1
  Basis Set: AUG-CC-PVTZ
    Blend: AUG-CC-PVTZ
  Basis Set: (AUG-CC-PVTZ AUX)
    Blend: AUG-CC-PVTZ-JKFIT

    Orbital Energies [Eh]
    ---------------------

    Doubly Occupied:

       1A    -20.725345     2A    -15.857041     3A    -11.458144
       4A    -11.456104     5A    -11.450156     6A    -11.449818
       7A     -1.562626     8A     -1.490895     9A     -1.212369
      10A     -1.166774    11A     -1.094973    12A     -1.032118
      13A     -0.924158    14A     -0.888187    15A     -0.859775
      16A     -0.838477    17A     -0.794848    18A     -0.758928
      19A     -0.748033    20A     -0.742951    21A     -0.726069
      22A     -0.718846    23A     -0.713498    24A     -0.679294
      25A     -0.628408

  @DF-RHF Final Energy:  -287.65427436901797

   => Energetics <=

    Nuclear Repulsion Energy =            279.1957927996667763
    One-Electron Energy =                -933.7444692090404033
    Two-Electron Energy =                 366.8944020403557147
    Total Energy =                       -287.6542743690179691
  Basis Set: (AUG-CC-PVTZ AUX)
    Blend: AUG-CC-PVTZ-RI
    Molecular point group: c1

    Geometry (in Angstrom), charge = 1, multiplicity = 1:

       Center              X                  Y                   Z               Mass
    ------------   -----------------  -----------------  -----------------  -----------------
         O           -1.744776146486     0.053682298795    -0.871121329246    15.994914619570
         N            0.741587853514     0.011211298795    -0.173410329246    14.003074004430
         C           -0.235213146486    -0.703880701205     0.721635670754    12.000000000000
         C            0.987145853514     1.425939298795     0.249467670754    12.000000000000
         C            2.022117853514    -0.749728701205    -0.315834329246    12.000000000000
         C           -1.618244146486    -0.099683701205     0.541056670754    12.000000000000
         H            0.261246853514     0.046934298795    -1.087824329246     1.007825032230
         H           -0.239557146486    -1.746762701205     0.398185670754     1.007825032230
         H            0.127924853514    -0.641362701205     1.750427670754     1.007825032230
         H            1.395863853514     1.419421298795     1.260197670754     1.007825032230
         H            1.700375853514     1.874106298795    -0.441906329246     1.007825032230
         H            0.048429853514     1.974841298795     0.213630670754     1.007825032230
         H            2.496446853514    -0.813810701205     0.663611670754     1.007825032230
         H            1.799244853514    -1.746687701205    -0.694834329246     1.007825032230
         H            2.669564853514    -0.219443701205    -1.013816329246     1.007825032230
         H           -2.358332146486    -0.793196701205     0.955176670754     1.007825032230
         H           -1.717513146486     0.858724298795     1.063643670754     1.007825032230
         H           -2.558702146486     0.295865898795    -1.076185829246     1.007825032230

  Basis Set: AUG-CC-PVTZ
    Blend: AUG-CC-PVTZ
  Basis Set: (AUG-CC-PVTZ AUX)
    Blend: AUG-CC-PVTZ-JKFIT
	 Reference Energy          =    -287.6542743690179691 [Eh]
	 Singles Energy            =      -0.0000000000000000 [Eh]
	 Same-Spin Energy          =      -0.2838304894003829 [Eh]
	 Opposite-Spin Energy      =      -0.9965415184032812 [Eh]
	 Correlation Energy        =      -1.2803720078036642 [Eh]
	 Total Energy              =    -288.9346463768216609 [Eh]

	 ================> DF-SCS-MP2 Energies <==================
	-----------------------------------------------------------
	 SCS Same-Spin Scale       =       0.3333333333333333 [-]
	 SCS Opposite-Spin Scale   =       1.2000000000000000 [-]
	 SCS Same-Spin Energy      =      -0.0946101631334610 [Eh]
	 SCS Opposite-Spin Energy  =      -1.1958498220839373 [Eh]
	 SCS Correlation Energy    =      -1.2904599852173984 [Eh]
	 SCS Total Energy          =    -288.9447343542353792 [Eh]
	-----------------------------------------------------------

  Dipole Moment: [D]
     X:     1.5025      Y:     0.2711      Z:     0.7308     Total:     1.6927

*** Psi4 exiting successfully. Buy a developer a beer!
