                               Psi4 1.4a3.dev225

  ==> Input File <==

--------------------------------------------------------------------------
#psi4
#
memory 32 gb

molecule  {
1 1
  O       -1.7781010     0.0481890    -0.8899830
  N        0.7082630     0.0057180    -0.1922720
  C       -0.2360974    -0.6856251     0.6730486
  C        0.9538210     1.4204460     0.2306060
  C        1.9887930    -0.7552220    -0.3346960
  C       -1.6515690    -0.1051770     0.5221950
  H        0.2279220     0.0414410    -1.1066860
  H       -0.2728820    -1.7522560     0.3793240
  H        0.0946000    -0.6468560     1.7315660
  H        1.3625390     1.4139280     1.2413360
  H        1.6670510     1.8686130    -0.4607680
  H        0.0151050     1.9693480     0.1947690
  H        2.4631220    -0.8193040     0.6447500
  H        1.7659200    -1.7521810    -0.7136960
  H        2.6362400    -0.2249370    -1.0326780
  H       -2.3916570    -0.7986900     0.9363150
  H       -1.7508380     0.8532310     1.0447820
  H       -2.6851960     0.3180950    -1.1185210
units angstrom
no_reorient  #important for SAPT in psi4, default
symmetry c1  #important for SAPT in psi4, default
}

set PROPERTIES_ORIGIN ["COM"]
properties('MP2/aug-cc-pvtz', properties = ['dipole'])
--------------------------------------------------------------------------

    Molecular point group: c1
  Charge       = 1
  Multiplicity = 1
  Basis Set: AUG-CC-PVTZ
    Blend: AUG-CC-PVTZ
  Basis Set: (AUG-CC-PVTZ AUX)
    Blend: AUG-CC-PVTZ-JKFIT

    Orbital Energies [Eh]
    ---------------------

    Doubly Occupied:

       1A    -20.732095     2A    -15.859288     3A    -11.455062
       4A    -11.453928     5A    -11.451231     6A    -11.450854
       7A     -1.540839     8A     -1.496950     9A     -1.203494
      10A     -1.168975    11A     -1.096339    12A     -1.025594
      13A     -0.922256    14A     -0.878953    15A     -0.853536
      16A     -0.841474    17A     -0.791549    18A     -0.758103
      19A     -0.746564    20A     -0.742676    21A     -0.726788
      22A     -0.716347    23A     -0.704232    24A     -0.671639
      25A     -0.622845

  @DF-RHF Final Energy:  -287.65716062875345

   => Energetics <=

    Nuclear Repulsion Energy =            279.1668818153426628
    One-Electron Energy =                -933.8248615002783026
    Two-Electron Energy =                 367.0008190561821948
    Total Energy =                       -287.6571606287534451
  Basis Set: (AUG-CC-PVTZ AUX)
    Blend: AUG-CC-PVTZ-RI
    Molecular point group: c1

    Geometry (in Angstrom), charge = 1, multiplicity = 1:

       Center              X                  Y                   Z               Mass
    ------------   -----------------  -----------------  -----------------  -----------------
         O           -1.748054900576     0.050208888124    -0.866899395562    15.994914619570
         N            0.738309099424     0.007737888124    -0.169188395562    14.003074004430
         C           -0.206051300576    -0.683605211876     0.696132204438    12.000000000000
         C            0.983867099424     1.422465888124     0.253689604438    12.000000000000
         C            2.018839099424    -0.753202111876    -0.311612395562    12.000000000000
         C           -1.621522900576    -0.103157111876     0.545278604438    12.000000000000
         H            0.257968099424     0.043460888124    -1.083602395562     1.007825032230
         H           -0.242835900576    -1.750236111876     0.402407604438     1.007825032230
         H            0.124646099424    -0.644836111876     1.754649604438     1.007825032230
         H            1.392585099424     1.415947888124     1.264419604438     1.007825032230
         H            1.697097099424     1.870632888124    -0.437684395562     1.007825032230
         H            0.045151099424     1.971367888124     0.217852604438     1.007825032230
         H            2.493168099424    -0.817284111876     0.667833604438     1.007825032230
         H            1.795966099424    -1.750161111876    -0.690612395562     1.007825032230
         H            2.666286099424    -0.222917111876    -1.009594395562     1.007825032230
         H           -2.361610900576    -0.796670111876     0.959398604438     1.007825032230
         H           -1.720791900576     0.855250888124     1.067865604438     1.007825032230
         H           -2.655149900576     0.320114888124    -1.095437395562     1.007825032230

  Basis Set: AUG-CC-PVTZ
    Blend: AUG-CC-PVTZ
  Basis Set: (AUG-CC-PVTZ AUX)
    Blend: AUG-CC-PVTZ-JKFIT
	 Reference Energy          =    -287.6571606287534451 [Eh]
	 Singles Energy            =      -0.0000000000000000 [Eh]
	 Same-Spin Energy          =      -0.2852969267109515 [Eh]
	 Opposite-Spin Energy      =      -0.9994997150698836 [Eh]
	 Correlation Energy        =      -1.2847966417808350 [Eh]
	 Total Energy              =    -288.9419572705342603 [Eh]

	 ================> DF-SCS-MP2 Energies <==================
	-----------------------------------------------------------
	 SCS Same-Spin Scale       =       0.3333333333333333 [-]
	 SCS Opposite-Spin Scale   =       1.2000000000000000 [-]
	 SCS Same-Spin Energy      =      -0.0950989755703172 [Eh]
	 SCS Opposite-Spin Energy  =      -1.1993996580838602 [Eh]
	 SCS Correlation Energy    =      -1.2944986336541773 [Eh]
	 SCS Total Energy          =    -288.9516592624076452 [Eh]
	-----------------------------------------------------------

  Dipole Moment: [D]
     X:     1.4278      Y:     0.3427      Z:     0.6277     Total:     1.5969

*** Psi4 exiting successfully. Buy a developer a beer!
