                               Psi4 1.4a3.dev225

  ==> Input File <==

--------------------------------------------------------------------------
#psi4
#
memory 32 gb

molecule  {
1 1
  O       -1.7781010     0.0481890    -0.8899830
  N        0.6577821     0.0174330    -0.1989233
  C       -0.2685380    -0.7093740     0.7027740
  C        0.9538210     1.4204460     0.2306060
  C        1.9887930    -0.7552220    -0.3346960
  C       -1.6515690    -0.1051770     0.5221950
  H        0.2279220     0.0414410    -1.1066860
  H       -0.2728820    -1.7522560     0.3793240
  H        0.0946000    -0.6468560     1.7315660
  H        1.3625390     1.4139280     1.2413360
  H        1.6670510     1.8686130    -0.4607680
  H        0.0151050     1.9693480     0.1947690
  H        2.4631220    -0.8193040     0.6447500
  H        1.7659200    -1.7521810    -0.7136960
  H        2.6362400    -0.2249370    -1.0326780
  H       -2.3916570    -0.7986900     0.9363150
  H       -1.7508380     0.8532310     1.0447820
  H       -2.6851960     0.3180950    -1.1185210
units angstrom
no_reorient  #important for SAPT in psi4, default
symmetry c1  #important for SAPT in psi4, default
}

set PROPERTIES_ORIGIN ["COM"]
properties('MP2/aug-cc-pvtz', properties = ['dipole'])
--------------------------------------------------------------------------

    Molecular point group: c1
  Charge       = 1
  Multiplicity = 1
  Basis Set: AUG-CC-PVTZ
    Blend: AUG-CC-PVTZ
  Basis Set: (AUG-CC-PVTZ AUX)
    Blend: AUG-CC-PVTZ-JKFIT

    Orbital Energies [Eh]
    ---------------------

    Doubly Occupied:

       1A    -20.731692     2A    -15.854444     3A    -11.454850
       4A    -11.453913     5A    -11.451991     6A    -11.449074
       7A     -1.539659     8A     -1.485560     9A     -1.205926
      10A     -1.161335    11A     -1.097691    12A     -1.028038
      13A     -0.917872    14A     -0.879138    15A     -0.850468
      16A     -0.834307    17A     -0.789181    18A     -0.758331
      19A     -0.749919    20A     -0.743747    21A     -0.726260
      22A     -0.714614    23A     -0.711527    24A     -0.670574
      25A     -0.623064

  @DF-RHF Final Energy:  -287.65694123783197

   => Energetics <=

    Nuclear Repulsion Energy =            278.7296505905615618
    One-Electron Energy =                -933.0068375372088667
    Two-Electron Energy =                 366.6202457088153892
    Total Energy =                       -287.6569412378319726
  Basis Set: (AUG-CC-PVTZ AUX)
    Blend: AUG-CC-PVTZ-RI
    Molecular point group: c1

    Geometry (in Angstrom), charge = 1, multiplicity = 1:

       Center              X                  Y                   Z               Mass
    ------------   -----------------  -----------------  -----------------  -----------------
         O           -1.735887601272     0.051551304066    -0.869824921453    15.994914619570
         N            0.699995498728     0.020795304066    -0.178765221453    14.003074004430
         C           -0.226324601272    -0.706011695934     0.722932078547    12.000000000000
         C            0.996034398728     1.423808304066     0.250764078547    12.000000000000
         C            2.031006398728    -0.751859695934    -0.314537921453    12.000000000000
         C           -1.609355601272    -0.101814695934     0.542353078547    12.000000000000
         H            0.270135398728     0.044803304066    -1.086527921453     1.007825032230
         H           -0.230668601272    -1.748893695934     0.399482078547     1.007825032230
         H            0.136813398728    -0.643493695934     1.751724078547     1.007825032230
         H            1.404752398728     1.417290304066     1.261494078547     1.007825032230
         H            1.709264398728     1.871975304066    -0.440609921453     1.007825032230
         H            0.057318398728     1.972710304066     0.214927078547     1.007825032230
         H            2.505335398728    -0.815941695934     0.664908078547     1.007825032230
         H            1.808133398728    -1.748818695934    -0.693537921453     1.007825032230
         H            2.678453398728    -0.221574695934    -1.012519921453     1.007825032230
         H           -2.349443601272    -0.795327695934     0.956473078547     1.007825032230
         H           -1.708624601272     0.856593304066     1.064940078547     1.007825032230
         H           -2.642982601272     0.321457304066    -1.098362921453     1.007825032230

  Basis Set: AUG-CC-PVTZ
    Blend: AUG-CC-PVTZ
  Basis Set: (AUG-CC-PVTZ AUX)
    Blend: AUG-CC-PVTZ-JKFIT
	 Reference Energy          =    -287.6569412378319726 [Eh]
	 Singles Energy            =      -0.0000000000000000 [Eh]
	 Same-Spin Energy          =      -0.2848167141316725 [Eh]
	 Opposite-Spin Energy      =      -0.9993127190226462 [Eh]
	 Correlation Energy        =      -1.2841294331543187 [Eh]
	 Total Energy              =    -288.9410706709862779 [Eh]

	 ================> DF-SCS-MP2 Energies <==================
	-----------------------------------------------------------
	 SCS Same-Spin Scale       =       0.3333333333333333 [-]
	 SCS Opposite-Spin Scale   =       1.2000000000000000 [-]
	 SCS Same-Spin Energy      =      -0.0949389047105575 [Eh]
	 SCS Opposite-Spin Energy  =      -1.1991752628271755 [Eh]
	 SCS Correlation Energy    =      -1.2941141675377330 [Eh]
	 SCS Total Energy          =    -288.9510554053696865 [Eh]
	-----------------------------------------------------------

  Dipole Moment: [D]
     X:     1.5095      Y:     0.2830      Z:     0.6719     Total:     1.6763

*** Psi4 exiting successfully. Buy a developer a beer!
