                               Psi4 1.4a3.dev225

  ==> Input File <==

--------------------------------------------------------------------------
#psi4
#
memory 32 gb

molecule  {
1 1
  O       -1.7781010     0.0481890    -0.8899830
  N        0.7082630     0.0057180    -0.1922720
  C       -0.2685380    -0.7093740     0.7027740
  C        0.9210112     1.2314195     0.1741039
  C        1.9887930    -0.7552220    -0.3346960
  C       -1.6515690    -0.1051770     0.5221950
  H        0.2279220     0.0414410    -1.1066860
  H       -0.2728820    -1.7522560     0.3793240
  H        0.0946000    -0.6468560     1.7315660
  H        1.3625390     1.4139280     1.2413360
  H        1.6670510     1.8686130    -0.4607680
  H        0.0151050     1.9693480     0.1947690
  H        2.4631220    -0.8193040     0.6447500
  H        1.7659200    -1.7521810    -0.7136960
  H        2.6362400    -0.2249370    -1.0326780
  H       -2.3916570    -0.7986900     0.9363150
  H       -1.7508380     0.8532310     1.0447820
  H       -2.6851960     0.3180950    -1.1185210
units angstrom
no_reorient  #important for SAPT in psi4, default
symmetry c1  #important for SAPT in psi4, default
}

set PROPERTIES_ORIGIN ["COM"]
properties('MP2/aug-cc-pvtz', properties = ['dipole'])
--------------------------------------------------------------------------

    Molecular point group: c1
  Charge       = 1
  Multiplicity = 1
  Basis Set: AUG-CC-PVTZ
    Blend: AUG-CC-PVTZ
  Basis Set: (AUG-CC-PVTZ AUX)
    Blend: AUG-CC-PVTZ-JKFIT

    Orbital Energies [Eh]
    ---------------------

    Doubly Occupied:

       1A    -20.735302     2A    -15.861757     3A    -11.462384
       4A    -11.456425     5A    -11.454816     6A    -11.449563
       7A     -1.560001     8A     -1.525697     9A     -1.217827
      10A     -1.179886    11A     -1.089208    12A     -1.033464
      13A     -0.937262    14A     -0.888448    15A     -0.862407
      16A     -0.861269    17A     -0.804848    18A     -0.755666
      19A     -0.752314    20A     -0.744102    21A     -0.725298
      22A     -0.689479    23A     -0.675366    24A     -0.663517
      25A     -0.626336

  @DF-RHF Final Energy:  -287.61337093999725

   => Energetics <=

    Nuclear Repulsion Energy =            282.3055271315061532
    One-Electron Energy =                -939.8125152575887569
    Two-Electron Energy =                 369.8936171860854074
    Total Energy =                       -287.6133709399972531
  Basis Set: (AUG-CC-PVTZ AUX)
    Blend: AUG-CC-PVTZ-RI
    Molecular point group: c1

    Geometry (in Angstrom), charge = 1, multiplicity = 1:

       Center              X                  Y                   Z               Mass
    ------------   -----------------  -----------------  -----------------  -----------------
         O           -1.739363720842     0.078550005488    -0.863332810339    15.994914619570
         N            0.747000279158     0.036079005488    -0.165621810339    14.003074004430
         C           -0.229800720842    -0.679012994512     0.729424189661    12.000000000000
         C            0.959748479158     1.261780505488     0.200754089661    12.000000000000
         C            2.027530279158    -0.724860994512    -0.308045810339    12.000000000000
         C           -1.612831720842    -0.074815994512     0.548845189661    12.000000000000
         H            0.266659279158     0.071802005488    -1.080035810339     1.007825032230
         H           -0.234144720842    -1.721894994512     0.405974189661     1.007825032230
         H            0.133337279158    -0.616494994512     1.758216189661     1.007825032230
         H            1.401276279158     1.444289005488     1.267986189661     1.007825032230
         H            1.705788279158     1.898974005488    -0.434117810339     1.007825032230
         H            0.053842279158     1.999709005488     0.221419189661     1.007825032230
         H            2.501859279158    -0.788942994512     0.671400189661     1.007825032230
         H            1.804657279158    -1.721819994512    -0.687045810339     1.007825032230
         H            2.674977279158    -0.194575994512    -1.006027810339     1.007825032230
         H           -2.352919720842    -0.768328994512     0.962965189661     1.007825032230
         H           -1.712100720842     0.883592005488     1.071432189661     1.007825032230
         H           -2.646458720842     0.348456005488    -1.091870810339     1.007825032230

  Basis Set: AUG-CC-PVTZ
    Blend: AUG-CC-PVTZ
  Basis Set: (AUG-CC-PVTZ AUX)
    Blend: AUG-CC-PVTZ-JKFIT
	 Reference Energy          =    -287.6133709399972531 [Eh]
	 Singles Energy            =      -0.0000000000000000 [Eh]
	 Same-Spin Energy          =      -0.2878819420366412 [Eh]
	 Opposite-Spin Energy      =      -1.0018657362460168 [Eh]
	 Correlation Energy        =      -1.2897476782826580 [Eh]
	 Total Energy              =    -288.9031186182799047 [Eh]

	 ================> DF-SCS-MP2 Energies <==================
	-----------------------------------------------------------
	 SCS Same-Spin Scale       =       0.3333333333333333 [-]
	 SCS Opposite-Spin Scale   =       1.2000000000000000 [-]
	 SCS Same-Spin Energy      =      -0.0959606473455471 [Eh]
	 SCS Opposite-Spin Energy  =      -1.2022388834952202 [Eh]
	 SCS Correlation Energy    =      -1.2981995308407672 [Eh]
	 SCS Total Energy          =    -288.9115704708380008 [Eh]
	-----------------------------------------------------------

  Dipole Moment: [D]
     X:     1.3047      Y:     0.1093      Z:     0.6222     Total:     1.4496

*** Psi4 exiting successfully. Buy a developer a beer!
