                               Psi4 1.4a3.dev225

  ==> Input File <==

--------------------------------------------------------------------------
#psi4
#
memory 32 gb

molecule  {
1 1
  O       -1.7781010     0.0481890    -0.8899830
  N        0.7082630     0.0057180    -0.1922720
  C       -0.2685380    -0.7093740     0.7027740
  C        1.1065556     1.3855227     0.2297255
  C        1.9887930    -0.7552220    -0.3346960
  C       -1.6515690    -0.1051770     0.5221950
  H        0.2279220     0.0414410    -1.1066860
  H       -0.2728820    -1.7522560     0.3793240
  H        0.0946000    -0.6468560     1.7315660
  H        1.3625390     1.4139280     1.2413360
  H        1.6670510     1.8686130    -0.4607680
  H        0.0151050     1.9693480     0.1947690
  H        2.4631220    -0.8193040     0.6447500
  H        1.7659200    -1.7521810    -0.7136960
  H        2.6362400    -0.2249370    -1.0326780
  H       -2.3916570    -0.7986900     0.9363150
  H       -1.7508380     0.8532310     1.0447820
  H       -2.6851960     0.3180950    -1.1185210
units angstrom
no_reorient  #important for SAPT in psi4, default
symmetry c1  #important for SAPT in psi4, default
}

set PROPERTIES_ORIGIN ["COM"]
properties('MP2/aug-cc-pvtz', properties = ['dipole'])
--------------------------------------------------------------------------

    Molecular point group: c1
  Charge       = 1
  Multiplicity = 1
  Basis Set: AUG-CC-PVTZ
    Blend: AUG-CC-PVTZ
  Basis Set: (AUG-CC-PVTZ AUX)
    Blend: AUG-CC-PVTZ-JKFIT

    Orbital Energies [Eh]
    ---------------------

    Doubly Occupied:

       1A    -20.732665     2A    -15.857612     3A    -11.459206
       4A    -11.453923     5A    -11.452420     6A    -11.448031
       7A     -1.539109     8A     -1.488437     9A     -1.210072
      10A     -1.161361    11A     -1.097776    12A     -1.026375
      13A     -0.922346    14A     -0.880422    15A     -0.849502
      16A     -0.838862    17A     -0.797031    18A     -0.777020
      19A     -0.746330    20A     -0.740286    21A     -0.730620
      22A     -0.716424    23A     -0.681126    24A     -0.666784
      25A     -0.623488

  @DF-RHF Final Energy:  -287.63403055856043

   => Energetics <=

    Nuclear Repulsion Energy =            278.1448401022262829
    One-Electron Energy =                -931.7632860902900802
    Two-Electron Energy =                 365.9844154295033150
    Total Energy =                       -287.6340305585604256
  Basis Set: (AUG-CC-PVTZ AUX)
    Blend: AUG-CC-PVTZ-RI
    Molecular point group: c1

    Geometry (in Angstrom), charge = 1, multiplicity = 1:

       Center              X                  Y                   Z               Mass
    ------------   -----------------  -----------------  -----------------  -----------------
         O           -1.764077741432     0.058023869114    -0.870741459523    15.994914619570
         N            0.722286258568     0.015552869114    -0.173030459523    14.003074004430
         C           -0.254514741432    -0.699539130886     0.722015540477    12.000000000000
         C            1.120578858568     1.395357569114     0.248967040477    12.000000000000
         C            2.002816258568    -0.745387130886    -0.315454459523    12.000000000000
         C           -1.637545741432    -0.095342130886     0.541436540477    12.000000000000
         H            0.241945258568     0.051275869114    -1.087444459523     1.007825032230
         H           -0.258858741432    -1.742421130886     0.398565540477     1.007825032230
         H            0.108623258568    -0.637021130886     1.750807540477     1.007825032230
         H            1.376562258568     1.423762869114     1.260577540477     1.007825032230
         H            1.681074258568     1.878447869114    -0.441526459523     1.007825032230
         H            0.029128258568     1.979182869114     0.214010540477     1.007825032230
         H            2.477145258568    -0.809469130886     0.663991540477     1.007825032230
         H            1.779943258568    -1.742346130886    -0.694454459523     1.007825032230
         H            2.650263258568    -0.215102130886    -1.013436459523     1.007825032230
         H           -2.377633741432    -0.788855130886     0.955556540477     1.007825032230
         H           -1.736814741432     0.863065869114     1.064023540477     1.007825032230
         H           -2.671172741432     0.327929869114    -1.099279459523     1.007825032230

  Basis Set: AUG-CC-PVTZ
    Blend: AUG-CC-PVTZ
  Basis Set: (AUG-CC-PVTZ AUX)
    Blend: AUG-CC-PVTZ-JKFIT
	 Reference Energy          =    -287.6340305585604256 [Eh]
	 Singles Energy            =      -0.0000000000000000 [Eh]
	 Same-Spin Energy          =      -0.2855240414358643 [Eh]
	 Opposite-Spin Energy      =      -1.0008572295724576 [Eh]
	 Correlation Energy        =      -1.2863812710083220 [Eh]
	 Total Energy              =    -288.9204118295687636 [Eh]

	 ================> DF-SCS-MP2 Energies <==================
	-----------------------------------------------------------
	 SCS Same-Spin Scale       =       0.3333333333333333 [-]
	 SCS Opposite-Spin Scale   =       1.2000000000000000 [-]
	 SCS Same-Spin Energy      =      -0.0951746804786214 [Eh]
	 SCS Opposite-Spin Energy  =      -1.2010286754869490 [Eh]
	 SCS Correlation Energy    =      -1.2962033559655703 [Eh]
	 SCS Total Energy          =    -288.9302339145260135 [Eh]
	-----------------------------------------------------------

  Dipole Moment: [D]
     X:     1.3165      Y:     0.2989      Z:     0.6846     Total:     1.5137

*** Psi4 exiting successfully. Buy a developer a beer!
