                               Psi4 1.4a3.dev225

  ==> Input File <==

--------------------------------------------------------------------------
#psi4
#
memory 32 gb

molecule  {
1 1
  O       -1.7781010     0.0481890    -0.8899830
  N        0.7082630     0.0057180    -0.1922720
  C       -0.2685380    -0.7093740     0.7027740
  C        0.8842875     1.4637605     0.0970500
  C        1.9887930    -0.7552220    -0.3346960
  C       -1.6515690    -0.1051770     0.5221950
  H        0.2279220     0.0414410    -1.1066860
  H       -0.2728820    -1.7522560     0.3793240
  H        0.0946000    -0.6468560     1.7315660
  H        1.3625390     1.4139280     1.2413360
  H        1.6670510     1.8686130    -0.4607680
  H        0.0151050     1.9693480     0.1947690
  H        2.4631220    -0.8193040     0.6447500
  H        1.7659200    -1.7521810    -0.7136960
  H        2.6362400    -0.2249370    -1.0326780
  H       -2.3916570    -0.7986900     0.9363150
  H       -1.7508380     0.8532310     1.0447820
  H       -2.6851960     0.3180950    -1.1185210
units angstrom
no_reorient  #important for SAPT in psi4, default
symmetry c1  #important for SAPT in psi4, default
}

set PROPERTIES_ORIGIN ["COM"]
properties('MP2/aug-cc-pvtz', properties = ['dipole'])
--------------------------------------------------------------------------

    Molecular point group: c1
  Charge       = 1
  Multiplicity = 1
  Basis Set: AUG-CC-PVTZ
    Blend: AUG-CC-PVTZ
  Basis Set: (AUG-CC-PVTZ AUX)
    Blend: AUG-CC-PVTZ-JKFIT

    Orbital Energies [Eh]
    ---------------------

    Doubly Occupied:

       1A    -20.733787     2A    -15.857172     3A    -11.458220
       4A    -11.455208     5A    -11.452822     6A    -11.451275
       7A     -1.540521     8A     -1.487672     9A     -1.207683
      10A     -1.170902    11A     -1.091778    12A     -1.023261
      13A     -0.922324    14A     -0.881521    15A     -0.859209
      16A     -0.840546    17A     -0.797778    18A     -0.761192
      19A     -0.744506    20A     -0.740183    21A     -0.735932
      22A     -0.713839    23A     -0.685276    24A     -0.670439
      25A     -0.625572

  @DF-RHF Final Energy:  -287.63441550563886

   => Energetics <=

    Nuclear Repulsion Energy =            278.5292667062898317
    One-Electron Energy =                -932.5101287963241248
    Two-Electron Energy =                 366.3464465843954372
    Total Energy =                       -287.6344155056388558
  Basis Set: (AUG-CC-PVTZ AUX)
    Blend: AUG-CC-PVTZ-RI
    Molecular point group: c1

    Geometry (in Angstrom), charge = 1, multiplicity = 1:

       Center              X                  Y                   Z               Mass
    ------------   -----------------  -----------------  -----------------  -----------------
         O           -1.734472221676     0.047602802242    -0.853069435799    15.994914619570
         N            0.751891778324     0.005131802242    -0.155358435799    14.003074004430
         C           -0.224909221676    -0.709960197758     0.739687564201    12.000000000000
         C            0.927916278324     1.463174302242     0.133963564201    12.000000000000
         C            2.032421778324    -0.755808197758    -0.297782435799    12.000000000000
         C           -1.607940221676    -0.105763197758     0.559108564201    12.000000000000
         H            0.271550778324     0.040854802242    -1.069772435799     1.007825032230
         H           -0.229253221676    -1.752842197758     0.416237564201     1.007825032230
         H            0.138228778324    -0.647442197758     1.768479564201     1.007825032230
         H            1.406167778324     1.413341802242     1.278249564201     1.007825032230
         H            1.710679778324     1.868026802242    -0.423854435799     1.007825032230
         H            0.058733778324     1.968761802242     0.231682564201     1.007825032230
         H            2.506750778324    -0.819890197758     0.681663564201     1.007825032230
         H            1.809548778324    -1.752767197758    -0.676782435799     1.007825032230
         H            2.679868778324    -0.225523197758    -0.995764435799     1.007825032230
         H           -2.348028221676    -0.799276197758     0.973228564201     1.007825032230
         H           -1.707209221676     0.852644802242     1.081695564201     1.007825032230
         H           -2.641567221676     0.317508802242    -1.081607435799     1.007825032230

  Basis Set: AUG-CC-PVTZ
    Blend: AUG-CC-PVTZ
  Basis Set: (AUG-CC-PVTZ AUX)
    Blend: AUG-CC-PVTZ-JKFIT
	 Reference Energy          =    -287.6344155056388558 [Eh]
	 Singles Energy            =      -0.0000000000000000 [Eh]
	 Same-Spin Energy          =      -0.2854369105763482 [Eh]
	 Opposite-Spin Energy      =      -1.0005713822650140 [Eh]
	 Correlation Energy        =      -1.2860082928413621 [Eh]
	 Total Energy              =    -288.9204237984802148 [Eh]

	 ================> DF-SCS-MP2 Energies <==================
	-----------------------------------------------------------
	 SCS Same-Spin Scale       =       0.3333333333333333 [-]
	 SCS Opposite-Spin Scale   =       1.2000000000000000 [-]
	 SCS Same-Spin Energy      =      -0.0951456368587827 [Eh]
	 SCS Opposite-Spin Energy  =      -1.2006856587180168 [Eh]
	 SCS Correlation Energy    =      -1.2958312955767994 [Eh]
	 SCS Total Energy          =    -288.9302468012156737 [Eh]
	-----------------------------------------------------------

  Dipole Moment: [D]
     X:     1.3635      Y:     0.2385      Z:     0.6380     Total:     1.5241

*** Psi4 exiting successfully. Buy a developer a beer!
