                               Psi4 1.4a3.dev225

  ==> Input File <==

--------------------------------------------------------------------------
#psi4
#
memory 32 gb

molecule  {
1 1
  O       -1.7781010     0.0481890    -0.8899830
  N        0.7082630     0.0057180    -0.1922720
  C       -0.2685380    -0.7093740     0.7027740
  C        0.9538210     1.4204460     0.2306060
  C        1.9887930    -0.7552220    -0.3346960
  C       -1.6515690    -0.1051770     0.5221950
  H        0.2279220     0.0414410    -1.1066860
  H       -0.2795748    -1.7467864     0.3623399
  H        0.0946000    -0.6468560     1.7315660
  H        1.3625390     1.4139280     1.2413360
  H        1.6670510     1.8686130    -0.4607680
  H        0.0151050     1.9693480     0.1947690
  H        2.4631220    -0.8193040     0.6447500
  H        1.7659200    -1.7521810    -0.7136960
  H        2.6362400    -0.2249370    -1.0326780
  H       -2.3916570    -0.7986900     0.9363150
  H       -1.7508380     0.8532310     1.0447820
  H       -2.6851960     0.3180950    -1.1185210
units angstrom
no_reorient  #important for SAPT in psi4, default
symmetry c1  #important for SAPT in psi4, default
}

set PROPERTIES_ORIGIN ["COM"]
properties('MP2/aug-cc-pvtz', properties = ['dipole'])
--------------------------------------------------------------------------

    Molecular point group: c1
  Charge       = 1
  Multiplicity = 1
  Basis Set: AUG-CC-PVTZ
    Blend: AUG-CC-PVTZ
  Basis Set: (AUG-CC-PVTZ AUX)
    Blend: AUG-CC-PVTZ-JKFIT

    Orbital Energies [Eh]
    ---------------------

    Doubly Occupied:

       1A    -20.733205     2A    -15.856112     3A    -11.457146
       4A    -11.454108     5A    -11.449507     6A    -11.449039
       7A     -1.539705     8A     -1.487113     9A     -1.206795
      10A     -1.166017    11A     -1.092996    12A     -1.024597
      13A     -0.919381    14A     -0.876828    15A     -0.853743
      16A     -0.837367    17A     -0.792112    18A     -0.757517
      19A     -0.745985    20A     -0.739941    21A     -0.725074
      22A     -0.716719    23A     -0.712325    24A     -0.673973
      25A     -0.624403

  @DF-RHF Final Energy:  -287.65931204045785

   => Energetics <=

    Nuclear Repulsion Energy =            278.5346211051107161
    One-Electron Energy =                -932.6044522270092330
    Two-Electron Energy =                 366.4105190814406114
    Total Energy =                       -287.6593120404578485
  Basis Set: (AUG-CC-PVTZ AUX)
    Blend: AUG-CC-PVTZ-RI
    Molecular point group: c1

    Geometry (in Angstrom), charge = 1, multiplicity = 1:

       Center              X                  Y                   Z               Mass
    ------------   -----------------  -----------------  -----------------  -----------------
         O           -1.743659029031     0.053310992023    -0.870668744863    15.994914619570
         N            0.742704970969     0.010839992023    -0.172957744863    14.003074004430
         C           -0.234096029031    -0.704252007977     0.722088255137    12.000000000000
         C            0.988262970969     1.425567992023     0.249920255137    12.000000000000
         C            2.023234970969    -0.750100007977    -0.315381744863    12.000000000000
         C           -1.617127029031    -0.100055007977     0.541509255137    12.000000000000
         H            0.262363970969     0.046562992023    -1.087371744863     1.007825032230
         H           -0.245132829031    -1.741664407977     0.381654155137     1.007825032230
         H            0.129041970969    -0.641734007977     1.750880255137     1.007825032230
         H            1.396980970969     1.419049992023     1.260650255137     1.007825032230
         H            1.701492970969     1.873734992023    -0.441453744863     1.007825032230
         H            0.049546970969     1.974469992023     0.214083255137     1.007825032230
         H            2.497563970969    -0.814182007977     0.664064255137     1.007825032230
         H            1.800361970969    -1.747059007977    -0.694381744863     1.007825032230
         H            2.670681970969    -0.219815007977    -1.013363744863     1.007825032230
         H           -2.357215029031    -0.793568007977     0.955629255137     1.007825032230
         H           -1.716396029031     0.858352992023     1.064096255137     1.007825032230
         H           -2.650754029031     0.323216992023    -1.099206744863     1.007825032230

  Basis Set: AUG-CC-PVTZ
    Blend: AUG-CC-PVTZ
  Basis Set: (AUG-CC-PVTZ AUX)
    Blend: AUG-CC-PVTZ-JKFIT
	 Reference Energy          =    -287.6593120404578485 [Eh]
	 Singles Energy            =      -0.0000000000000000 [Eh]
	 Same-Spin Energy          =      -0.2850303121348051 [Eh]
	 Opposite-Spin Energy      =      -0.9994385491492273 [Eh]
	 Correlation Energy        =      -1.2844688612840325 [Eh]
	 Total Energy              =    -288.9437809017418886 [Eh]

	 ================> DF-SCS-MP2 Energies <==================
	-----------------------------------------------------------
	 SCS Same-Spin Scale       =       0.3333333333333333 [-]
	 SCS Opposite-Spin Scale   =       1.2000000000000000 [-]
	 SCS Same-Spin Energy      =      -0.0950101040449350 [Eh]
	 SCS Opposite-Spin Energy  =      -1.1993262589790727 [Eh]
	 SCS Correlation Energy    =      -1.2943363630240077 [Eh]
	 SCS Total Energy          =    -288.9536484034818500 [Eh]
	-----------------------------------------------------------

  Dipole Moment: [D]
     X:     1.3647      Y:     0.3118      Z:     0.6581     Total:     1.5468

*** Psi4 exiting successfully. Buy a developer a beer!
