                               Psi4 1.4a3.dev225

  ==> Input File <==

--------------------------------------------------------------------------
#psi4
#
memory 32 gb

molecule  {
1 1
  O       -1.7781010     0.0481890    -0.8899830
  N        0.7082630     0.0057180    -0.1922720
  C       -0.2685380    -0.7093740     0.7027740
  C        0.9538210     1.4204460     0.2306060
  C        1.9887930    -0.7552220    -0.3346960
  C       -1.6604416    -0.0944228     0.4231716
  H        0.2279220     0.0414410    -1.1066860
  H       -0.2728820    -1.7522560     0.3793240
  H        0.0946000    -0.6468560     1.7315660
  H        1.3625390     1.4139280     1.2413360
  H        1.6670510     1.8686130    -0.4607680
  H        0.0151050     1.9693480     0.1947690
  H        2.4631220    -0.8193040     0.6447500
  H        1.7659200    -1.7521810    -0.7136960
  H        2.6362400    -0.2249370    -1.0326780
  H       -2.3916570    -0.7986900     0.9363150
  H       -1.7508380     0.8532310     1.0447820
  H       -2.6851960     0.3180950    -1.1185210
units angstrom
no_reorient  #important for SAPT in psi4, default
symmetry c1  #important for SAPT in psi4, default
}

set PROPERTIES_ORIGIN ["COM"]
properties('MP2/aug-cc-pvtz', properties = ['dipole'])
--------------------------------------------------------------------------

    Molecular point group: c1
  Charge       = 1
  Multiplicity = 1
  Basis Set: AUG-CC-PVTZ
    Blend: AUG-CC-PVTZ
  Basis Set: (AUG-CC-PVTZ AUX)
    Blend: AUG-CC-PVTZ-JKFIT

    Orbital Energies [Eh]
    ---------------------

    Doubly Occupied:

       1A    -20.743625     2A    -15.854773     3A    -11.457017
       4A    -11.454740     5A    -11.448469     6A    -11.448169
       7A     -1.581876     8A     -1.489468     9A     -1.199010
      10A     -1.165113    11A     -1.088512    12A     -1.024880
      13A     -0.921186    14A     -0.891524    15A     -0.860640
      16A     -0.836132    17A     -0.796446    18A     -0.770412
      19A     -0.753893    20A     -0.741570    21A     -0.724305
      22A     -0.721118    23A     -0.715603    24A     -0.655424
      25A     -0.606767

  @DF-RHF Final Energy:  -287.65019674109470

   => Energetics <=

    Nuclear Repulsion Energy =            279.5834850745984568
    One-Electron Energy =                -934.5660191195835296
    Two-Electron Energy =                 367.3323373038903696
    Total Energy =                       -287.6501967410947032
  Basis Set: (AUG-CC-PVTZ AUX)
    Blend: AUG-CC-PVTZ-RI
    Molecular point group: c1

    Geometry (in Angstrom), charge = 1, multiplicity = 1:

       Center              X                  Y                   Z               Mass
    ------------   -----------------  -----------------  -----------------  -----------------
         O           -1.742552092217     0.051939747602    -0.857669086273    15.994914619570
         N            0.743811907783     0.009468747602    -0.159958086273    14.003074004430
         C           -0.232989092217    -0.705623252398     0.735087913727    12.000000000000
         C            0.989369907783     1.424196747602     0.262919913727    12.000000000000
         C            2.024341907783    -0.751471252398    -0.302382086273    12.000000000000
         C           -1.624892692217    -0.090672052398     0.455485513727    12.000000000000
         H            0.263470907783     0.045191747602    -1.074372086273     1.007825032230
         H           -0.237333092217    -1.748505252398     0.411637913727     1.007825032230
         H            0.130148907783    -0.643105252398     1.763879913727     1.007825032230
         H            1.398087907783     1.417678747602     1.273649913727     1.007825032230
         H            1.702599907783     1.872363747602    -0.428454086273     1.007825032230
         H            0.050653907783     1.973098747602     0.227082913727     1.007825032230
         H            2.498670907783    -0.815553252398     0.677063913727     1.007825032230
         H            1.801468907783    -1.748430252398    -0.681382086273     1.007825032230
         H            2.671788907783    -0.221186252398    -1.000364086273     1.007825032230
         H           -2.356108092217    -0.794939252398     0.968628913727     1.007825032230
         H           -1.715289092217     0.856981747602     1.077095913727     1.007825032230
         H           -2.649647092217     0.321845747602    -1.086207086273     1.007825032230

  Basis Set: AUG-CC-PVTZ
    Blend: AUG-CC-PVTZ
  Basis Set: (AUG-CC-PVTZ AUX)
    Blend: AUG-CC-PVTZ-JKFIT
	 Reference Energy          =    -287.6501967410947032 [Eh]
	 Singles Energy            =      -0.0000000000000000 [Eh]
	 Same-Spin Energy          =      -0.2852335488566645 [Eh]
	 Opposite-Spin Energy      =      -0.9985664144162676 [Eh]
	 Correlation Energy        =      -1.2837999632729320 [Eh]
	 Total Energy              =    -288.9339967043676438 [Eh]

	 ================> DF-SCS-MP2 Energies <==================
	-----------------------------------------------------------
	 SCS Same-Spin Scale       =       0.3333333333333333 [-]
	 SCS Opposite-Spin Scale   =       1.2000000000000000 [-]
	 SCS Same-Spin Energy      =      -0.0950778496188882 [Eh]
	 SCS Opposite-Spin Energy  =      -1.1982796972995211 [Eh]
	 SCS Correlation Energy    =      -1.2933575469184093 [Eh]
	 SCS Total Energy          =    -288.9435542880131038 [Eh]
	-----------------------------------------------------------

  Dipole Moment: [D]
     X:     1.2774      Y:     0.3316      Z:     0.3786     Total:     1.3730

*** Psi4 exiting successfully. Buy a developer a beer!
