                               Psi4 1.4a3.dev225

  ==> Input File <==

--------------------------------------------------------------------------
#psi4
#
memory 32 gb

molecule  {
1 1
  O       -1.7781010     0.0481890    -0.8899830
  N        0.7082630     0.0057180    -0.1922720
  C       -0.2685380    -0.7093740     0.7027740
  C        0.9538210     1.4204460     0.2306060
  C        1.9887930    -0.7552220    -0.3346960
  C       -1.6515690    -0.1051770     0.5221950
  H        0.2279220     0.0414410    -1.1066860
  H       -0.2728820    -1.7522560     0.3793240
  H        0.0946000    -0.6468560     1.7315660
  H        1.3625390     1.4139280     1.2413360
  H        1.6670510     1.8686130    -0.4607680
  H        0.0151050     1.9693480     0.1947690
  H        2.4631220    -0.8193040     0.6447500
  H        1.7872671    -1.7446128    -0.7442491
  H        2.6362400    -0.2249370    -1.0326780
  H       -2.3916570    -0.7986900     0.9363150
  H       -1.7508380     0.8532310     1.0447820
  H       -2.6851960     0.3180950    -1.1185210
units angstrom
no_reorient  #important for SAPT in psi4, default
symmetry c1  #important for SAPT in psi4, default
}

set PROPERTIES_ORIGIN ["COM"]
properties('MP2/aug-cc-pvtz', properties = ['dipole'])
--------------------------------------------------------------------------

    Molecular point group: c1
  Charge       = 1
  Multiplicity = 1
  Basis Set: AUG-CC-PVTZ
    Blend: AUG-CC-PVTZ
  Basis Set: (AUG-CC-PVTZ AUX)
    Blend: AUG-CC-PVTZ-JKFIT

    Orbital Energies [Eh]
    ---------------------

    Doubly Occupied:

       1A    -20.733116     2A    -15.856507     3A    -11.456943
       4A    -11.454118     5A    -11.449340     6A    -11.449184
       7A     -1.539609     8A     -1.487087     9A     -1.206635
      10A     -1.165844    11A     -1.093131    12A     -1.024852
      13A     -0.919560    14A     -0.877057    15A     -0.854040
      16A     -0.836291    17A     -0.791987    18A     -0.758165
      19A     -0.747135    20A     -0.738155    21A     -0.725047
      22A     -0.717074    23A     -0.711283    24A     -0.674065
      25A     -0.624324

  @DF-RHF Final Energy:  -287.65923649311816

   => Energetics <=

    Nuclear Repulsion Energy =            278.4740559550326680
    One-Electron Energy =                -932.4854859991571630
    Two-Electron Energy =                 366.3521935510063372
    Total Energy =                       -287.6592364931181578
  Basis Set: (AUG-CC-PVTZ AUX)
    Blend: AUG-CC-PVTZ-RI
    Molecular point group: c1

    Geometry (in Angstrom), charge = 1, multiplicity = 1:

       Center              X                  Y                   Z               Mass
    ------------   -----------------  -----------------  -----------------  -----------------
         O           -1.743972701143     0.053287515752    -0.870516953419    15.994914619570
         N            0.742391298857     0.010816515752    -0.172805953419    14.003074004430
         C           -0.234409701143    -0.704275484248     0.722240046581    12.000000000000
         C            0.987949298857     1.425544515752     0.250072046581    12.000000000000
         C            2.022921298857    -0.750123484248    -0.315229953419    12.000000000000
         C           -1.617440701143    -0.100078484248     0.541661046581    12.000000000000
         H            0.262050298857     0.046539515752    -1.087219953419     1.007825032230
         H           -0.238753701143    -1.747157484248     0.398790046581     1.007825032230
         H            0.128728298857    -0.641757484248     1.751032046581     1.007825032230
         H            1.396667298857     1.419026515752     1.260802046581     1.007825032230
         H            1.701179298857     1.873711515752    -0.441301953419     1.007825032230
         H            0.049233298857     1.974446515752     0.214235046581     1.007825032230
         H            2.497250298857    -0.814205484248     0.664216046581     1.007825032230
         H            1.821395398857    -1.739514284248    -0.724783053419     1.007825032230
         H            2.670368298857    -0.219838484248    -1.013211953419     1.007825032230
         H           -2.357528701143    -0.793591484248     0.955781046581     1.007825032230
         H           -1.716709701143     0.858329515752     1.064248046581     1.007825032230
         H           -2.651067701143     0.323193515752    -1.099054953419     1.007825032230

  Basis Set: AUG-CC-PVTZ
    Blend: AUG-CC-PVTZ
  Basis Set: (AUG-CC-PVTZ AUX)
    Blend: AUG-CC-PVTZ-JKFIT
	 Reference Energy          =    -287.6592364931181578 [Eh]
	 Singles Energy            =      -0.0000000000000000 [Eh]
	 Same-Spin Energy          =      -0.2850039671421505 [Eh]
	 Opposite-Spin Energy      =      -0.9993899034637559 [Eh]
	 Correlation Energy        =      -1.2843938706059064 [Eh]
	 Total Energy              =    -288.9436303637240826 [Eh]

	 ================> DF-SCS-MP2 Energies <==================
	-----------------------------------------------------------
	 SCS Same-Spin Scale       =       0.3333333333333333 [-]
	 SCS Opposite-Spin Scale   =       1.2000000000000000 [-]
	 SCS Same-Spin Energy      =      -0.0950013223807168 [Eh]
	 SCS Opposite-Spin Energy  =      -1.1992678841565070 [Eh]
	 SCS Correlation Energy    =      -1.2942692065372239 [Eh]
	 SCS Total Energy          =    -288.9535056996554090 [Eh]
	-----------------------------------------------------------

  Dipole Moment: [D]
     X:     1.3735      Y:     0.3084      Z:     0.6467     Total:     1.5491

*** Psi4 exiting successfully. Buy a developer a beer!
