                               Psi4 1.4a3.dev225

  ==> Input File <==

--------------------------------------------------------------------------
#psi4
#
memory 32 gb

molecule  {
1 1
  O       -1.7781010     0.0481890    -0.8899830
  N        0.7082630     0.0057180    -0.1922720
  C       -0.2685380    -0.7093740     0.7027740
  C        0.9538210     1.4204460     0.2306060
  C        2.1599465    -0.8569280    -0.3537322
  C       -1.6515690    -0.1051770     0.5221950
  H        0.2279220     0.0414410    -1.1066860
  H       -0.2728820    -1.7522560     0.3793240
  H        0.0946000    -0.6468560     1.7315660
  H        1.3625390     1.4139280     1.2413360
  H        1.6670510     1.8686130    -0.4607680
  H        0.0151050     1.9693480     0.1947690
  H        2.4631220    -0.8193040     0.6447500
  H        1.7659200    -1.7521810    -0.7136960
  H        2.6362400    -0.2249370    -1.0326780
  H       -2.3916570    -0.7986900     0.9363150
  H       -1.7508380     0.8532310     1.0447820
  H       -2.6851960     0.3180950    -1.1185210
units angstrom
no_reorient  #important for SAPT in psi4, default
symmetry c1  #important for SAPT in psi4, default
}

set PROPERTIES_ORIGIN ["COM"]
properties('MP2/aug-cc-pvtz', properties = ['dipole'])
--------------------------------------------------------------------------

    Molecular point group: c1
  Charge       = 1
  Multiplicity = 1
  Basis Set: AUG-CC-PVTZ
    Blend: AUG-CC-PVTZ
  Basis Set: (AUG-CC-PVTZ AUX)
    Blend: AUG-CC-PVTZ-JKFIT

    Orbital Energies [Eh]
    ---------------------

    Doubly Occupied:

       1A    -20.728133     2A    -15.839619     3A    -11.463925
       4A    -11.450264     5A    -11.448806     6A    -11.442115
       7A     -1.532565     8A     -1.452836     9A     -1.196711
      10A     -1.163817    11A     -1.095294    12A     -1.013965
      13A     -0.903944    14A     -0.867742    15A     -0.841833
      16A     -0.830572    17A     -0.790426    18A     -0.774470
      19A     -0.766416    20A     -0.746018    21A     -0.718851
      22A     -0.706756    23A     -0.695760    24A     -0.659200
      25A     -0.618966

  @DF-RHF Final Energy:  -287.63416707500340

   => Energetics <=

    Nuclear Repulsion Energy =            275.1842715965962043
    One-Electron Energy =                -926.1388649824243657
    Two-Electron Energy =                 363.3204263108247574
    Total Energy =                       -287.6341670750034041
  Basis Set: (AUG-CC-PVTZ AUX)
    Blend: AUG-CC-PVTZ-RI
    Molecular point group: c1

    Geometry (in Angstrom), charge = 1, multiplicity = 1:

       Center              X                  Y                   Z               Mass
    ------------   -----------------  -----------------  -----------------  -----------------
         O           -1.766531089923     0.066919147133    -0.868323168572    15.994914619570
         N            0.719832910077     0.024448147133    -0.170612168572    14.003074004430
         C           -0.256968089923    -0.690643852867     0.724433831428    12.000000000000
         C            0.965390910077     1.439176147133     0.252265831428    12.000000000000
         C            2.171516410077    -0.838197852867    -0.332072368572    12.000000000000
         C           -1.639999089923    -0.086446852867     0.543854831428    12.000000000000
         H            0.239491910077     0.060171147133    -1.085026168572     1.007825032230
         H           -0.261312089923    -1.733525852867     0.400983831428     1.007825032230
         H            0.106169910077    -0.628125852867     1.753225831428     1.007825032230
         H            1.374108910077     1.432658147133     1.262995831428     1.007825032230
         H            1.678620910077     1.887343147133    -0.439108168572     1.007825032230
         H            0.026674910077     1.988078147133     0.216428831428     1.007825032230
         H            2.474691910077    -0.800573852867     0.666409831428     1.007825032230
         H            1.777489910077    -1.733450852867    -0.692036168572     1.007825032230
         H            2.647809910077    -0.206206852867    -1.011018168572     1.007825032230
         H           -2.380087089923    -0.779959852867     0.957974831428     1.007825032230
         H           -1.739268089923     0.871961147133     1.066441831428     1.007825032230
         H           -2.673626089923     0.336825147133    -1.096861168572     1.007825032230

  Basis Set: AUG-CC-PVTZ
    Blend: AUG-CC-PVTZ
  Basis Set: (AUG-CC-PVTZ AUX)
    Blend: AUG-CC-PVTZ-JKFIT
	 Reference Energy          =    -287.6341670750034041 [Eh]
	 Singles Energy            =      -0.0000000000000000 [Eh]
	 Same-Spin Energy          =      -0.2846022468253331 [Eh]
	 Opposite-Spin Energy      =      -1.0011696202039144 [Eh]
	 Correlation Energy        =      -1.2857718670292475 [Eh]
	 Total Energy              =    -288.9199389420326725 [Eh]

	 ================> DF-SCS-MP2 Energies <==================
	-----------------------------------------------------------
	 SCS Same-Spin Scale       =       0.3333333333333333 [-]
	 SCS Opposite-Spin Scale   =       1.2000000000000000 [-]
	 SCS Same-Spin Energy      =      -0.0948674156084444 [Eh]
	 SCS Opposite-Spin Energy  =      -1.2014035442446973 [Eh]
	 SCS Correlation Energy    =      -1.2962709598531417 [Eh]
	 SCS Total Energy          =    -288.9304380348565360 [Eh]
	-----------------------------------------------------------

  Dipole Moment: [D]
     X:     1.6999      Y:     0.1278      Z:     0.5948     Total:     1.8055

*** Psi4 exiting successfully. Buy a developer a beer!
