                               Psi4 1.4a3.dev225

  ==> Input File <==

--------------------------------------------------------------------------
#psi4
#
memory 32 gb

molecule  {
1 1
  O       -1.7781010     0.0481890    -0.8899830
  N        0.7082630     0.0057180    -0.1922720
  C       -0.2685380    -0.7093740     0.7027740
  C        0.9538210     1.4204460     0.2306060
  C        1.9887930    -0.7552220    -0.3346960
  C       -1.6515690    -0.1051770     0.5221950
  H        0.2279220     0.0414410    -1.1066860
  H       -0.2461180    -1.7709425     0.4481933
  H        0.0946000    -0.6468560     1.7315660
  H        1.3625390     1.4139280     1.2413360
  H        1.6670510     1.8686130    -0.4607680
  H        0.0151050     1.9693480     0.1947690
  H        2.4631220    -0.8193040     0.6447500
  H        1.7659200    -1.7521810    -0.7136960
  H        2.6362400    -0.2249370    -1.0326780
  H       -2.3916570    -0.7986900     0.9363150
  H       -1.7508380     0.8532310     1.0447820
  H       -2.6851960     0.3180950    -1.1185210
units angstrom
no_reorient  #important for SAPT in psi4, default
symmetry c1  #important for SAPT in psi4, default
}

set PROPERTIES_ORIGIN ["COM"]
properties('MP2/aug-cc-pvtz', properties = ['dipole'])
--------------------------------------------------------------------------

    Molecular point group: c1
  Charge       = 1
  Multiplicity = 1
  Basis Set: AUG-CC-PVTZ
    Blend: AUG-CC-PVTZ
  Basis Set: (AUG-CC-PVTZ AUX)
    Blend: AUG-CC-PVTZ-JKFIT

    Orbital Energies [Eh]
    ---------------------

    Doubly Occupied:

       1A    -20.732882     2A    -15.856783     3A    -11.456624
       4A    -11.454464     5A    -11.449651     6A    -11.449318
       7A     -1.539364     8A     -1.487108     9A     -1.206159
      10A     -1.166133    11A     -1.093038    12A     -1.026300
      13A     -0.918056    14A     -0.878386    15A     -0.852886
      16A     -0.836939    17A     -0.791736    18A     -0.758452
      19A     -0.746493    20A     -0.738166    21A     -0.725621
      22A     -0.719095    23A     -0.708118    24A     -0.674576
      25A     -0.624157

  @DF-RHF Final Energy:  -287.65886596214233

   => Energetics <=

    Nuclear Repulsion Energy =            278.4313160215945118
    One-Electron Energy =                -932.3993524739723853
    Two-Electron Energy =                 366.3091704902355445
    Total Energy =                       -287.6588659621423290
  Basis Set: (AUG-CC-PVTZ AUX)
    Blend: AUG-CC-PVTZ-RI
    Molecular point group: c1

    Geometry (in Angstrom), charge = 1, multiplicity = 1:

       Center              X                  Y                   Z               Mass
    ------------   -----------------  -----------------  -----------------  -----------------
         O           -1.744033298024     0.053581217485    -0.871629155468    15.994914619570
         N            0.742330701976     0.011110217485    -0.173918155468    14.003074004430
         C           -0.234470298024    -0.703981782515     0.721127844532    12.000000000000
         C            0.987888701976     1.425838217485     0.248959844532    12.000000000000
         C            2.022860701976    -0.749829782515    -0.316342155468    12.000000000000
         C           -1.617501298024    -0.099784782515     0.540548844532    12.000000000000
         H            0.261989701976     0.046833217485    -1.088332155468     1.007825032230
         H           -0.212050298024    -1.765550282515     0.466547144532     1.007825032230
         H            0.128667701976    -0.641463782515     1.749919844532     1.007825032230
         H            1.396606701976     1.419320217485     1.259689844532     1.007825032230
         H            1.701118701976     1.874005217485    -0.442414155468     1.007825032230
         H            0.049172701976     1.974740217485     0.213122844532     1.007825032230
         H            2.497189701976    -0.813911782515     0.663103844532     1.007825032230
         H            1.799987701976    -1.746788782515    -0.695342155468     1.007825032230
         H            2.670307701976    -0.219544782515    -1.014324155468     1.007825032230
         H           -2.357589298024    -0.793297782515     0.954668844532     1.007825032230
         H           -1.716770298024     0.858623217485     1.063135844532     1.007825032230
         H           -2.651128298024     0.323487217485    -1.100167155468     1.007825032230

  Basis Set: AUG-CC-PVTZ
    Blend: AUG-CC-PVTZ
  Basis Set: (AUG-CC-PVTZ AUX)
    Blend: AUG-CC-PVTZ-JKFIT
	 Reference Energy          =    -287.6588659621423290 [Eh]
	 Singles Energy            =      -0.0000000000000000 [Eh]
	 Same-Spin Energy          =      -0.2849898648292066 [Eh]
	 Opposite-Spin Energy      =      -0.9993572745649336 [Eh]
	 Correlation Energy        =      -1.2843471393941401 [Eh]
	 Total Energy              =    -288.9432131015364575 [Eh]

	 ================> DF-SCS-MP2 Energies <==================
	-----------------------------------------------------------
	 SCS Same-Spin Scale       =       0.3333333333333333 [-]
	 SCS Opposite-Spin Scale   =       1.2000000000000000 [-]
	 SCS Same-Spin Energy      =      -0.0949966216097355 [Eh]
	 SCS Opposite-Spin Energy  =      -1.1992287294779203 [Eh]
	 SCS Correlation Energy    =      -1.2942253510876558 [Eh]
	 SCS Total Energy          =    -288.9530913132300043 [Eh]
	-----------------------------------------------------------

  Dipole Moment: [D]
     X:     1.3857      Y:     0.2964      Z:     0.6808     Total:     1.5721

*** Psi4 exiting successfully. Buy a developer a beer!
