                               Psi4 1.4a3.dev225

  ==> Input File <==

--------------------------------------------------------------------------
#psi4
#
memory 32 gb

molecule  {
1 1
  O       -1.7781010     0.0481890    -0.8899830
  N        0.7082630     0.0057180    -0.1922720
  C       -0.2685380    -0.7093740     0.7027740
  C        0.9538210     1.4204460     0.2306060
  C        1.9887930    -0.7552220    -0.3346960
  C       -1.6515690    -0.1051770     0.5221950
  H        0.2279220     0.0414410    -1.1066860
  H       -0.2728820    -1.7522560     0.3793240
  H        0.0946000    -0.6468560     1.7315660
  H        1.3625390     1.4139280     1.2413360
  H        1.6670510     1.8686130    -0.4607680
  H        0.0151050     1.9693480     0.1947690
  H        2.4631220    -0.8193040     0.6447500
  H        1.7556928    -1.7979296    -0.7310876
  H        2.6362400    -0.2249370    -1.0326780
  H       -2.3916570    -0.7986900     0.9363150
  H       -1.7508380     0.8532310     1.0447820
  H       -2.6851960     0.3180950    -1.1185210
units angstrom
no_reorient  #important for SAPT in psi4, default
symmetry c1  #important for SAPT in psi4, default
}

set PROPERTIES_ORIGIN ["COM"]
properties('MP2/aug-cc-pvtz', properties = ['dipole'])
--------------------------------------------------------------------------

    Molecular point group: c1
  Charge       = 1
  Multiplicity = 1
  Basis Set: AUG-CC-PVTZ
    Blend: AUG-CC-PVTZ
  Basis Set: (AUG-CC-PVTZ AUX)
    Blend: AUG-CC-PVTZ-JKFIT

    Orbital Energies [Eh]
    ---------------------

    Doubly Occupied:

       1A    -20.733102     2A    -15.856511     3A    -11.456909
       4A    -11.454680     5A    -11.454112     6A    -11.449325
       7A     -1.539594     8A     -1.487043     9A     -1.206331
      10A     -1.163461    11A     -1.091477    12A     -1.024883
      13A     -0.917715    14A     -0.877001    15A     -0.852229
      16A     -0.836195    17A     -0.791831    18A     -0.757673
      19A     -0.745289    20A     -0.737978    21A     -0.720476
      22A     -0.717220    23A     -0.709858    24A     -0.674109
      25A     -0.624318

  @DF-RHF Final Energy:  -287.65712561261239

   => Energetics <=

    Nuclear Repulsion Energy =            278.3053072515191388
    One-Electron Energy =                -932.1662235534408865
    Two-Electron Energy =                 366.2037906893093577
    Total Energy =                       -287.6571256126123899
  Basis Set: (AUG-CC-PVTZ AUX)
    Blend: AUG-CC-PVTZ-RI
    Molecular point group: c1

    Geometry (in Angstrom), charge = 1, multiplicity = 1:

       Center              X                  Y                   Z               Mass
    ------------   -----------------  -----------------  -----------------  -----------------
         O           -1.743619490990     0.053883951306    -0.870664186309    15.994914619570
         N            0.742744509010     0.011412951306    -0.172953186309    14.003074004430
         C           -0.234056490990    -0.703679048694     0.722092813691    12.000000000000
         C            0.988302509010     1.426140951306     0.249924813691    12.000000000000
         C            2.023274509010    -0.749527048694    -0.315377186309    12.000000000000
         C           -1.617087490990    -0.099482048694     0.541513813691    12.000000000000
         H            0.262403509010     0.047135951306    -1.087367186309     1.007825032230
         H           -0.238400490990    -1.746561048694     0.398642813691     1.007825032230
         H            0.129081509010    -0.641161048694     1.750884813691     1.007825032230
         H            1.397020509010     1.419622951306     1.260654813691     1.007825032230
         H            1.701532509010     1.874307951306    -0.441449186309     1.007825032230
         H            0.049586509010     1.975042951306     0.214087813691     1.007825032230
         H            2.497603509010    -0.813609048694     0.664068813691     1.007825032230
         H            1.790174309010    -1.792234648694    -0.711768786309     1.007825032230
         H            2.670721509010    -0.219242048694    -1.013359186309     1.007825032230
         H           -2.357175490990    -0.792995048694     0.955633813691     1.007825032230
         H           -1.716356490990     0.858925951306     1.064100813691     1.007825032230
         H           -2.650714490990     0.323789951306    -1.099202186309     1.007825032230

  Basis Set: AUG-CC-PVTZ
    Blend: AUG-CC-PVTZ
  Basis Set: (AUG-CC-PVTZ AUX)
    Blend: AUG-CC-PVTZ-JKFIT
	 Reference Energy          =    -287.6571256126123899 [Eh]
	 Singles Energy            =      -0.0000000000000000 [Eh]
	 Same-Spin Energy          =      -0.2850762164949758 [Eh]
	 Opposite-Spin Energy      =      -0.9998125987049196 [Eh]
	 Correlation Energy        =      -1.2848888151998954 [Eh]
	 Total Energy              =    -288.9420144278122962 [Eh]

	 ================> DF-SCS-MP2 Energies <==================
	-----------------------------------------------------------
	 SCS Same-Spin Scale       =       0.3333333333333333 [-]
	 SCS Opposite-Spin Scale   =       1.2000000000000000 [-]
	 SCS Same-Spin Energy      =      -0.0950254054983252 [Eh]
	 SCS Opposite-Spin Energy  =      -1.1997751184459033 [Eh]
	 SCS Correlation Energy    =      -1.2948005239442286 [Eh]
	 SCS Total Energy          =    -288.9519261365566081 [Eh]
	-----------------------------------------------------------

  Dipole Moment: [D]
     X:     1.3698      Y:     0.3083      Z:     0.6610     Total:     1.5519

*** Psi4 exiting successfully. Buy a developer a beer!
