                               Psi4 1.4a3.dev225

  ==> Input File <==

--------------------------------------------------------------------------
#psi4
#
memory 32 gb

molecule  {
1 1
  O       -1.7781010     0.0481890    -0.8899830
  N        0.7082630     0.0057180    -0.1922720
  C       -0.2685380    -0.7093740     0.7027740
  C        0.9538210     1.4204460     0.2306060
  C        1.9887930    -0.7552220    -0.3346960
  C       -1.6515690    -0.1051770     0.5221950
  H        0.2279220     0.0414410    -1.1066860
  H       -0.2728820    -1.7522560     0.3793240
  H        0.0946000    -0.6468560     1.7315660
  H        1.3625390     1.4139280     1.2413360
  H        1.6997756     1.8891759    -0.4924898
  H        0.0151050     1.9693480     0.1947690
  H        2.4631220    -0.8193040     0.6447500
  H        1.7659200    -1.7521810    -0.7136960
  H        2.6362400    -0.2249370    -1.0326780
  H       -2.3916570    -0.7986900     0.9363150
  H       -1.7508380     0.8532310     1.0447820
  H       -2.6851960     0.3180950    -1.1185210
units angstrom
no_reorient  #important for SAPT in psi4, default
symmetry c1  #important for SAPT in psi4, default
}

set PROPERTIES_ORIGIN ["COM"]
properties('MP2/aug-cc-pvtz', properties = ['dipole'])
--------------------------------------------------------------------------

    Molecular point group: c1
  Charge       = 1
  Multiplicity = 1
  Basis Set: AUG-CC-PVTZ
    Blend: AUG-CC-PVTZ
  Basis Set: (AUG-CC-PVTZ AUX)
    Blend: AUG-CC-PVTZ-JKFIT

    Orbital Energies [Eh]
    ---------------------

    Doubly Occupied:

       1A    -20.733213     2A    -15.856501     3A    -11.457234
       4A    -11.454304     5A    -11.454239     6A    -11.449412
       7A     -1.539709     8A     -1.487036     9A     -1.206325
      10A     -1.163576    11A     -1.091356    12A     -1.024968
      13A     -0.917954    14A     -0.875888    15A     -0.853126
      16A     -0.837228    17A     -0.791049    18A     -0.756359
      19A     -0.745337    20A     -0.739215    21A     -0.721159
      22A     -0.716020    23A     -0.710551    24A     -0.674026
      25A     -0.624452

  @DF-RHF Final Energy:  -287.65712900178784

   => Energetics <=

    Nuclear Repulsion Energy =            278.2921017988963968
    One-Electron Energy =                -932.1379863859681336
    Two-Electron Energy =                 366.1887555852839000
    Total Energy =                       -287.6571290017878368
  Basis Set: (AUG-CC-PVTZ AUX)
    Blend: AUG-CC-PVTZ-RI
    Molecular point group: c1

    Geometry (in Angstrom), charge = 1, multiplicity = 1:

       Center              X                  Y                   Z               Mass
    ------------   -----------------  -----------------  -----------------  -----------------
         O           -1.744099977077     0.053142148793    -0.870503879600    15.994914619570
         N            0.742264022923     0.010671148793    -0.172792879600    14.003074004430
         C           -0.234536977077    -0.704420851207     0.722253120400    12.000000000000
         C            0.987822022923     1.425399148793     0.250085120400    12.000000000000
         C            2.022794022923    -0.750268851207    -0.315216879600    12.000000000000
         C           -1.617567977077    -0.100223851207     0.541674120400    12.000000000000
         H            0.261923022923     0.046394148793    -1.087206879600     1.007825032230
         H           -0.238880977077    -1.747302851207     0.398803120400     1.007825032230
         H            0.128601022923    -0.641902851207     1.751045120400     1.007825032230
         H            1.396540022923     1.418881148793     1.260815120400     1.007825032230
         H            1.733776622923     1.894129048793    -0.473010679600     1.007825032230
         H            0.049106022923     1.974301148793     0.214248120400     1.007825032230
         H            2.497123022923    -0.814350851207     0.664229120400     1.007825032230
         H            1.799921022923    -1.747227851207    -0.694216879600     1.007825032230
         H            2.670241022923    -0.219983851207    -1.013198879600     1.007825032230
         H           -2.357655977077    -0.793736851207     0.955794120400     1.007825032230
         H           -1.716836977077     0.858184148793     1.064261120400     1.007825032230
         H           -2.651194977077     0.323048148793    -1.099041879600     1.007825032230

  Basis Set: AUG-CC-PVTZ
    Blend: AUG-CC-PVTZ
  Basis Set: (AUG-CC-PVTZ AUX)
    Blend: AUG-CC-PVTZ-JKFIT
	 Reference Energy          =    -287.6571290017878368 [Eh]
	 Singles Energy            =      -0.0000000000000000 [Eh]
	 Same-Spin Energy          =      -0.2850744291156662 [Eh]
	 Opposite-Spin Energy      =      -0.9998075739695966 [Eh]
	 Correlation Energy        =      -1.2848820030852628 [Eh]
	 Total Energy              =    -288.9420110048731090 [Eh]

	 ================> DF-SCS-MP2 Energies <==================
	-----------------------------------------------------------
	 SCS Same-Spin Scale       =       0.3333333333333333 [-]
	 SCS Opposite-Spin Scale   =       1.2000000000000000 [-]
	 SCS Same-Spin Energy      =      -0.0950248097052220 [Eh]
	 SCS Opposite-Spin Energy  =      -1.1997690887635160 [Eh]
	 SCS Correlation Energy    =      -1.2947938984687379 [Eh]
	 SCS Total Energy          =    -288.9519229002565908 [Eh]
	-----------------------------------------------------------

  Dipole Moment: [D]
     X:     1.3676      Y:     0.3090      Z:     0.6614     Total:     1.5502

*** Psi4 exiting successfully. Buy a developer a beer!
