                               Psi4 1.4a3.dev225

  ==> Input File <==

--------------------------------------------------------------------------
#psi4
#
memory 32 gb

molecule  {
1 1
  O       -1.7781010     0.0481890    -0.8899830
  N        0.7082630     0.0057180    -0.1922720
  C       -0.2685380    -0.7093740     0.7027740
  C        0.9456185     1.3731894     0.2164805
  C        1.9887930    -0.7552220    -0.3346960
  C       -1.6515690    -0.1051770     0.5221950
  H        0.2279220     0.0414410    -1.1066860
  H       -0.2728820    -1.7522560     0.3793240
  H        0.0946000    -0.6468560     1.7315660
  H        1.3625390     1.4139280     1.2413360
  H        1.6670510     1.8686130    -0.4607680
  H        0.0151050     1.9693480     0.1947690
  H        2.4631220    -0.8193040     0.6447500
  H        1.7659200    -1.7521810    -0.7136960
  H        2.6362400    -0.2249370    -1.0326780
  H       -2.3916570    -0.7986900     0.9363150
  H       -1.7508380     0.8532310     1.0447820
  H       -2.6851960     0.3180950    -1.1185210
units angstrom
no_reorient  #important for SAPT in psi4, default
symmetry c1  #important for SAPT in psi4, default
}

set PROPERTIES_ORIGIN ["COM"]
properties('MP2/aug-cc-pvtz', properties = ['dipole'])
--------------------------------------------------------------------------

    Molecular point group: c1
  Charge       = 1
  Multiplicity = 1
  Basis Set: AUG-CC-PVTZ
    Blend: AUG-CC-PVTZ
  Basis Set: (AUG-CC-PVTZ AUX)
    Blend: AUG-CC-PVTZ-JKFIT

    Orbital Energies [Eh]
    ---------------------

    Doubly Occupied:

       1A    -20.733718     2A    -15.858639     3A    -11.458445
       4A    -11.454782     5A    -11.450933     6A    -11.447912
       7A     -1.541642     8A     -1.497321     9A     -1.209094
      10A     -1.168205    11A     -1.092253    12A     -1.026840
      13A     -0.923453    14A     -0.879543    15A     -0.855389
      16A     -0.842840    17A     -0.795257    18A     -0.753141
      19A     -0.747538    20A     -0.740572    21A     -0.718205
      22A     -0.713715    23A     -0.711363    24A     -0.674531
      25A     -0.624974

  @DF-RHF Final Energy:  -287.65697287532009

   => Energetics <=

    Nuclear Repulsion Energy =            279.4027159259072732
    One-Electron Energy =                -934.2787663459362193
    Two-Electron Energy =                 367.2190775447088527
    Total Energy =                       -287.6569728753200934
  Basis Set: (AUG-CC-PVTZ AUX)
    Blend: AUG-CC-PVTZ-RI
    Molecular point group: c1

    Geometry (in Angstrom), charge = 1, multiplicity = 1:

       Center              X                  Y                   Z               Mass
    ------------   -----------------  -----------------  -----------------  -----------------
         O           -1.742641347754     0.059666631872    -0.868977260751    15.994914619570
         N            0.743722652246     0.017195631872    -0.171266260751    14.003074004430
         C           -0.233078347754    -0.697896368128     0.723779739249    12.000000000000
         C            0.981078152246     1.384667031872     0.237486239249    12.000000000000
         C            2.024252652246    -0.743744368128    -0.313690260751    12.000000000000
         C           -1.616109347754    -0.093699368128     0.543200739249    12.000000000000
         H            0.263381652246     0.052918631872    -1.085680260751     1.007825032230
         H           -0.237422347754    -1.740778368128     0.400329739249     1.007825032230
         H            0.130059652246    -0.635378368128     1.752571739249     1.007825032230
         H            1.397998652246     1.425405631872     1.262341739249     1.007825032230
         H            1.702510652246     1.880090631872    -0.439762260751     1.007825032230
         H            0.050564652246     1.980825631872     0.215774739249     1.007825032230
         H            2.498581652246    -0.807826368128     0.665755739249     1.007825032230
         H            1.801379652246    -1.740703368128    -0.692690260751     1.007825032230
         H            2.671699652246    -0.213459368128    -1.011672260751     1.007825032230
         H           -2.356197347754    -0.787212368128     0.957320739249     1.007825032230
         H           -1.715378347754     0.864708631872     1.065787739249     1.007825032230
         H           -2.649736347754     0.329572631872    -1.097515260751     1.007825032230

  Basis Set: AUG-CC-PVTZ
    Blend: AUG-CC-PVTZ
  Basis Set: (AUG-CC-PVTZ AUX)
    Blend: AUG-CC-PVTZ-JKFIT
	 Reference Energy          =    -287.6569728753200934 [Eh]
	 Singles Energy            =      -0.0000000000000000 [Eh]
	 Same-Spin Energy          =      -0.2854570307111850 [Eh]
	 Opposite-Spin Energy      =      -0.9995442182987249 [Eh]
	 Correlation Energy        =      -1.2850012490099099 [Eh]
	 Total Energy              =    -288.9419741243299882 [Eh]

	 ================> DF-SCS-MP2 Energies <==================
	-----------------------------------------------------------
	 SCS Same-Spin Scale       =       0.3333333333333333 [-]
	 SCS Opposite-Spin Scale   =       1.2000000000000000 [-]
	 SCS Same-Spin Energy      =      -0.0951523435703950 [Eh]
	 SCS Opposite-Spin Energy  =      -1.1994530619584698 [Eh]
	 SCS Correlation Energy    =      -1.2946054055288647 [Eh]
	 SCS Total Energy          =    -288.9515782808489348 [Eh]
	-----------------------------------------------------------

  Dipole Moment: [D]
     X:     1.3522      Y:     0.2491      Z:     0.6504     Total:     1.5210

*** Psi4 exiting successfully. Buy a developer a beer!
