                               Psi4 1.4a3.dev225

  ==> Input File <==

--------------------------------------------------------------------------
#psi4
#
memory 32 gb

molecule  {
1 1
  O       -1.7781010     0.0481890    -0.8899830
  N        0.7082630     0.0057180    -0.1922720
  C       -0.2685380    -0.7093740     0.7027740
  C        0.9538210     1.4204460     0.2306060
  C        1.9887930    -0.7552220    -0.3346960
  C       -1.6515690    -0.1051770     0.5221950
  H        0.2279220     0.0414410    -1.1066860
  H       -0.2728820    -1.7522560     0.3793240
  H        0.0946000    -0.6468560     1.7315660
  H        1.3625390     1.4139280     1.2413360
  H        1.6670510     1.8686130    -0.4607680
  H        0.0151050     1.9693480     0.1947690
  H        2.4631220    -0.8193040     0.6447500
  H        1.7659200    -1.7521810    -0.7136960
  H        2.6362400    -0.2249370    -1.0326780
  H       -2.3916570    -0.7986900     0.9363150
  H       -1.7508380     0.8532310     1.0447820
  H       -2.6665622     0.3125505    -1.1138263
units angstrom
no_reorient  #important for SAPT in psi4, default
symmetry c1  #important for SAPT in psi4, default
}

set PROPERTIES_ORIGIN ["COM"]
properties('MP2/aug-cc-pvtz', properties = ['dipole'])
--------------------------------------------------------------------------

    Molecular point group: c1
  Charge       = 1
  Multiplicity = 1
  Basis Set: AUG-CC-PVTZ
    Blend: AUG-CC-PVTZ
  Basis Set: (AUG-CC-PVTZ AUX)
    Blend: AUG-CC-PVTZ-JKFIT

    Orbital Energies [Eh]
    ---------------------

    Doubly Occupied:

       1A    -20.731751     2A    -15.856401     3A    -11.457252
       4A    -11.454555     5A    -11.449659     6A    -11.449242
       7A     -1.543508     8A     -1.487957     9A     -1.207694
      10A     -1.166186    11A     -1.093361    12A     -1.026227
      13A     -0.919923    14A     -0.879155    15A     -0.855161
      16A     -0.837526    17A     -0.792603    18A     -0.757924
      19A     -0.746452    20A     -0.740242    21A     -0.725354
      22A     -0.717510    23A     -0.712048    24A     -0.675225
      25A     -0.625137

  @DF-RHF Final Energy:  -287.66023678145302

   => Energetics <=

    Nuclear Repulsion Energy =            278.6405550931996800
    One-Electron Energy =                -932.7854791599434066
    Two-Electron Energy =                 366.4846872852906472
    Total Energy =                       -287.6602367814530226
  Basis Set: (AUG-CC-PVTZ AUX)
    Blend: AUG-CC-PVTZ-RI
    Molecular point group: c1

    Geometry (in Angstrom), charge = 1, multiplicity = 1:

       Center              X                  Y                   Z               Mass
    ------------   -----------------  -----------------  -----------------  -----------------
         O           -1.743942348448     0.053434202734    -0.870911257674    15.994914619570
         N            0.742421651552     0.010963202734    -0.173200257674    14.003074004430
         C           -0.234379348448    -0.704128797266     0.721845742326    12.000000000000
         C            0.987979651552     1.425691202734     0.249677742326    12.000000000000
         C            2.022951651552    -0.749976797266    -0.315624257674    12.000000000000
         C           -1.617410348448    -0.099931797266     0.541266742326    12.000000000000
         H            0.262080651552     0.046686202734    -1.087614257674     1.007825032230
         H           -0.238723348448    -1.747010797266     0.398395742326     1.007825032230
         H            0.128758651552    -0.641610797266     1.750637742326     1.007825032230
         H            1.396697651552     1.419173202734     1.260407742326     1.007825032230
         H            1.701209651552     1.873858202734    -0.441696257674     1.007825032230
         H            0.049263651552     1.974593202734     0.213840742326     1.007825032230
         H            2.497280651552    -0.814058797266     0.663821742326     1.007825032230
         H            1.800078651552    -1.746935797266    -0.694624257674     1.007825032230
         H            2.670398651552    -0.219691797266    -1.013606257674     1.007825032230
         H           -2.357498348448    -0.793444797266     0.955386742326     1.007825032230
         H           -1.716679348448     0.858476202734     1.063853742326     1.007825032230
         H           -2.632403548448     0.317795702734    -1.094754557674     1.007825032230

  Basis Set: AUG-CC-PVTZ
    Blend: AUG-CC-PVTZ
  Basis Set: (AUG-CC-PVTZ AUX)
    Blend: AUG-CC-PVTZ-JKFIT
	 Reference Energy          =    -287.6602367814530226 [Eh]
	 Singles Energy            =      -0.0000000000000000 [Eh]
	 Same-Spin Energy          =      -0.2847783213580558 [Eh]
	 Opposite-Spin Energy      =      -0.9988129677648504 [Eh]
	 Correlation Energy        =      -1.2835912891229062 [Eh]
	 Total Energy              =    -288.9438280705759325 [Eh]

	 ================> DF-SCS-MP2 Energies <==================
	-----------------------------------------------------------
	 SCS Same-Spin Scale       =       0.3333333333333333 [-]
	 SCS Opposite-Spin Scale   =       1.2000000000000000 [-]
	 SCS Same-Spin Energy      =      -0.0949261071193519 [Eh]
	 SCS Opposite-Spin Energy  =      -1.1985755613178204 [Eh]
	 SCS Correlation Energy    =      -1.2935016684371723 [Eh]
	 SCS Total Energy          =    -288.9537384498901815 [Eh]
	-----------------------------------------------------------

  Dipole Moment: [D]
     X:     1.3957      Y:     0.3010      Z:     0.6756     Total:     1.5796

*** Psi4 exiting successfully. Buy a developer a beer!
