                               Psi4 1.4a3.dev225

  ==> Input File <==

--------------------------------------------------------------------------
#psi4
#
memory 32 gb

molecule  {
1 1
  O       -1.7781010     0.0481890    -0.8899830
  N        0.7423319     0.0184160    -0.0399244
  C       -0.2685380    -0.7093740     0.7027740
  C        0.9538210     1.4204460     0.2306060
  C        1.9887930    -0.7552220    -0.3346960
  C       -1.6515690    -0.1051770     0.5221950
  H        0.2279220     0.0414410    -1.1066860
  H       -0.2728820    -1.7522560     0.3793240
  H        0.0946000    -0.6468560     1.7315660
  H        1.3625390     1.4139280     1.2413360
  H        1.6670510     1.8686130    -0.4607680
  H        0.0151050     1.9693480     0.1947690
  H        2.4631220    -0.8193040     0.6447500
  H        1.7659200    -1.7521810    -0.7136960
  H        2.6362400    -0.2249370    -1.0326780
  H       -2.3916570    -0.7986900     0.9363150
  H       -1.7508380     0.8532310     1.0447820
  H       -2.6851960     0.3180950    -1.1185210
units angstrom
no_reorient  #important for SAPT in psi4, default
symmetry c1  #important for SAPT in psi4, default
}

set PROPERTIES_ORIGIN ["COM"]
properties('MP2/aug-cc-pvtz', properties = ['dipole'])
--------------------------------------------------------------------------

    Molecular point group: c1
  Charge       = 1
  Multiplicity = 1
  Basis Set: AUG-CC-PVTZ
    Blend: AUG-CC-PVTZ
  Basis Set: (AUG-CC-PVTZ AUX)
    Blend: AUG-CC-PVTZ-JKFIT

    Orbital Energies [Eh]
    ---------------------

    Doubly Occupied:

       1A    -20.734725     2A    -15.862378     3A    -11.455490
       4A    -11.454333     5A    -11.451656     6A    -11.446273
       7A     -1.540797     8A     -1.495166     9A     -1.214275
      10A     -1.175485    11A     -1.086175    12A     -1.009421
      13A     -0.924450    14A     -0.878246    15A     -0.857106
      16A     -0.841749    17A     -0.795134    18A     -0.754938
      19A     -0.746317    20A     -0.743315    21A     -0.729160
      22A     -0.725309    23A     -0.680749    24A     -0.667741
      25A     -0.625644

  @DF-RHF Final Energy:  -287.62757839365560

   => Energetics <=

    Nuclear Repulsion Energy =            279.1046672264777726
    One-Electron Energy =                -933.6724293423194467
    Two-Electron Energy =                 366.9401837221860774
    Total Energy =                       -287.6275783936555968
  Basis Set: (AUG-CC-PVTZ AUX)
    Blend: AUG-CC-PVTZ-RI
    Molecular point group: c1

    Geometry (in Angstrom), charge = 1, multiplicity = 1:

       Center              X                  Y                   Z               Mass
    ------------   -----------------  -----------------  -----------------  -----------------
         O           -1.749029262741     0.051398515375    -0.894538282309    15.994914619570
         N            0.771403637259     0.021625515375    -0.044479682309    14.003074004430
         C           -0.239466262741    -0.706164484625     0.698218717691    12.000000000000
         C            0.982892737259     1.423655515375     0.226050717691    12.000000000000
         C            2.017864737259    -0.752012484625    -0.339251282309    12.000000000000
         C           -1.622497262741    -0.101967484625     0.517639717691    12.000000000000
         H            0.256993737259     0.044650515375    -1.111241282309     1.007825032230
         H           -0.243810262741    -1.749046484625     0.374768717691     1.007825032230
         H            0.123671737259    -0.643646484625     1.727010717691     1.007825032230
         H            1.391610737259     1.417137515375     1.236780717691     1.007825032230
         H            1.696122737259     1.871822515375    -0.465323282309     1.007825032230
         H            0.044176737259     1.972557515375     0.190213717691     1.007825032230
         H            2.492193737259    -0.816094484625     0.640194717691     1.007825032230
         H            1.794991737259    -1.748971484625    -0.718251282309     1.007825032230
         H            2.665311737259    -0.221727484625    -1.037233282309     1.007825032230
         H           -2.362585262741    -0.795480484625     0.931759717691     1.007825032230
         H           -1.721766262741     0.856440515375     1.040226717691     1.007825032230
         H           -2.656124262741     0.321304515375    -1.123076282309     1.007825032230

  Basis Set: AUG-CC-PVTZ
    Blend: AUG-CC-PVTZ
  Basis Set: (AUG-CC-PVTZ AUX)
    Blend: AUG-CC-PVTZ-JKFIT
	 Reference Energy          =    -287.6275783936555968 [Eh]
	 Singles Energy            =      -0.0000000000000000 [Eh]
	 Same-Spin Energy          =      -0.2874840569631578 [Eh]
	 Opposite-Spin Energy      =      -1.0033713911578142 [Eh]
	 Correlation Energy        =      -1.2908554481209720 [Eh]
	 Total Energy              =    -288.9184338417765616 [Eh]

	 ================> DF-SCS-MP2 Energies <==================
	-----------------------------------------------------------
	 SCS Same-Spin Scale       =       0.3333333333333333 [-]
	 SCS Opposite-Spin Scale   =       1.2000000000000000 [-]
	 SCS Same-Spin Energy      =      -0.0958280189877193 [Eh]
	 SCS Opposite-Spin Energy  =      -1.2040456693893768 [Eh]
	 SCS Correlation Energy    =      -1.2998736883770960 [Eh]
	 SCS Total Energy          =    -288.9274520820326870 [Eh]
	-----------------------------------------------------------

  Dipole Moment: [D]
     X:     1.2719      Y:     0.2769      Z:     0.3978     Total:     1.3611

*** Psi4 exiting successfully. Buy a developer a beer!
