                               Psi4 1.4a3.dev225

  ==> Input File <==

--------------------------------------------------------------------------
#psi4
#
memory 32 gb

molecule  {
1 1
  O       -1.7781010     0.0481890    -0.8899830
  N        0.7082630     0.0057180    -0.1922720
  C       -0.2685380    -0.7093740     0.7027740
  C        0.9538210     1.4204460     0.2306060
  C        1.9887930    -0.7552220    -0.3346960
  C       -1.6515690    -0.1051770     0.5221950
  H        0.2279220     0.0414410    -1.1066860
  H       -0.2728820    -1.7522560     0.3793240
  H        0.0946000    -0.6468560     1.7315660
  H        1.3021938     1.4548453     1.2631374
  H        1.6670510     1.8686130    -0.4607680
  H        0.0151050     1.9693480     0.1947690
  H        2.4631220    -0.8193040     0.6447500
  H        1.7659200    -1.7521810    -0.7136960
  H        2.6362400    -0.2249370    -1.0326780
  H       -2.3916570    -0.7986900     0.9363150
  H       -1.7508380     0.8532310     1.0447820
  H       -2.6851960     0.3180950    -1.1185210
units angstrom
no_reorient  #important for SAPT in psi4, default
symmetry c1  #important for SAPT in psi4, default
}

set PROPERTIES_ORIGIN ["COM"]
properties('MP2/aug-cc-pvtz', properties = ['dipole'])
--------------------------------------------------------------------------

    Molecular point group: c1
  Charge       = 1
  Multiplicity = 1
  Basis Set: AUG-CC-PVTZ
    Blend: AUG-CC-PVTZ
  Basis Set: (AUG-CC-PVTZ AUX)
    Blend: AUG-CC-PVTZ-JKFIT

    Orbital Energies [Eh]
    ---------------------

    Doubly Occupied:

       1A    -20.733113     2A    -15.856872     3A    -11.457203
       4A    -11.454262     5A    -11.449426     6A    -11.448719
       7A     -1.539624     8A     -1.487135     9A     -1.206622
      10A     -1.166187    11A     -1.092861    12A     -1.025091
      13A     -0.919251    14A     -0.877319    15A     -0.852811
      16A     -0.838857    17A     -0.791952    18A     -0.758477
      19A     -0.745078    20A     -0.739113    21A     -0.726024
      22A     -0.715042    23A     -0.711490    24A     -0.674374
      25A     -0.624374

  @DF-RHF Final Energy:  -287.65884940007470

   => Energetics <=

    Nuclear Repulsion Energy =            278.4774682657969720
    One-Electron Energy =                -932.4900801989283536
    Two-Electron Energy =                 366.3537625330567380
    Total Energy =                       -287.6588494000747005
  Basis Set: (AUG-CC-PVTZ AUX)
    Blend: AUG-CC-PVTZ-RI
    Molecular point group: c1

    Geometry (in Angstrom), charge = 1, multiplicity = 1:

       Center              X                  Y                   Z               Mass
    ------------   -----------------  -----------------  -----------------  -----------------
         O           -1.743058839243     0.052914451560    -0.871102624074    15.994914619570
         N            0.743305160757     0.010443451560    -0.173391624074    14.003074004430
         C           -0.233495839243    -0.704648548440     0.721654375926    12.000000000000
         C            0.988863160757     1.425171451560     0.249486375926    12.000000000000
         C            2.023835160757    -0.750496548440    -0.315815624074    12.000000000000
         C           -1.616526839243    -0.100451548440     0.541075375926    12.000000000000
         H            0.262964160757     0.046166451560    -1.087805624074     1.007825032230
         H           -0.237839839243    -1.747530548440     0.398204375926     1.007825032230
         H            0.129642160757    -0.642130548440     1.750446375926     1.007825032230
         H            1.337235960757     1.459570751560     1.282017775926     1.007825032230
         H            1.702093160757     1.873338451560    -0.441887624074     1.007825032230
         H            0.050147160757     1.974073451560     0.213649375926     1.007825032230
         H            2.498164160757    -0.814578548440     0.663630375926     1.007825032230
         H            1.800962160757    -1.747455548440    -0.694815624074     1.007825032230
         H            2.671282160757    -0.220211548440    -1.013797624074     1.007825032230
         H           -2.356614839243    -0.793964548440     0.955195375926     1.007825032230
         H           -1.715795839243     0.857956451560     1.063662375926     1.007825032230
         H           -2.650153839243     0.322820451560    -1.099640624074     1.007825032230

  Basis Set: AUG-CC-PVTZ
    Blend: AUG-CC-PVTZ
  Basis Set: (AUG-CC-PVTZ AUX)
    Blend: AUG-CC-PVTZ-JKFIT
	 Reference Energy          =    -287.6588494000747005 [Eh]
	 Singles Energy            =      -0.0000000000000000 [Eh]
	 Same-Spin Energy          =      -0.2850054188367753 [Eh]
	 Opposite-Spin Energy      =      -0.9993947777011074 [Eh]
	 Correlation Energy        =      -1.2844001965378826 [Eh]
	 Total Energy              =    -288.9432495966125884 [Eh]

	 ================> DF-SCS-MP2 Energies <==================
	-----------------------------------------------------------
	 SCS Same-Spin Scale       =       0.3333333333333333 [-]
	 SCS Opposite-Spin Scale   =       1.2000000000000000 [-]
	 SCS Same-Spin Energy      =      -0.0950018062789251 [Eh]
	 SCS Opposite-Spin Energy  =      -1.1992737332413288 [Eh]
	 SCS Correlation Energy    =      -1.2942755395202539 [Eh]
	 SCS Total Energy          =    -288.9531249395949430 [Eh]
	-----------------------------------------------------------

  Dipole Moment: [D]
     X:     1.3462      Y:     0.3162      Z:     0.6805     Total:     1.5412

*** Psi4 exiting successfully. Buy a developer a beer!
