                               Psi4 1.4a3.dev225

  ==> Input File <==

--------------------------------------------------------------------------
#psi4
#
memory 32 gb

molecule  {
1 1
  O       -1.7781010     0.0481890    -0.8899830
  N        0.7082630     0.0057180    -0.1922720
  C       -0.2685380    -0.7093740     0.7027740
  C        0.9538210     1.4204460     0.2306060
  C        1.9887930    -0.7552220    -0.3346960
  C       -1.6515690    -0.1051770     0.5221950
  H        0.2279220     0.0414410    -1.1066860
  H       -0.2327688    -1.7783510     0.4831143
  H        0.0946000    -0.6468560     1.7315660
  H        1.3625390     1.4139280     1.2413360
  H        1.6670510     1.8686130    -0.4607680
  H        0.0151050     1.9693480     0.1947690
  H        2.4631220    -0.8193040     0.6447500
  H        1.7659200    -1.7521810    -0.7136960
  H        2.6362400    -0.2249370    -1.0326780
  H       -2.3916570    -0.7986900     0.9363150
  H       -1.7508380     0.8532310     1.0447820
  H       -2.6851960     0.3180950    -1.1185210
units angstrom
no_reorient  #important for SAPT in psi4, default
symmetry c1  #important for SAPT in psi4, default
}

set PROPERTIES_ORIGIN ["COM"]
properties('MP2/aug-cc-pvtz', properties = ['dipole'])
--------------------------------------------------------------------------

    Molecular point group: c1
  Charge       = 1
  Multiplicity = 1
  Basis Set: AUG-CC-PVTZ
    Blend: AUG-CC-PVTZ
  Basis Set: (AUG-CC-PVTZ AUX)
    Blend: AUG-CC-PVTZ-JKFIT

    Orbital Energies [Eh]
    ---------------------

    Doubly Occupied:

       1A    -20.732769     2A    -15.857056     3A    -11.456423
       4A    -11.454624     5A    -11.449705     6A    -11.449412
       7A     -1.539252     8A     -1.487114     9A     -1.205960
      10A     -1.166172    11A     -1.093063    12A     -1.027031
      13A     -0.917578    14A     -0.879026    15A     -0.852578
      16A     -0.836773    17A     -0.791648    18A     -0.758872
      19A     -0.746751    20A     -0.737654    21A     -0.725877
      22A     -0.719920    23A     -0.705901    24A     -0.674768
      25A     -0.624037

  @DF-RHF Final Energy:  -287.65816838391117

   => Energetics <=

    Nuclear Repulsion Energy =            278.3935045136441317
    One-Electron Energy =                -932.3234205379882269
    Two-Electron Energy =                 366.2717476404328636
    Total Energy =                       -287.6581683839111747
  Basis Set: (AUG-CC-PVTZ AUX)
    Blend: AUG-CC-PVTZ-RI
    Molecular point group: c1

    Geometry (in Angstrom), charge = 1, multiplicity = 1:

       Center              X                  Y                   Z               Mass
    ------------   -----------------  -----------------  -----------------  -----------------
         O           -1.744182630645     0.053664093666    -0.872019803930    15.994914619570
         N            0.742181369355     0.011193093666    -0.174308803930    14.003074004430
         C           -0.234619630645    -0.703898906334     0.720737196070    12.000000000000
         C            0.987739369355     1.425921093666     0.248569196070    12.000000000000
         C            2.022711369355    -0.749746906334    -0.316732803930    12.000000000000
         C           -1.617650630645    -0.099701906334     0.540158196070    12.000000000000
         H            0.261840369355     0.046916093666    -1.088722803930     1.007825032230
         H           -0.198850430645    -1.772875906334     0.501077496070     1.007825032230
         H            0.128518369355    -0.641380906334     1.749529196070     1.007825032230
         H            1.396457369355     1.419403093666     1.259299196070     1.007825032230
         H            1.700969369355     1.874088093666    -0.442804803930     1.007825032230
         H            0.049023369355     1.974823093666     0.212732196070     1.007825032230
         H            2.497040369355    -0.813828906334     0.662713196070     1.007825032230
         H            1.799838369355    -1.746705906334    -0.695732803930     1.007825032230
         H            2.670158369355    -0.219461906334    -1.014714803930     1.007825032230
         H           -2.357738630645    -0.793214906334     0.954278196070     1.007825032230
         H           -1.716919630645     0.858706093666     1.062745196070     1.007825032230
         H           -2.651277630645     0.323570093666    -1.100557803930     1.007825032230

  Basis Set: AUG-CC-PVTZ
    Blend: AUG-CC-PVTZ
  Basis Set: (AUG-CC-PVTZ AUX)
    Blend: AUG-CC-PVTZ-JKFIT
	 Reference Energy          =    -287.6581683839111747 [Eh]
	 Singles Energy            =      -0.0000000000000000 [Eh]
	 Same-Spin Energy          =      -0.2849985126375544 [Eh]
	 Opposite-Spin Energy      =      -0.9993638847414591 [Eh]
	 Correlation Energy        =      -1.2843623973790135 [Eh]
	 Total Energy              =    -288.9425307812902020 [Eh]

	 ================> DF-SCS-MP2 Energies <==================
	-----------------------------------------------------------
	 SCS Same-Spin Scale       =       0.3333333333333333 [-]
	 SCS Opposite-Spin Scale   =       1.2000000000000000 [-]
	 SCS Same-Spin Energy      =      -0.0949995042125181 [Eh]
	 SCS Opposite-Spin Energy  =      -1.1992366616897510 [Eh]
	 SCS Correlation Energy    =      -1.2942361659022690 [Eh]
	 SCS Total Energy          =    -288.9524045498134228 [Eh]
	-----------------------------------------------------------

  Dipole Moment: [D]
     X:     1.3941      Y:     0.2909      Z:     0.6912     Total:     1.5830

*** Psi4 exiting successfully. Buy a developer a beer!
