                               Psi4 1.4a3.dev225

  ==> Input File <==

--------------------------------------------------------------------------
#psi4
#
memory 32 gb

molecule  {
1 1
  O       -1.7781010     0.0481890    -0.8899830
  N        0.7082630     0.0057180    -0.1922720
  C       -0.2685380    -0.7093740     0.7027740
  C        0.9538210     1.4204460     0.2306060
  C        1.9887930    -0.7552220    -0.3346960
  C       -1.6515690    -0.1051770     0.5221950
  H        0.2279220     0.0414410    -1.1066860
  H       -0.3129476    -1.7147350     0.2790775
  H        0.0946000    -0.6468560     1.7315660
  H        1.3625390     1.4139280     1.2413360
  H        1.6670510     1.8686130    -0.4607680
  H        0.0151050     1.9693480     0.1947690
  H        2.4631220    -0.8193040     0.6447500
  H        1.7659200    -1.7521810    -0.7136960
  H        2.6362400    -0.2249370    -1.0326780
  H       -2.3916570    -0.7986900     0.9363150
  H       -1.7508380     0.8532310     1.0447820
  H       -2.6851960     0.3180950    -1.1185210
units angstrom
no_reorient  #important for SAPT in psi4, default
symmetry c1  #important for SAPT in psi4, default
}

set PROPERTIES_ORIGIN ["COM"]
properties('MP2/aug-cc-pvtz', properties = ['dipole'])
--------------------------------------------------------------------------

    Molecular point group: c1
  Charge       = 1
  Multiplicity = 1
  Basis Set: AUG-CC-PVTZ
    Blend: AUG-CC-PVTZ
  Basis Set: (AUG-CC-PVTZ AUX)
    Blend: AUG-CC-PVTZ-JKFIT

    Orbital Energies [Eh]
    ---------------------

    Doubly Occupied:

       1A    -20.733608     2A    -15.855464     3A    -11.457677
       4A    -11.453840     5A    -11.449353     6A    -11.448700
       7A     -1.540157     8A     -1.487160     9A     -1.207628
      10A     -1.165873    11A     -1.092989    12A     -1.023052
      13A     -0.920912    14A     -0.875327    15A     -0.854726
      16A     -0.837808    17A     -0.792699    18A     -0.756733
      19A     -0.745896    20A     -0.742100    21A     -0.724654
      22A     -0.716882    23A     -0.711809    24A     -0.673154
      25A     -0.624602

  @DF-RHF Final Energy:  -287.65788876398625

   => Energetics <=

    Nuclear Repulsion Energy =            278.6507875893556729
    One-Electron Energy =                -932.8317447090036012
    Two-Electron Energy =                 366.5230683556616782
    Total Energy =                       -287.6578887639862501
  Basis Set: (AUG-CC-PVTZ AUX)
    Blend: AUG-CC-PVTZ-RI
    Molecular point group: c1

    Geometry (in Angstrom), charge = 1, multiplicity = 1:

       Center              X                  Y                   Z               Mass
    ------------   -----------------  -----------------  -----------------  -----------------
         O           -1.743285699716     0.052952444727    -0.869737318828    15.994914619570
         N            0.743078300284     0.010481444727    -0.172026318828    14.003074004430
         C           -0.233722699716    -0.704610555273     0.723019681172    12.000000000000
         C            0.988636300284     1.425209444727     0.250851681172    12.000000000000
         C            2.023608300284    -0.750458555273    -0.314450318828    12.000000000000
         C           -1.616753699716    -0.100413555273     0.542440681172    12.000000000000
         H            0.262737300284     0.046204444727    -1.086440318828     1.007825032230
         H           -0.278132299716    -1.709971555273     0.299323181172     1.007825032230
         H            0.129415300284    -0.642092555273     1.751811681172     1.007825032230
         H            1.397354300284     1.418691444727     1.261581681172     1.007825032230
         H            1.701866300284     1.873376444727    -0.440522318828     1.007825032230
         H            0.049920300284     1.974111444727     0.215014681172     1.007825032230
         H            2.497937300284    -0.814540555273     0.664995681172     1.007825032230
         H            1.800735300284    -1.747417555273    -0.693450318828     1.007825032230
         H            2.671055300284    -0.220173555273    -1.012432318828     1.007825032230
         H           -2.356841699716    -0.793926555273     0.956560681172     1.007825032230
         H           -1.716022699716     0.857994444727     1.065027681172     1.007825032230
         H           -2.650380699716     0.322858444727    -1.098275318828     1.007825032230

  Basis Set: AUG-CC-PVTZ
    Blend: AUG-CC-PVTZ
  Basis Set: (AUG-CC-PVTZ AUX)
    Blend: AUG-CC-PVTZ-JKFIT
	 Reference Energy          =    -287.6578887639862501 [Eh]
	 Singles Energy            =      -0.0000000000000000 [Eh]
	 Same-Spin Energy          =      -0.2851602938907490 [Eh]
	 Opposite-Spin Energy      =      -0.9996598727057749 [Eh]
	 Correlation Energy        =      -1.2848201665965240 [Eh]
	 Total Energy              =    -288.9427089305827963 [Eh]

	 ================> DF-SCS-MP2 Energies <==================
	-----------------------------------------------------------
	 SCS Same-Spin Scale       =       0.3333333333333333 [-]
	 SCS Opposite-Spin Scale   =       1.2000000000000000 [-]
	 SCS Same-Spin Energy      =      -0.0950534312969163 [Eh]
	 SCS Opposite-Spin Energy  =      -1.1995918472469298 [Eh]
	 SCS Correlation Energy    =      -1.2946452785438460 [Eh]
	 SCS Total Energy          =    -288.9525340425300897 [Eh]
	-----------------------------------------------------------

  Dipole Moment: [D]
     X:     1.3433      Y:     0.3297      Z:     0.6398     Total:     1.5240

*** Psi4 exiting successfully. Buy a developer a beer!
