                               Psi4 1.4a3.dev225

  ==> Input File <==

--------------------------------------------------------------------------
#psi4
#
memory 32 gb

molecule  {
1 1
  O       -1.7781010     0.0481890    -0.8899830
  N        0.7082630     0.0057180    -0.1922720
  C       -0.2685380    -0.7093740     0.7027740
  C        0.9538210     1.4204460     0.2306060
  C        1.9887930    -0.7552220    -0.3346960
  C       -1.6515690    -0.1051770     0.5221950
  H        0.2279220     0.0414410    -1.1066860
  H       -0.2728820    -1.7522560     0.3793240
  H        0.0946000    -0.6468560     1.7315660
  H        1.3625390     1.4139280     1.2413360
  H        1.6670510     1.8686130    -0.4607680
  H        0.0151050     1.9693480     0.1947690
  H        2.3761005    -0.8075474     0.4650585
  H        1.7659200    -1.7521810    -0.7136960
  H        2.6362400    -0.2249370    -1.0326780
  H       -2.3916570    -0.7986900     0.9363150
  H       -1.7508380     0.8532310     1.0447820
  H       -2.6851960     0.3180950    -1.1185210
units angstrom
no_reorient  #important for SAPT in psi4, default
symmetry c1  #important for SAPT in psi4, default
}

set PROPERTIES_ORIGIN ["COM"]
properties('MP2/aug-cc-pvtz', properties = ['dipole'])
--------------------------------------------------------------------------

    Molecular point group: c1
  Charge       = 1
  Multiplicity = 1
  Basis Set: AUG-CC-PVTZ
    Blend: AUG-CC-PVTZ
  Basis Set: (AUG-CC-PVTZ AUX)
    Blend: AUG-CC-PVTZ-JKFIT

    Orbital Energies [Eh]
    ---------------------

    Doubly Occupied:

       1A    -20.733140     2A    -15.855332     3A    -11.457260
       4A    -11.454333     5A    -11.449363     6A    -11.427518
       7A     -1.539685     8A     -1.488047     9A     -1.210927
      10A     -1.179390    11A     -1.105697    12A     -1.026032
      13A     -0.919113    14A     -0.885779    15A     -0.854206
      16A     -0.838531    17A     -0.804613    18A     -0.775313
      19A     -0.752688    20A     -0.739403    21A     -0.725755
      22A     -0.718918    23A     -0.712184    24A     -0.674798
      25A     -0.624434

  @DF-RHF Final Energy:  -287.62448022552036

   => Energetics <=

    Nuclear Repulsion Energy =            279.4984190674728666
    One-Electron Energy =                -934.3408843663202106
    Two-Electron Energy =                 367.2179850733270428
    Total Energy =                       -287.6244802255203581
  Basis Set: (AUG-CC-PVTZ AUX)
    Blend: AUG-CC-PVTZ-RI
    Molecular point group: c1

    Geometry (in Angstrom), charge = 1, multiplicity = 1:

       Center              X                  Y                   Z               Mass
    ------------   -----------------  -----------------  -----------------  -----------------
         O           -1.742760421226     0.053240661652    -0.868848596651    15.994914619570
         N            0.743603578774     0.010769661652    -0.171137596651    14.003074004430
         C           -0.233197421226    -0.704322338348     0.723908403349    12.000000000000
         C            0.989161578774     1.425497661652     0.251740403349    12.000000000000
         C            2.024133578774    -0.750170338348    -0.313561596651    12.000000000000
         C           -1.616228421226    -0.100125338348     0.543329403349    12.000000000000
         H            0.263262578774     0.046492661652    -1.085551596651     1.007825032230
         H           -0.237541421226    -1.747204338348     0.400458403349     1.007825032230
         H            0.129940578774    -0.641804338348     1.752700403349     1.007825032230
         H            1.397879578774     1.418979661652     1.262470403349     1.007825032230
         H            1.702391578774     1.873664661652    -0.439633596651     1.007825032230
         H            0.050445578774     1.974399661652     0.215903403349     1.007825032230
         H            2.411441078774    -0.802495738348     0.486192903349     1.007825032230
         H            1.801260578774    -1.747129338348    -0.692561596651     1.007825032230
         H            2.671580578774    -0.219885338348    -1.011543596651     1.007825032230
         H           -2.356316421226    -0.793638338348     0.957449403349     1.007825032230
         H           -1.715497421226     0.858282661652     1.065916403349     1.007825032230
         H           -2.649855421226     0.323146661652    -1.097386596651     1.007825032230

  Basis Set: AUG-CC-PVTZ
    Blend: AUG-CC-PVTZ
  Basis Set: (AUG-CC-PVTZ AUX)
    Blend: AUG-CC-PVTZ-JKFIT
	 Reference Energy          =    -287.6244802255203581 [Eh]
	 Singles Energy            =      -0.0000000000000000 [Eh]
	 Same-Spin Energy          =      -0.2849673034511773 [Eh]
	 Opposite-Spin Energy      =      -0.9987111863902080 [Eh]
	 Correlation Energy        =      -1.2836784898413853 [Eh]
	 Total Energy              =    -288.9081587153617647 [Eh]

	 ================> DF-SCS-MP2 Energies <==================
	-----------------------------------------------------------
	 SCS Same-Spin Scale       =       0.3333333333333333 [-]
	 SCS Opposite-Spin Scale   =       1.2000000000000000 [-]
	 SCS Same-Spin Energy      =      -0.0949891011503924 [Eh]
	 SCS Opposite-Spin Energy  =      -1.1984534236682496 [Eh]
	 SCS Correlation Energy    =      -1.2934425248186421 [Eh]
	 SCS Total Energy          =    -288.9179227503390166 [Eh]
	-----------------------------------------------------------

  Dipole Moment: [D]
     X:     1.3526      Y:     0.3163      Z:     0.6538     Total:     1.5353

*** Psi4 exiting successfully. Buy a developer a beer!
