                               Psi4 1.4a3.dev225

  ==> Input File <==

--------------------------------------------------------------------------
#psi4
#
memory 32 gb

molecule  {
1 1
  O       -1.7781010     0.0481890    -0.8899830
  N        0.7082630     0.0057180    -0.1922720
  C       -0.2685380    -0.7093740     0.7027740
  C        0.9538210     1.4204460     0.2306060
  C        1.9887930    -0.7552220    -0.3346960
  C       -1.6515690    -0.1051770     0.5221950
  H        0.2279220     0.0414410    -1.1066860
  H       -0.2728820    -1.7522560     0.3793240
  H        0.0946000    -0.6468560     1.7315660
  H        1.3625390     1.4139280     1.2413360
  H        1.6670510     1.8686130    -0.4607680
  H        0.0151050     1.9693480     0.1947690
  H        2.4631220    -0.8193040     0.6447500
  H        1.7036104    -1.7675683    -0.6194177
  H        2.6362400    -0.2249370    -1.0326780
  H       -2.3916570    -0.7986900     0.9363150
  H       -1.7508380     0.8532310     1.0447820
  H       -2.6851960     0.3180950    -1.1185210
units angstrom
no_reorient  #important for SAPT in psi4, default
symmetry c1  #important for SAPT in psi4, default
}

set PROPERTIES_ORIGIN ["COM"]
properties('MP2/aug-cc-pvtz', properties = ['dipole'])
--------------------------------------------------------------------------

    Molecular point group: c1
  Charge       = 1
  Multiplicity = 1
  Basis Set: AUG-CC-PVTZ
    Blend: AUG-CC-PVTZ
  Basis Set: (AUG-CC-PVTZ AUX)
    Blend: AUG-CC-PVTZ-JKFIT

    Orbital Energies [Eh]
    ---------------------

    Doubly Occupied:

       1A    -20.733203     2A    -15.855480     3A    -11.457379
       4A    -11.454365     5A    -11.450130     6A    -11.448806
       7A     -1.539708     8A     -1.487227     9A     -1.206753
      10A     -1.166789    11A     -1.092727    12A     -1.025221
      13A     -0.917822    14A     -0.877411    15A     -0.852204
      16A     -0.840581    17A     -0.792154    18A     -0.757371
      19A     -0.744892    20A     -0.742399    21A     -0.723156
      22A     -0.717413    23A     -0.712293    24A     -0.674143
      25A     -0.624477

  @DF-RHF Final Energy:  -287.65800594423916

   => Energetics <=

    Nuclear Repulsion Energy =            278.6399412761945769
    One-Electron Energy =                -932.8076851103460285
    Two-Electron Energy =                 366.5097378899122873
    Total Energy =                       -287.6580059442391644
  Basis Set: (AUG-CC-PVTZ AUX)
    Blend: AUG-CC-PVTZ-RI
    Molecular point group: c1

    Geometry (in Angstrom), charge = 1, multiplicity = 1:

       Center              X                  Y                   Z               Mass
    ------------   -----------------  -----------------  -----------------  -----------------
         O           -1.743036864218     0.053544310540    -0.871913396663    15.994914619570
         N            0.743327135782     0.011073310540    -0.174202396663    14.003074004430
         C           -0.233473864218    -0.704018689460     0.720843603337    12.000000000000
         C            0.988885135782     1.425801310540     0.248675603337    12.000000000000
         C            2.023857135782    -0.749866689460    -0.316626396663    12.000000000000
         C           -1.616504864218    -0.099821689460     0.540264603337    12.000000000000
         H            0.262986135782     0.046796310540    -1.088616396663     1.007825032230
         H           -0.237817864218    -1.746900689460     0.397393603337     1.007825032230
         H            0.129664135782    -0.641500689460     1.749635603337     1.007825032230
         H            1.397603135782     1.419283310540     1.259405603337     1.007825032230
         H            1.702115135782     1.873968310540    -0.442698396663     1.007825032230
         H            0.050169135782     1.974703310540     0.212838603337     1.007825032230
         H            2.498186135782    -0.813948689460     0.662819603337     1.007825032230
         H            1.738674535782    -1.762212989460    -0.601348096663     1.007825032230
         H            2.671304135782    -0.219581689460    -1.014608396663     1.007825032230
         H           -2.356592864218    -0.793334689460     0.954384603337     1.007825032230
         H           -1.715773864218     0.858586310540     1.062851603337     1.007825032230
         H           -2.650131864218     0.323450310540    -1.100451396663     1.007825032230

  Basis Set: AUG-CC-PVTZ
    Blend: AUG-CC-PVTZ
  Basis Set: (AUG-CC-PVTZ AUX)
    Blend: AUG-CC-PVTZ-JKFIT
	 Reference Energy          =    -287.6580059442391644 [Eh]
	 Singles Energy            =      -0.0000000000000000 [Eh]
	 Same-Spin Energy          =      -0.2851332687998315 [Eh]
	 Opposite-Spin Energy      =      -0.9995979707432544 [Eh]
	 Correlation Energy        =      -1.2847312395430859 [Eh]
	 Total Energy              =    -288.9427371837822420 [Eh]

	 ================> DF-SCS-MP2 Energies <==================
	-----------------------------------------------------------
	 SCS Same-Spin Scale       =       0.3333333333333333 [-]
	 SCS Opposite-Spin Scale   =       1.2000000000000000 [-]
	 SCS Same-Spin Energy      =      -0.0950444229332772 [Eh]
	 SCS Opposite-Spin Energy  =      -1.1995175648919052 [Eh]
	 SCS Correlation Energy    =      -1.2945619878251824 [Eh]
	 SCS Total Energy          =    -288.9525679320643690 [Eh]
	-----------------------------------------------------------

  Dipole Moment: [D]
     X:     1.3572      Y:     0.3135      Z:     0.7079     Total:     1.5625

*** Psi4 exiting successfully. Buy a developer a beer!
