                               Psi4 1.4a3.dev225

  ==> Input File <==

--------------------------------------------------------------------------
#psi4
#
memory 32 gb

molecule  {
1 1
  O       -1.7781010     0.0481890    -0.8899830
  N        0.7082630     0.0057180    -0.1922720
  C       -0.2685380    -0.7093740     0.7027740
  C        0.9538210     1.4204460     0.2306060
  C        1.9887930    -0.7552220    -0.3346960
  C       -1.6515690    -0.1051770     0.5221950
  H        0.2279220     0.0414410    -1.1066860
  H       -0.2730809    -1.8000115     0.3645126
  H        0.0946000    -0.6468560     1.7315660
  H        1.3625390     1.4139280     1.2413360
  H        1.6670510     1.8686130    -0.4607680
  H        0.0151050     1.9693480     0.1947690
  H        2.4631220    -0.8193040     0.6447500
  H        1.7659200    -1.7521810    -0.7136960
  H        2.6362400    -0.2249370    -1.0326780
  H       -2.3916570    -0.7986900     0.9363150
  H       -1.7508380     0.8532310     1.0447820
  H       -2.6851960     0.3180950    -1.1185210
units angstrom
no_reorient  #important for SAPT in psi4, default
symmetry c1  #important for SAPT in psi4, default
}

set PROPERTIES_ORIGIN ["COM"]
properties('MP2/aug-cc-pvtz', properties = ['dipole'])
--------------------------------------------------------------------------

    Molecular point group: c1
  Charge       = 1
  Multiplicity = 1
  Basis Set: AUG-CC-PVTZ
    Blend: AUG-CC-PVTZ
  Basis Set: (AUG-CC-PVTZ AUX)
    Blend: AUG-CC-PVTZ-JKFIT

    Orbital Energies [Eh]
    ---------------------

    Doubly Occupied:

       1A    -20.733106     2A    -15.856536     3A    -11.462190
       4A    -11.454466     5A    -11.449396     6A    -11.449311
       7A     -1.539550     8A     -1.487049     9A     -1.204294
      10A     -1.165845    11A     -1.093062    12A     -1.022818
      13A     -0.917611    14A     -0.875045    15A     -0.852569
      16A     -0.837273    17A     -0.792075    18A     -0.756902
      19A     -0.746030    20A     -0.738686    21A     -0.724352
      22A     -0.716784    23A     -0.707118    24A     -0.673732
      25A     -0.623964

  @DF-RHF Final Energy:  -287.65707460269385

   => Energetics <=

    Nuclear Repulsion Energy =            278.2756056367844621
    One-Electron Energy =                -932.1058333385713013
    Two-Electron Energy =                 366.1731530990929855
    Total Energy =                       -287.6570746026938536
  Basis Set: (AUG-CC-PVTZ AUX)
    Blend: AUG-CC-PVTZ-RI
    Molecular point group: c1

    Geometry (in Angstrom), charge = 1, multiplicity = 1:

       Center              X                  Y                   Z               Mass
    ------------   -----------------  -----------------  -----------------  -----------------
         O           -1.743731673917     0.053906401762    -0.870693050063    15.994914619570
         N            0.742632326083     0.011435401762    -0.172982050063    14.003074004430
         C           -0.234168673917    -0.703656598238     0.722063949937    12.000000000000
         C            0.988190326083     1.426163401762     0.249895949937    12.000000000000
         C            2.023162326083    -0.749504598238    -0.315406050063    12.000000000000
         C           -1.617199673917    -0.099459598238     0.541484949937    12.000000000000
         H            0.262291326083     0.047158401762    -1.087396050063     1.007825032230
         H           -0.238711573917    -1.794294098238     0.383802549937     1.007825032230
         H            0.128969326083    -0.641138598238     1.750855949937     1.007825032230
         H            1.396908326083     1.419645401762     1.260625949937     1.007825032230
         H            1.701420326083     1.874330401762    -0.441478050063     1.007825032230
         H            0.049474326083     1.975065401762     0.214058949937     1.007825032230
         H            2.497491326083    -0.813586598238     0.664039949937     1.007825032230
         H            1.800289326083    -1.746463598238    -0.694406050063     1.007825032230
         H            2.670609326083    -0.219219598238    -1.013388050063     1.007825032230
         H           -2.357287673917    -0.792972598238     0.955604949937     1.007825032230
         H           -1.716468673917     0.858948401762     1.064071949937     1.007825032230
         H           -2.650826673917     0.323812401762    -1.099231050063     1.007825032230

  Basis Set: AUG-CC-PVTZ
    Blend: AUG-CC-PVTZ
  Basis Set: (AUG-CC-PVTZ AUX)
    Blend: AUG-CC-PVTZ-JKFIT
	 Reference Energy          =    -287.6570746026938536 [Eh]
	 Singles Energy            =      -0.0000000000000000 [Eh]
	 Same-Spin Energy          =      -0.2851174064749384 [Eh]
	 Opposite-Spin Energy      =      -0.9998475201012023 [Eh]
	 Correlation Energy        =      -1.2849649265761407 [Eh]
	 Total Energy              =    -288.9420395292700050 [Eh]

	 ================> DF-SCS-MP2 Energies <==================
	-----------------------------------------------------------
	 SCS Same-Spin Scale       =       0.3333333333333333 [-]
	 SCS Opposite-Spin Scale   =       1.2000000000000000 [-]
	 SCS Same-Spin Energy      =      -0.0950391354916461 [Eh]
	 SCS Opposite-Spin Energy  =      -1.1998170241214428 [Eh]
	 SCS Correlation Energy    =      -1.2948561596130890 [Eh]
	 SCS Total Energy          =    -288.9519307623069153 [Eh]
	-----------------------------------------------------------

  Dipole Moment: [D]
     X:     1.3644      Y:     0.3129      Z:     0.6625     Total:     1.5486

*** Psi4 exiting successfully. Buy a developer a beer!
