                               Psi4 1.4a3.dev225

  ==> Input File <==

--------------------------------------------------------------------------
#psi4
#
memory 32 gb

molecule  {
1 1
  O       -1.7781010     0.0481890    -0.8899830
  N        0.7082630     0.0057180    -0.1922720
  C       -0.2685380    -0.7093740     0.7027740
  C        0.9538210     1.4204460     0.2306060
  C        1.9887930    -0.7552220    -0.3346960
  C       -1.6515690    -0.1051770     0.5221950
  H        0.2279220     0.0414410    -1.1066860
  H       -0.2728820    -1.7522560     0.3793240
  H        0.0946000    -0.6468560     1.7315660
  H        1.3625390     1.4139280     1.2413360
  H        1.6670510     1.8686130    -0.4607680
  H        0.0151050     1.9693480     0.1947690
  H        2.4631220    -0.8193040     0.6447500
  H        1.7659200    -1.7521810    -0.7136960
  H        2.6362400    -0.2249370    -1.0326780
  H       -2.3916570    -0.7986900     0.9363150
  H       -1.7508380     0.8532310     1.0447820
  H       -2.7317805     0.3319562    -1.1302577
units angstrom
no_reorient  #important for SAPT in psi4, default
symmetry c1  #important for SAPT in psi4, default
}

set PROPERTIES_ORIGIN ["COM"]
properties('MP2/aug-cc-pvtz', properties = ['dipole'])
--------------------------------------------------------------------------

    Molecular point group: c1
  Charge       = 1
  Multiplicity = 1
  Basis Set: AUG-CC-PVTZ
    Blend: AUG-CC-PVTZ
  Basis Set: (AUG-CC-PVTZ AUX)
    Blend: AUG-CC-PVTZ-JKFIT

    Orbital Energies [Eh]
    ---------------------

    Doubly Occupied:

       1A    -20.736228     2A    -15.855862     3A    -11.456531
       4A    -11.453231     5A    -11.449236     6A    -11.448748
       7A     -1.531320     8A     -1.484785     9A     -1.204251
      10A     -1.165687    11A     -1.092165    12A     -1.021950
      13A     -0.917352    14A     -0.872915    15A     -0.848702
      16A     -0.836624    17A     -0.790515    18A     -0.757136
      19A     -0.745118    20A     -0.737729    21A     -0.724709
      22A     -0.716348    23A     -0.710786    24A     -0.671116
      25A     -0.622483

  @DF-RHF Final Energy:  -287.65430382182024

   => Energetics <=

    Nuclear Repulsion Energy =            278.2108318378149079
    One-Electron Energy =                -932.0272166612033971
    Two-Electron Energy =                 366.1620810015682537
    Total Energy =                       -287.6543038218202355
  Basis Set: (AUG-CC-PVTZ AUX)
    Blend: AUG-CC-PVTZ-RI
    Molecular point group: c1

    Geometry (in Angstrom), charge = 1, multiplicity = 1:

       Center              X                  Y                   Z               Mass
    ------------   -----------------  -----------------  -----------------  -----------------
         O           -1.743212775164     0.053217118261    -0.870727445608    15.994914619570
         N            0.743151224836     0.010746118261    -0.173016445608    14.003074004430
         C           -0.233649775164    -0.704345881739     0.722029554392    12.000000000000
         C            0.988709224836     1.425474118261     0.249861554392    12.000000000000
         C            2.023681224836    -0.750193881739    -0.315440445608    12.000000000000
         C           -1.616680775164    -0.100148881739     0.541450554392    12.000000000000
         H            0.262810224836     0.046469118261    -1.087430445608     1.007825032230
         H           -0.237993775164    -1.747227881739     0.398579554392     1.007825032230
         H            0.129488224836    -0.641827881739     1.750821554392     1.007825032230
         H            1.397427224836     1.418956118261     1.260591554392     1.007825032230
         H            1.701939224836     1.873641118261    -0.441512445608     1.007825032230
         H            0.049993224836     1.974376118261     0.214024554392     1.007825032230
         H            2.498010224836    -0.814275881739     0.664005554392     1.007825032230
         H            1.800808224836    -1.747152881739    -0.694440445608     1.007825032230
         H            2.671128224836    -0.219908881739    -1.013422445608     1.007825032230
         H           -2.356768775164    -0.793661881739     0.955570554392     1.007825032230
         H           -1.715949775164     0.858259118261     1.064037554392     1.007825032230
         H           -2.696892275164     0.336984318261    -1.111002145608     1.007825032230

  Basis Set: AUG-CC-PVTZ
    Blend: AUG-CC-PVTZ
  Basis Set: (AUG-CC-PVTZ AUX)
    Blend: AUG-CC-PVTZ-JKFIT
	 Reference Energy          =    -287.6543038218202355 [Eh]
	 Singles Energy            =      -0.0000000000000000 [Eh]
	 Same-Spin Energy          =      -0.2856002896353627 [Eh]
	 Opposite-Spin Energy      =      -1.0009508397730551 [Eh]
	 Correlation Energy        =      -1.2865511294084178 [Eh]
	 Total Energy              =    -288.9408549512286299 [Eh]

	 ================> DF-SCS-MP2 Energies <==================
	-----------------------------------------------------------
	 SCS Same-Spin Scale       =       0.3333333333333333 [-]
	 SCS Opposite-Spin Scale   =       1.2000000000000000 [-]
	 SCS Same-Spin Energy      =      -0.0952000965451209 [Eh]
	 SCS Opposite-Spin Energy  =      -1.2011410077276661 [Eh]
	 SCS Correlation Energy    =      -1.2963411042727870 [Eh]
	 SCS Total Energy          =    -288.9506449260930481 [Eh]
	-----------------------------------------------------------

  Dipole Moment: [D]
     X:     1.3019      Y:     0.3272      Z:     0.6301     Total:     1.4829

*** Psi4 exiting successfully. Buy a developer a beer!
