                               Psi4 1.4a3.dev225

  ==> Input File <==

--------------------------------------------------------------------------
#psi4
#
memory 32 gb

molecule  {
1 1
  O       -1.7781010     0.0481890    -0.8899830
  N        0.7082630     0.0057180    -0.1922720
  C       -0.2685380    -0.7093740     0.7027740
  C        0.9538210     1.4204460     0.2306060
  C        1.9887930    -0.7552220    -0.3346960
  C       -1.6515690    -0.1051770     0.5221950
  H        0.2279220     0.0414410    -1.1066860
  H       -0.2728820    -1.7522560     0.3793240
  H        0.0946000    -0.6468560     1.7315660
  H        1.3625390     1.4139280     1.2413360
  H        1.6134380     1.9194080    -0.4789651
  H        0.0151050     1.9693480     0.1947690
  H        2.4631220    -0.8193040     0.6447500
  H        1.7659200    -1.7521810    -0.7136960
  H        2.6362400    -0.2249370    -1.0326780
  H       -2.3916570    -0.7986900     0.9363150
  H       -1.7508380     0.8532310     1.0447820
  H       -2.6851960     0.3180950    -1.1185210
units angstrom
no_reorient  #important for SAPT in psi4, default
symmetry c1  #important for SAPT in psi4, default
}

set PROPERTIES_ORIGIN ["COM"]
properties('MP2/aug-cc-pvtz', properties = ['dipole'])
--------------------------------------------------------------------------

    Molecular point group: c1
  Charge       = 1
  Multiplicity = 1
  Basis Set: AUG-CC-PVTZ
    Blend: AUG-CC-PVTZ
  Basis Set: (AUG-CC-PVTZ AUX)
    Blend: AUG-CC-PVTZ-JKFIT

    Orbital Energies [Eh]
    ---------------------

    Doubly Occupied:

       1A    -20.733077     2A    -15.856773     3A    -11.457289
       4A    -11.454039     5A    -11.449305     6A    -11.448741
       7A     -1.539574     8A     -1.487061     9A     -1.206464
      10A     -1.166168    11A     -1.092674    12A     -1.024958
      13A     -0.920522    14A     -0.876981    15A     -0.852535
      16A     -0.837466    17A     -0.791546    18A     -0.760031
      19A     -0.745323    20A     -0.738731    21A     -0.721285
      22A     -0.718318    23A     -0.712388    24A     -0.673889
      25A     -0.624289

  @DF-RHF Final Energy:  -287.65881398542626

   => Energetics <=

    Nuclear Repulsion Energy =            278.4657985183814617
    One-Electron Energy =                -932.4703658702622988
    Two-Electron Energy =                 366.3457533664545736
    Total Energy =                       -287.6588139854262636
  Basis Set: (AUG-CC-PVTZ AUX)
    Blend: AUG-CC-PVTZ-RI
    Molecular point group: c1

    Geometry (in Angstrom), charge = 1, multiplicity = 1:

       Center              X                  Y                   Z               Mass
    ------------   -----------------  -----------------  -----------------  -----------------
         O           -1.743134149904     0.052803953341    -0.870655175475    15.994914619570
         N            0.743229850096     0.010332953341    -0.172944175475    14.003074004430
         C           -0.233571149904    -0.704759046659     0.722101824525    12.000000000000
         C            0.988787850096     1.425060953341     0.249933824525    12.000000000000
         C            2.023759850096    -0.750607046659    -0.315368175475    12.000000000000
         C           -1.616602149904    -0.100562046659     0.541522824525    12.000000000000
         H            0.262888850096     0.046055953341    -1.087358175475     1.007825032230
         H           -0.237915149904    -1.747641046659     0.398651824525     1.007825032230
         H            0.129566850096    -0.642241046659     1.750893824525     1.007825032230
         H            1.397505850096     1.418542953341     1.260663824525     1.007825032230
         H            1.648404850096     1.924022953341    -0.459637275475     1.007825032230
         H            0.050071850096     1.973962953341     0.214096824525     1.007825032230
         H            2.498088850096    -0.814689046659     0.664077824525     1.007825032230
         H            1.800886850096    -1.747566046659    -0.694368175475     1.007825032230
         H            2.671206850096    -0.220322046659    -1.013350175475     1.007825032230
         H           -2.356690149904    -0.794075046659     0.955642824525     1.007825032230
         H           -1.715871149904     0.857845953341     1.064109824525     1.007825032230
         H           -2.650229149904     0.322709953341    -1.099193175475     1.007825032230

  Basis Set: AUG-CC-PVTZ
    Blend: AUG-CC-PVTZ
  Basis Set: (AUG-CC-PVTZ AUX)
    Blend: AUG-CC-PVTZ-JKFIT
	 Reference Energy          =    -287.6588139854262636 [Eh]
	 Singles Energy            =      -0.0000000000000000 [Eh]
	 Same-Spin Energy          =      -0.2850195641687373 [Eh]
	 Opposite-Spin Energy      =      -0.9994032225684616 [Eh]
	 Correlation Energy        =      -1.2844227867371989 [Eh]
	 Total Energy              =    -288.9432367721634591 [Eh]

	 ================> DF-SCS-MP2 Energies <==================
	-----------------------------------------------------------
	 SCS Same-Spin Scale       =       0.3333333333333333 [-]
	 SCS Opposite-Spin Scale   =       1.2000000000000000 [-]
	 SCS Same-Spin Energy      =      -0.0950065213895791 [Eh]
	 SCS Opposite-Spin Energy  =      -1.1992838670821540 [Eh]
	 SCS Correlation Energy    =      -1.2942903884717329 [Eh]
	 SCS Total Energy          =    -288.9531043738979861 [Eh]
	-----------------------------------------------------------

  Dipole Moment: [D]
     X:     1.3501      Y:     0.3308      Z:     0.6453     Total:     1.5325

*** Psi4 exiting successfully. Buy a developer a beer!
