                               Psi4 1.4a3.dev225

  ==> Input File <==

--------------------------------------------------------------------------
#psi4
#
memory 32 gb

molecule  {
1 1
  O       -1.7781010     0.0481890    -0.8899830
  N        0.7082630     0.0057180    -0.1922720
  C       -0.2685380    -0.7093740     0.7027740
  C        0.9538210     1.4204460     0.2306060
  C        1.9887930    -0.7552220    -0.3346960
  C       -1.6693141    -0.0836686     0.3241483
  H        0.2279220     0.0414410    -1.1066860
  H       -0.2728820    -1.7522560     0.3793240
  H        0.0946000    -0.6468560     1.7315660
  H        1.3625390     1.4139280     1.2413360
  H        1.6670510     1.8686130    -0.4607680
  H        0.0151050     1.9693480     0.1947690
  H        2.4631220    -0.8193040     0.6447500
  H        1.7659200    -1.7521810    -0.7136960
  H        2.6362400    -0.2249370    -1.0326780
  H       -2.3916570    -0.7986900     0.9363150
  H       -1.7508380     0.8532310     1.0447820
  H       -2.6851960     0.3180950    -1.1185210
units angstrom
no_reorient  #important for SAPT in psi4, default
symmetry c1  #important for SAPT in psi4, default
}

set PROPERTIES_ORIGIN ["COM"]
properties('MP2/aug-cc-pvtz', properties = ['dipole'])
--------------------------------------------------------------------------

    Molecular point group: c1
  Charge       = 1
  Multiplicity = 1
  Basis Set: AUG-CC-PVTZ
    Blend: AUG-CC-PVTZ
  Basis Set: (AUG-CC-PVTZ AUX)
    Blend: AUG-CC-PVTZ-JKFIT

    Orbital Energies [Eh]
    ---------------------

    Doubly Occupied:

       1A    -20.755983     2A    -15.853569     3A    -11.463699
       4A    -11.452653     5A    -11.447447     6A    -11.447177
       7A     -1.639377     8A     -1.490114     9A     -1.192028
      10A     -1.164202    11A     -1.084605    12A     -1.031303
      13A     -0.928057    14A     -0.908279    15A     -0.866787
      16A     -0.839629    17A     -0.810272    18A     -0.790610
      19A     -0.754683    20A     -0.743437    21A     -0.723845
      22A     -0.721216    23A     -0.717911    24A     -0.631173
      25A     -0.581048

  @DF-RHF Final Energy:  -287.61349411141305

   => Energetics <=

    Nuclear Repulsion Energy =            280.7946952686427835
    One-Electron Energy =                -936.7381621995756404
    Two-Electron Energy =                 368.3299728195197531
    Total Energy =                       -287.6134941114130470
  Basis Set: (AUG-CC-PVTZ AUX)
    Blend: AUG-CC-PVTZ-RI
    Molecular point group: c1

    Geometry (in Angstrom), charge = 1, multiplicity = 1:

       Center              X                  Y                   Z               Mass
    ------------   -----------------  -----------------  -----------------  -----------------
         O           -1.741370298815     0.050507316765    -0.844479446084    15.994914619570
         N            0.744993701185     0.008036316765    -0.146768446084    14.003074004430
         C           -0.231807298815    -0.707055683235     0.748277553916    12.000000000000
         C            0.990551701185     1.422764316765     0.276109553916    12.000000000000
         C            2.025523701185    -0.752903683235    -0.289192446084    12.000000000000
         C           -1.632583398815    -0.081350283235     0.369651853916    12.000000000000
         H            0.264652701185     0.043759316765    -1.061182446084     1.007825032230
         H           -0.236151298815    -1.749937683235     0.424827553916     1.007825032230
         H            0.131330701185    -0.644537683235     1.777069553916     1.007825032230
         H            1.399269701185     1.416246316765     1.286839553916     1.007825032230
         H            1.703781701185     1.870931316765    -0.415264446084     1.007825032230
         H            0.051835701185     1.971666316765     0.240272553916     1.007825032230
         H            2.499852701185    -0.816985683235     0.690253553916     1.007825032230
         H            1.802650701185    -1.749862683235    -0.668192446084     1.007825032230
         H            2.672970701185    -0.222618683235    -0.987174446084     1.007825032230
         H           -2.354926298815    -0.796371683235     0.981818553916     1.007825032230
         H           -1.714107298815     0.855549316765     1.090285553916     1.007825032230
         H           -2.648465298815     0.320413316765    -1.073017446084     1.007825032230

  Basis Set: AUG-CC-PVTZ
    Blend: AUG-CC-PVTZ
  Basis Set: (AUG-CC-PVTZ AUX)
    Blend: AUG-CC-PVTZ-JKFIT
	 Reference Energy          =    -287.6134941114130470 [Eh]
	 Singles Energy            =      -0.0000000000000000 [Eh]
	 Same-Spin Energy          =      -0.2860310085052472 [Eh]
	 Opposite-Spin Energy      =      -0.9989233271425850 [Eh]
	 Correlation Energy        =      -1.2849543356478321 [Eh]
	 Total Energy              =    -288.8984484470609004 [Eh]

	 ================> DF-SCS-MP2 Energies <==================
	-----------------------------------------------------------
	 SCS Same-Spin Scale       =       0.3333333333333333 [-]
	 SCS Opposite-Spin Scale   =       1.2000000000000000 [-]
	 SCS Same-Spin Energy      =      -0.0953436695017491 [Eh]
	 SCS Opposite-Spin Energy  =      -1.1987079925711019 [Eh]
	 SCS Correlation Energy    =      -1.2940516620728510 [Eh]
	 SCS Total Energy          =    -288.9075457734858787 [Eh]
	-----------------------------------------------------------

  Dipole Moment: [D]
     X:     1.1850      Y:     0.3581      Z:     0.0016     Total:     1.2380

*** Psi4 exiting successfully. Buy a developer a beer!
