                               Psi4 1.4a3.dev225

  ==> Input File <==

--------------------------------------------------------------------------
#psi4
#
memory 32 gb

molecule  {
1 1
  O       -1.7781010     0.0481890    -0.8899830
  N        0.7039410     0.0027860    -0.2178604
  C       -0.2685380    -0.7093740     0.7027740
  C        0.9538210     1.4204460     0.2306060
  C        1.9887930    -0.7552220    -0.3346960
  C       -1.6515690    -0.1051770     0.5221950
  H        0.2279220     0.0414410    -1.1066860
  H       -0.2728820    -1.7522560     0.3793240
  H        0.0946000    -0.6468560     1.7315660
  H        1.3625390     1.4139280     1.2413360
  H        1.6670510     1.8686130    -0.4607680
  H        0.0151050     1.9693480     0.1947690
  H        2.4631220    -0.8193040     0.6447500
  H        1.7659200    -1.7521810    -0.7136960
  H        2.6362400    -0.2249370    -1.0326780
  H       -2.3916570    -0.7986900     0.9363150
  H       -1.7508380     0.8532310     1.0447820
  H       -2.6851960     0.3180950    -1.1185210
units angstrom
no_reorient  #important for SAPT in psi4, default
symmetry c1  #important for SAPT in psi4, default
}

set PROPERTIES_ORIGIN ["COM"]
properties('MP2/aug-cc-pvtz', properties = ['dipole'])
--------------------------------------------------------------------------

    Molecular point group: c1
  Charge       = 1
  Multiplicity = 1
  Basis Set: AUG-CC-PVTZ
    Blend: AUG-CC-PVTZ
  Basis Set: (AUG-CC-PVTZ AUX)
    Blend: AUG-CC-PVTZ-JKFIT

    Orbital Energies [Eh]
    ---------------------

    Doubly Occupied:

       1A    -20.732920     2A    -15.854783     3A    -11.457787
       4A    -11.454055     5A    -11.449895     6A    -11.449358
       7A     -1.539464     8A     -1.485960     9A     -1.205529
      10A     -1.164298    11A     -1.095945    12A     -1.026558
      13A     -0.918215    14A     -0.877151    15A     -0.853038
      16A     -0.836481    17A     -0.791702    18A     -0.758380
      19A     -0.746687    20A     -0.738823    21A     -0.724502
      22A     -0.721805    23A     -0.709169    24A     -0.673626
      25A     -0.624114

  @DF-RHF Final Energy:  -287.65911846839094

   => Energetics <=

    Nuclear Repulsion Energy =            278.3760470485096334
    One-Electron Energy =                -932.2898438070794782
    Two-Electron Energy =                 366.2546782901788447
    Total Energy =                       -287.6591184683909432
  Basis Set: (AUG-CC-PVTZ AUX)
    Blend: AUG-CC-PVTZ-RI
    Molecular point group: c1

    Geometry (in Angstrom), charge = 1, multiplicity = 1:

       Center              X                  Y                   Z               Mass
    ------------   -----------------  -----------------  -----------------  -----------------
         O           -1.743062126079     0.053827902184    -0.866881508726    15.994914619570
         N            0.738979873921     0.008424902184    -0.194758908726    14.003074004430
         C           -0.233499126079    -0.703735097816     0.725875491274    12.000000000000
         C            0.988859873921     1.426084902184     0.253707491274    12.000000000000
         C            2.023831873921    -0.749583097816    -0.311594508726    12.000000000000
         C           -1.616530126079    -0.099538097816     0.545296491274    12.000000000000
         H            0.262960873921     0.047079902184    -1.083584508726     1.007825032230
         H           -0.237843126079    -1.746617097816     0.402425491274     1.007825032230
         H            0.129638873921    -0.641217097816     1.754667491274     1.007825032230
         H            1.397577873921     1.419566902184     1.264437491274     1.007825032230
         H            1.702089873921     1.874251902184    -0.437666508726     1.007825032230
         H            0.050143873921     1.974986902184     0.217870491274     1.007825032230
         H            2.498160873921    -0.813665097816     0.667851491274     1.007825032230
         H            1.800958873921    -1.746542097816    -0.690594508726     1.007825032230
         H            2.671278873921    -0.219298097816    -1.009576508726     1.007825032230
         H           -2.356618126079    -0.793051097816     0.959416491274     1.007825032230
         H           -1.715799126079     0.858869902184     1.067883491274     1.007825032230
         H           -2.650157126079     0.323733902184    -1.095419508726     1.007825032230

  Basis Set: AUG-CC-PVTZ
    Blend: AUG-CC-PVTZ
  Basis Set: (AUG-CC-PVTZ AUX)
    Blend: AUG-CC-PVTZ-JKFIT
	 Reference Energy          =    -287.6591184683909432 [Eh]
	 Singles Energy            =      -0.0000000000000000 [Eh]
	 Same-Spin Energy          =      -0.2847363347321444 [Eh]
	 Opposite-Spin Energy      =      -0.9991323155462088 [Eh]
	 Correlation Energy        =      -1.2838686502783534 [Eh]
	 Total Energy              =    -288.9429871186692935 [Eh]

	 ================> DF-SCS-MP2 Energies <==================
	-----------------------------------------------------------
	 SCS Same-Spin Scale       =       0.3333333333333333 [-]
	 SCS Opposite-Spin Scale   =       1.2000000000000000 [-]
	 SCS Same-Spin Energy      =      -0.0949121115773815 [Eh]
	 SCS Opposite-Spin Energy  =      -1.1989587786554505 [Eh]
	 SCS Correlation Energy    =      -1.2938708902328320 [Eh]
	 SCS Total Energy          =    -288.9529893586237677 [Eh]
	-----------------------------------------------------------

  Dipole Moment: [D]
     X:     1.3817      Y:     0.3150      Z:     0.7098     Total:     1.5849

*** Psi4 exiting successfully. Buy a developer a beer!
