                               Psi4 1.4a3.dev225

  ==> Input File <==

--------------------------------------------------------------------------
#psi4
#
memory 32 gb

molecule  {
1 1
  O       -1.7781010     0.0481890    -0.8899830
  N        0.7129751     0.0084182    -0.1667270
  C       -0.2685380    -0.7093740     0.7027740
  C        0.9538210     1.4204460     0.2306060
  C        1.9887930    -0.7552220    -0.3346960
  C       -1.6515690    -0.1051770     0.5221950
  H        0.2279220     0.0414410    -1.1066860
  H       -0.2728820    -1.7522560     0.3793240
  H        0.0946000    -0.6468560     1.7315660
  H        1.3625390     1.4139280     1.2413360
  H        1.6670510     1.8686130    -0.4607680
  H        0.0151050     1.9693480     0.1947690
  H        2.4631220    -0.8193040     0.6447500
  H        1.7659200    -1.7521810    -0.7136960
  H        2.6362400    -0.2249370    -1.0326780
  H       -2.3916570    -0.7986900     0.9363150
  H       -1.7508380     0.8532310     1.0447820
  H       -2.6851960     0.3180950    -1.1185210
units angstrom
no_reorient  #important for SAPT in psi4, default
symmetry c1  #important for SAPT in psi4, default
}

set PROPERTIES_ORIGIN ["COM"]
properties('MP2/aug-cc-pvtz', properties = ['dipole'])
--------------------------------------------------------------------------

    Molecular point group: c1
  Charge       = 1
  Multiplicity = 1
  Basis Set: AUG-CC-PVTZ
    Blend: AUG-CC-PVTZ
  Basis Set: (AUG-CC-PVTZ AUX)
    Blend: AUG-CC-PVTZ-JKFIT

    Orbital Energies [Eh]
    ---------------------

    Doubly Occupied:

       1A    -20.733361     2A    -15.857562     3A    -11.456390
       4A    -11.454307     5A    -11.449770     6A    -11.448395
       7A     -1.539802     8A     -1.488346     9A     -1.207830
      10A     -1.167755    11A     -1.090652    12A     -1.022924
      13A     -0.919996    14A     -0.877175    15A     -0.854114
      16A     -0.838064    17A     -0.792410    18A     -0.757067
      19A     -0.745696    20A     -0.740242    21A     -0.725796
      22A     -0.716640    23A     -0.709186    24A     -0.674495
      25A     -0.624595

  @DF-RHF Final Energy:  -287.65784394319479

   => Energetics <=

    Nuclear Repulsion Energy =            278.6401420750377156
    One-Electron Energy =                -932.8108311663461336
    Two-Electron Energy =                 366.5128451481136267
    Total Energy =                       -287.6578439431947913
  Basis Set: (AUG-CC-PVTZ AUX)
    Blend: AUG-CC-PVTZ-RI
    Molecular point group: c1

    Geometry (in Angstrom), charge = 1, multiplicity = 1:

       Center              X                  Y                   Z               Mass
    ------------   -----------------  -----------------  -----------------  -----------------
         O           -1.744466305437     0.052952483605    -0.874829225131    15.994914619570
         N            0.746609794563     0.013181683605    -0.151573225131    14.003074004430
         C           -0.234903305437    -0.704610516395     0.717927774869    12.000000000000
         C            0.987455694563     1.425209483605     0.245759774869    12.000000000000
         C            2.022427694563    -0.750458516395    -0.319542225131    12.000000000000
         C           -1.617934305437    -0.100413516395     0.537348774869    12.000000000000
         H            0.261556694563     0.046204483605    -1.091532225131     1.007825032230
         H           -0.239247305437    -1.747492516395     0.394477774869     1.007825032230
         H            0.128234694563    -0.642092516395     1.746719774869     1.007825032230
         H            1.396173694563     1.418691483605     1.256489774869     1.007825032230
         H            1.700685694563     1.873376483605    -0.445614225131     1.007825032230
         H            0.048739694563     1.974111483605     0.209922774869     1.007825032230
         H            2.496756694563    -0.814540516395     0.659903774869     1.007825032230
         H            1.799554694563    -1.747417516395    -0.698542225131     1.007825032230
         H            2.669874694563    -0.220173516395    -1.017524225131     1.007825032230
         H           -2.358022305437    -0.793926516395     0.951468774869     1.007825032230
         H           -1.717203305437     0.857994483605     1.059935774869     1.007825032230
         H           -2.651561305437     0.322858483605    -1.103367225131     1.007825032230

  Basis Set: AUG-CC-PVTZ
    Blend: AUG-CC-PVTZ
  Basis Set: (AUG-CC-PVTZ AUX)
    Blend: AUG-CC-PVTZ-JKFIT
	 Reference Energy          =    -287.6578439431947913 [Eh]
	 Singles Energy            =      -0.0000000000000000 [Eh]
	 Same-Spin Energy          =      -0.2853331510156741 [Eh]
	 Opposite-Spin Energy      =      -0.9998035189450325 [Eh]
	 Correlation Energy        =      -1.2851366699607065 [Eh]
	 Total Energy              =    -288.9429806131554983 [Eh]

	 ================> DF-SCS-MP2 Energies <==================
	-----------------------------------------------------------
	 SCS Same-Spin Scale       =       0.3333333333333333 [-]
	 SCS Opposite-Spin Scale   =       1.2000000000000000 [-]
	 SCS Same-Spin Energy      =      -0.0951110503385580 [Eh]
	 SCS Opposite-Spin Energy  =      -1.1997642227340390 [Eh]
	 SCS Correlation Energy    =      -1.2948752730725970 [Eh]
	 SCS Total Energy          =    -288.9527192162673828 [Eh]
	-----------------------------------------------------------

  Dipole Moment: [D]
     X:     1.3551      Y:     0.3023      Z:     0.6157     Total:     1.5188

*** Psi4 exiting successfully. Buy a developer a beer!
