                               Psi4 1.4a3.dev225

  ==> Input File <==

--------------------------------------------------------------------------
#psi4
#
memory 32 gb

molecule  {
1 1
  O       -1.7781010     0.0481890    -0.8899830
  N        0.7082630     0.0057180    -0.1922720
  C       -0.2685380    -0.7093740     0.7027740
  C        0.9538210     1.4204460     0.2306060
  C        1.9032162    -0.7043690    -0.3251779
  C       -1.6515690    -0.1051770     0.5221950
  H        0.2279220     0.0414410    -1.1066860
  H       -0.2728820    -1.7522560     0.3793240
  H        0.0946000    -0.6468560     1.7315660
  H        1.3625390     1.4139280     1.2413360
  H        1.6670510     1.8686130    -0.4607680
  H        0.0151050     1.9693480     0.1947690
  H        2.4631220    -0.8193040     0.6447500
  H        1.7659200    -1.7521810    -0.7136960
  H        2.6362400    -0.2249370    -1.0326780
  H       -2.3916570    -0.7986900     0.9363150
  H       -1.7508380     0.8532310     1.0447820
  H       -2.6851960     0.3180950    -1.1185210
units angstrom
no_reorient  #important for SAPT in psi4, default
symmetry c1  #important for SAPT in psi4, default
}

set PROPERTIES_ORIGIN ["COM"]
properties('MP2/aug-cc-pvtz', properties = ['dipole'])
--------------------------------------------------------------------------

    Molecular point group: c1
  Charge       = 1
  Multiplicity = 1
  Basis Set: AUG-CC-PVTZ
    Blend: AUG-CC-PVTZ
  Basis Set: (AUG-CC-PVTZ AUX)
    Blend: AUG-CC-PVTZ-JKFIT

    Orbital Energies [Eh]
    ---------------------

    Doubly Occupied:

       1A    -20.735093     2A    -15.860419     3A    -11.459799
       4A    -11.456190     5A    -11.451936     6A    -11.448006
       7A     -1.544969     8A     -1.508521     9A     -1.212558
      10A     -1.171478    11A     -1.089263    12A     -1.030688
      13A     -0.928573    14A     -0.882760    15A     -0.861727
      16A     -0.844964    17A     -0.799713    18A     -0.758517
      19A     -0.743190    20A     -0.734904    21A     -0.721719
      22A     -0.714530    23A     -0.699325    24A     -0.672390
      25A     -0.626315

  @DF-RHF Final Energy:  -287.64944581936766

   => Energetics <=

    Nuclear Repulsion Energy =            280.3509850821105260
    One-Electron Energy =                -936.0857667366676651
    Two-Electron Energy =                 368.0853358351894258
    Total Energy =                       -287.6494458193676564
  Basis Set: (AUG-CC-PVTZ AUX)
    Blend: AUG-CC-PVTZ-RI
    Molecular point group: c1

    Geometry (in Angstrom), charge = 1, multiplicity = 1:

       Center              X                  Y                   Z               Mass
    ------------   -----------------  -----------------  -----------------  -----------------
         O           -1.732335296786     0.046598694092    -0.872126525386    15.994914619570
         N            0.754028703214     0.004127694092    -0.174415525386    14.003074004430
         C           -0.222772296786    -0.710964305908     0.720630474614    12.000000000000
         C            0.999586703214     1.418855694092     0.248462474614    12.000000000000
         C            1.948981903214    -0.705959305908    -0.307321425386    12.000000000000
         C           -1.605803296786    -0.106767305908     0.540051474614    12.000000000000
         H            0.273687703214     0.039850694092    -1.088829525386     1.007825032230
         H           -0.227116296786    -1.753846305908     0.397180474614     1.007825032230
         H            0.140365703214    -0.648446305908     1.749422474614     1.007825032230
         H            1.408304703214     1.412337694092     1.259192474614     1.007825032230
         H            1.712816703214     1.867022694092    -0.442911525386     1.007825032230
         H            0.060870703214     1.967757694092     0.212625474614     1.007825032230
         H            2.508887703214    -0.820894305908     0.662606474614     1.007825032230
         H            1.811685703214    -1.753771305908    -0.695839525386     1.007825032230
         H            2.682005703214    -0.226527305908    -1.014821525386     1.007825032230
         H           -2.345891296786    -0.800280305908     0.954171474614     1.007825032230
         H           -1.705072296786     0.851640694092     1.062638474614     1.007825032230
         H           -2.639430296786     0.316504694092    -1.100664525386     1.007825032230

  Basis Set: AUG-CC-PVTZ
    Blend: AUG-CC-PVTZ
  Basis Set: (AUG-CC-PVTZ AUX)
    Blend: AUG-CC-PVTZ-JKFIT
	 Reference Energy          =    -287.6494458193676564 [Eh]
	 Singles Energy            =      -0.0000000000000000 [Eh]
	 Same-Spin Energy          =      -0.2859980454687336 [Eh]
	 Opposite-Spin Energy      =      -0.9998608366300982 [Eh]
	 Correlation Energy        =      -1.2858588820988319 [Eh]
	 Total Energy              =    -288.9353047014664639 [Eh]

	 ================> DF-SCS-MP2 Energies <==================
	-----------------------------------------------------------
	 SCS Same-Spin Scale       =       0.3333333333333333 [-]
	 SCS Opposite-Spin Scale   =       1.2000000000000000 [-]
	 SCS Same-Spin Energy      =      -0.0953326818229112 [Eh]
	 SCS Opposite-Spin Energy  =      -1.1998330039561178 [Eh]
	 SCS Correlation Energy    =      -1.2951656857790290 [Eh]
	 SCS Total Energy          =    -288.9446115051466677 [Eh]
	-----------------------------------------------------------

  Dipole Moment: [D]
     X:     1.2415      Y:     0.3761      Z:     0.6901     Total:     1.4694

*** Psi4 exiting successfully. Buy a developer a beer!
