                               Psi4 1.4a3.dev225

  ==> Input File <==

--------------------------------------------------------------------------
#psi4
#
memory 32 gb

molecule  {
1 1
  O       -1.7781010     0.0481890    -0.8899830
  N        0.7082630     0.0057180    -0.1922720
  C       -0.2685380    -0.7093740     0.7027740
  C        0.9538210     1.4204460     0.2306060
  C        1.9887930    -0.7552220    -0.3346960
  C       -1.6426964    -0.1159312     0.6212184
  H        0.2279220     0.0414410    -1.1066860
  H       -0.2728820    -1.7522560     0.3793240
  H        0.0946000    -0.6468560     1.7315660
  H        1.3625390     1.4139280     1.2413360
  H        1.6670510     1.8686130    -0.4607680
  H        0.0151050     1.9693480     0.1947690
  H        2.4631220    -0.8193040     0.6447500
  H        1.7659200    -1.7521810    -0.7136960
  H        2.6362400    -0.2249370    -1.0326780
  H       -2.3916570    -0.7986900     0.9363150
  H       -1.7508380     0.8532310     1.0447820
  H       -2.6851960     0.3180950    -1.1185210
units angstrom
no_reorient  #important for SAPT in psi4, default
symmetry c1  #important for SAPT in psi4, default
}

set PROPERTIES_ORIGIN ["COM"]
properties('MP2/aug-cc-pvtz', properties = ['dipole'])
--------------------------------------------------------------------------

    Molecular point group: c1
  Charge       = 1
  Multiplicity = 1
  Basis Set: AUG-CC-PVTZ
    Blend: AUG-CC-PVTZ
  Basis Set: (AUG-CC-PVTZ AUX)
    Blend: AUG-CC-PVTZ-JKFIT

    Orbital Energies [Eh]
    ---------------------

    Doubly Occupied:

       1A    -20.722681     2A    -15.857929     3A    -11.459858
       4A    -11.455358     5A    -11.450651     6A    -11.450005
       7A     -1.513473     8A     -1.478750     9A     -1.214507
      10A     -1.167000    11A     -1.097476    12A     -1.027731
      13A     -0.918915    14A     -0.873538    15A     -0.841137
      16A     -0.840225    17A     -0.794140    18A     -0.757350
      19A     -0.739716    20A     -0.735843    21A     -0.726300
      22A     -0.713594    23A     -0.704813    24A     -0.678294
      25A     -0.631791

  @DF-RHF Final Energy:  -287.64976500511830

   => Energetics <=

    Nuclear Repulsion Energy =            277.5224601893703493
    One-Electron Energy =                -930.6423060880808862
    Two-Electron Energy =                 365.4700808935922396
    Total Energy =                       -287.6497650051182973
  Basis Set: (AUG-CC-PVTZ AUX)
    Blend: AUG-CC-PVTZ-RI
    Molecular point group: c1

    Geometry (in Angstrom), charge = 1, multiplicity = 1:

       Center              X                  Y                   Z               Mass
    ------------   -----------------  -----------------  -----------------  -----------------
         O           -1.744915705660     0.054804609277    -0.884048393290    15.994914619570
         N            0.741448294340     0.012333609277    -0.186337393290    14.003074004430
         C           -0.235352705660    -0.702758390723     0.708708606710    12.000000000000
         C            0.987006294340     1.427061609277     0.236540606710    12.000000000000
         C            2.021978294340    -0.748606390723    -0.328761393290    12.000000000000
         C           -1.609511105660    -0.109315590723     0.627153006710    12.000000000000
         H            0.261107294340     0.048056609277    -1.100751393290     1.007825032230
         H           -0.239696705660    -1.745640390723     0.385258606710     1.007825032230
         H            0.127785294340    -0.640240390723     1.737500606710     1.007825032230
         H            1.395724294340     1.420543609277     1.247270606710     1.007825032230
         H            1.700236294340     1.875228609277    -0.454833393290     1.007825032230
         H            0.048290294340     1.975963609277     0.200703606710     1.007825032230
         H            2.496307294340    -0.812688390723     0.650684606710     1.007825032230
         H            1.799105294340    -1.745565390723    -0.707761393290     1.007825032230
         H            2.669425294340    -0.218321390723    -1.026743393290     1.007825032230
         H           -2.358471705660    -0.792074390723     0.942249606710     1.007825032230
         H           -1.717652705660     0.859846609277     1.050716606710     1.007825032230
         H           -2.652010705660     0.324710609277    -1.112586393290     1.007825032230

  Basis Set: AUG-CC-PVTZ
    Blend: AUG-CC-PVTZ
  Basis Set: (AUG-CC-PVTZ AUX)
    Blend: AUG-CC-PVTZ-JKFIT
	 Reference Energy          =    -287.6497650051182973 [Eh]
	 Singles Energy            =      -0.0000000000000000 [Eh]
	 Same-Spin Energy          =      -0.2853351220751366 [Eh]
	 Opposite-Spin Energy      =      -1.0013060938710643 [Eh]
	 Correlation Energy        =      -1.2866412159462008 [Eh]
	 Total Energy              =    -288.9364062210644875 [Eh]

	 ================> DF-SCS-MP2 Energies <==================
	-----------------------------------------------------------
	 SCS Same-Spin Scale       =       0.3333333333333333 [-]
	 SCS Opposite-Spin Scale   =       1.2000000000000000 [-]
	 SCS Same-Spin Energy      =      -0.0951117073583788 [Eh]
	 SCS Opposite-Spin Energy  =      -1.2015673126452771 [Eh]
	 SCS Correlation Energy    =      -1.2966790200036560 [Eh]
	 SCS Total Energy          =    -288.9464440251219344 [Eh]
	-----------------------------------------------------------

  Dipole Moment: [D]
     X:     1.4609      Y:     0.2866      Z:     0.8857     Total:     1.7323

*** Psi4 exiting successfully. Buy a developer a beer!
