                               Psi4 1.4a3.dev225

  ==> Input File <==

--------------------------------------------------------------------------
#psi4
#
memory 32 gb

molecule  {
1 1
  O       -1.7781010     0.0481890    -0.8899830
  N        0.7082630     0.0057180    -0.1922720
  C       -0.2685380    -0.7093740     0.7027740
  C        0.9538210     1.4204460     0.2306060
  C        1.9887930    -0.7552220    -0.3346960
  C       -1.6515690    -0.1051770     0.5221950
  H        0.2279220     0.0414410    -1.1066860
  H       -0.2728820    -1.7522560     0.3793240
  H        0.0946000    -0.6468560     1.7315660
  H        1.3625390     1.4139280     1.2413360
  H        1.6670510     1.8686130    -0.4607680
  H        0.0151050     1.9693480     0.1947690
  H        2.4631220    -0.8193040     0.6447500
  H        1.7618291    -1.7704804    -0.7206526
  H        2.6362400    -0.2249370    -1.0326780
  H       -2.3916570    -0.7986900     0.9363150
  H       -1.7508380     0.8532310     1.0447820
  H       -2.6851960     0.3180950    -1.1185210
units angstrom
no_reorient  #important for SAPT in psi4, default
symmetry c1  #important for SAPT in psi4, default
}

set PROPERTIES_ORIGIN ["COM"]
properties('MP2/aug-cc-pvtz', properties = ['dipole'])
--------------------------------------------------------------------------

    Molecular point group: c1
  Charge       = 1
  Multiplicity = 1
  Basis Set: AUG-CC-PVTZ
    Blend: AUG-CC-PVTZ
  Basis Set: (AUG-CC-PVTZ AUX)
    Blend: AUG-CC-PVTZ-JKFIT

    Orbital Energies [Eh]
    ---------------------

    Doubly Occupied:

       1A    -20.733121     2A    -15.856346     3A    -11.456987
       4A    -11.454148     5A    -11.451620     6A    -11.449186
       7A     -1.539614     8A     -1.487075     9A     -1.206510
      10A     -1.164944    11A     -1.092368    12A     -1.024907
      13A     -0.918512    14A     -0.877074    15A     -0.852981
      16A     -0.836850    17A     -0.791935    18A     -0.757667
      19A     -0.745643    20A     -0.738831    21A     -0.723333
      22A     -0.717199    23A     -0.711170    24A     -0.674108
      25A     -0.624342

  @DF-RHF Final Energy:  -287.65880858827313

   => Energetics <=

    Nuclear Repulsion Energy =            278.4284021725390517
    One-Electron Energy =                -932.4014819333477817
    Two-Electron Energy =                 366.3142711725356548
    Total Energy =                       -287.6588085882731320
  Basis Set: (AUG-CC-PVTZ AUX)
    Blend: AUG-CC-PVTZ-RI
    Molecular point group: c1

    Geometry (in Angstrom), charge = 1, multiplicity = 1:

       Center              X                  Y                   Z               Mass
    ------------   -----------------  -----------------  -----------------  -----------------
         O           -1.743688135535     0.053576887138    -0.870780918840    15.994914619570
         N            0.742675864465     0.011105887138    -0.173069918840    14.003074004430
         C           -0.234125135535    -0.703986112862     0.721976081160    12.000000000000
         C            0.988233864465     1.425833887138     0.249808081160    12.000000000000
         C            2.023205864465    -0.749834112862    -0.315493918840    12.000000000000
         C           -1.617156135535    -0.099789112862     0.541397081160    12.000000000000
         H            0.262334864465     0.046828887138    -1.087483918840     1.007825032230
         H           -0.238469135535    -1.746868112862     0.398526081160     1.007825032230
         H            0.129012864465    -0.641468112862     1.750768081160     1.007825032230
         H            1.396951864465     1.419315887138     1.260538081160     1.007825032230
         H            1.701463864465     1.874000887138    -0.441565918840     1.007825032230
         H            0.049517864465     1.974735887138     0.213971081160     1.007825032230
         H            2.497534864465    -0.813916112862     0.663952081160     1.007825032230
         H            1.796241964465    -1.765092512862    -0.701450518840     1.007825032230
         H            2.670652864465    -0.219549112862    -1.013475918840     1.007825032230
         H           -2.357244135535    -0.793302112862     0.955517081160     1.007825032230
         H           -1.716425135535     0.858618887138     1.063984081160     1.007825032230
         H           -2.650783135535     0.323482887138    -1.099318918840     1.007825032230

  Basis Set: AUG-CC-PVTZ
    Blend: AUG-CC-PVTZ
  Basis Set: (AUG-CC-PVTZ AUX)
    Blend: AUG-CC-PVTZ-JKFIT
	 Reference Energy          =    -287.6588085882731320 [Eh]
	 Singles Energy            =      -0.0000000000000000 [Eh]
	 Same-Spin Energy          =      -0.2850382624600489 [Eh]
	 Opposite-Spin Energy      =      -0.9995642762252600 [Eh]
	 Correlation Energy        =      -1.2846025386853088 [Eh]
	 Total Energy              =    -288.9434111269584378 [Eh]

	 ================> DF-SCS-MP2 Energies <==================
	-----------------------------------------------------------
	 SCS Same-Spin Scale       =       0.3333333333333333 [-]
	 SCS Opposite-Spin Scale   =       1.2000000000000000 [-]
	 SCS Same-Spin Energy      =      -0.0950127541533496 [Eh]
	 SCS Opposite-Spin Energy  =      -1.1994771314703119 [Eh]
	 SCS Correlation Energy    =      -1.2944898856236615 [Eh]
	 SCS Total Energy          =    -288.9532984738967798 [Eh]
	-----------------------------------------------------------

  Dipole Moment: [D]
     X:     1.3693      Y:     0.3083      Z:     0.6617     Total:     1.5518

*** Psi4 exiting successfully. Buy a developer a beer!
