                               Psi4 1.4a3.dev225

  ==> Input File <==

--------------------------------------------------------------------------
#psi4
#
memory 32 gb

molecule  {
1 1
  O       -1.7781010     0.0481890    -0.8899830
  N        0.7082630     0.0057180    -0.1922720
  C       -0.2685380    -0.7093740     0.7027740
  C        0.9022279     1.4286567     0.2298689
  C        1.9887930    -0.7552220    -0.3346960
  C       -1.6515690    -0.1051770     0.5221950
  H        0.2279220     0.0414410    -1.1066860
  H       -0.2728820    -1.7522560     0.3793240
  H        0.0946000    -0.6468560     1.7315660
  H        1.3625390     1.4139280     1.2413360
  H        1.6670510     1.8686130    -0.4607680
  H        0.0151050     1.9693480     0.1947690
  H        2.4631220    -0.8193040     0.6447500
  H        1.7659200    -1.7521810    -0.7136960
  H        2.6362400    -0.2249370    -1.0326780
  H       -2.3916570    -0.7986900     0.9363150
  H       -1.7508380     0.8532310     1.0447820
  H       -2.6851960     0.3180950    -1.1185210
units angstrom
no_reorient  #important for SAPT in psi4, default
symmetry c1  #important for SAPT in psi4, default
}

set PROPERTIES_ORIGIN ["COM"]
properties('MP2/aug-cc-pvtz', properties = ['dipole'])
--------------------------------------------------------------------------

    Molecular point group: c1
  Charge       = 1
  Multiplicity = 1
  Basis Set: AUG-CC-PVTZ
    Blend: AUG-CC-PVTZ
  Basis Set: (AUG-CC-PVTZ AUX)
    Blend: AUG-CC-PVTZ-JKFIT

    Orbital Energies [Eh]
    ---------------------

    Doubly Occupied:

       1A    -20.733385     2A    -15.856417     3A    -11.456516
       4A    -11.454346     5A    -11.450500     6A    -11.449572
       7A     -1.539963     8A     -1.487145     9A     -1.205880
      10A     -1.168395    11A     -1.092032    12A     -1.024656
      13A     -0.920611    14A     -0.876363    15A     -0.855778
      16A     -0.838436    17A     -0.791743    18A     -0.754380
      19A     -0.746042    20A     -0.739942    21A     -0.732728
      22A     -0.713146    23A     -0.708349    24A     -0.674155
      25A     -0.624667

  @DF-RHF Final Energy:  -287.65583644523957

   => Energetics <=

    Nuclear Repulsion Energy =            278.6729574223505210
    One-Electron Energy =                -932.8672914985063471
    Two-Electron Energy =                 366.5384976309163108
    Total Energy =                       -287.6558364452395722
  Basis Set: (AUG-CC-PVTZ AUX)
    Blend: AUG-CC-PVTZ-RI
    Molecular point group: c1

    Geometry (in Angstrom), charge = 1, multiplicity = 1:

       Center              X                  Y                   Z               Mass
    ------------   -----------------  -----------------  -----------------  -----------------
         O           -1.736861835240     0.052278535037    -0.870760560022    15.994914619570
         N            0.749502164760     0.009807535037    -0.173049560022    14.003074004430
         C           -0.227298835240    -0.705284464963     0.721996439978    12.000000000000
         C            0.943467064760     1.432746235037     0.249091339978    12.000000000000
         C            2.030032164760    -0.751132464963    -0.315473560022    12.000000000000
         C           -1.610329835240    -0.101087464963     0.541417439978    12.000000000000
         H            0.269161164760     0.045530535037    -1.087463560022     1.007825032230
         H           -0.231642835240    -1.748166464963     0.398546439978     1.007825032230
         H            0.135839164760    -0.642766464963     1.750788439978     1.007825032230
         H            1.403778164760     1.418017535037     1.260558439978     1.007825032230
         H            1.708290164760     1.872702535037    -0.441545560022     1.007825032230
         H            0.056344164760     1.973437535037     0.213991439978     1.007825032230
         H            2.504361164760    -0.815214464963     0.663972439978     1.007825032230
         H            1.807159164760    -1.748091464963    -0.694473560022     1.007825032230
         H            2.677479164760    -0.220847464963    -1.013455560022     1.007825032230
         H           -2.350417835240    -0.794600464963     0.955537439978     1.007825032230
         H           -1.709598835240     0.857320535037     1.064004439978     1.007825032230
         H           -2.643956835240     0.322184535037    -1.099298560022     1.007825032230

  Basis Set: AUG-CC-PVTZ
    Blend: AUG-CC-PVTZ
  Basis Set: (AUG-CC-PVTZ AUX)
    Blend: AUG-CC-PVTZ-JKFIT
	 Reference Energy          =    -287.6558364452395722 [Eh]
	 Singles Energy            =      -0.0000000000000000 [Eh]
	 Same-Spin Energy          =      -0.2851032945211525 [Eh]
	 Opposite-Spin Energy      =      -0.9996003715774535 [Eh]
	 Correlation Energy        =      -1.2847036660986060 [Eh]
	 Total Energy              =    -288.9405401113381799 [Eh]

	 ================> DF-SCS-MP2 Energies <==================
	-----------------------------------------------------------
	 SCS Same-Spin Scale       =       0.3333333333333333 [-]
	 SCS Opposite-Spin Scale   =       1.2000000000000000 [-]
	 SCS Same-Spin Energy      =      -0.0950344315070508 [Eh]
	 SCS Opposite-Spin Energy  =      -1.1995204458929443 [Eh]
	 SCS Correlation Energy    =      -1.2945548773999951 [Eh]
	 SCS Total Energy          =    -288.9503913226395753 [Eh]
	-----------------------------------------------------------

  Dipole Moment: [D]
     X:     1.3903      Y:     0.2929      Z:     0.6536     Total:     1.5639

*** Psi4 exiting successfully. Buy a developer a beer!
