                               Psi4 1.4a3.dev225

  ==> Input File <==

--------------------------------------------------------------------------
#psi4
#
memory 32 gb

molecule  {
1 1
  O       -1.7781010     0.0481890    -0.8899830
  N        0.7294367     0.0151202    -0.0904299
  C       -0.2685380    -0.7093740     0.7027740
  C        0.9538210     1.4204460     0.2306060
  C        1.9887930    -0.7552220    -0.3346960
  C       -1.6515690    -0.1051770     0.5221950
  H        0.2279220     0.0414410    -1.1066860
  H       -0.2728820    -1.7522560     0.3793240
  H        0.0946000    -0.6468560     1.7315660
  H        1.3625390     1.4139280     1.2413360
  H        1.6670510     1.8686130    -0.4607680
  H        0.0151050     1.9693480     0.1947690
  H        2.4631220    -0.8193040     0.6447500
  H        1.7659200    -1.7521810    -0.7136960
  H        2.6362400    -0.2249370    -1.0326780
  H       -2.3916570    -0.7986900     0.9363150
  H       -1.7508380     0.8532310     1.0447820
  H       -2.6851960     0.3180950    -1.1185210
units angstrom
no_reorient  #important for SAPT in psi4, default
symmetry c1  #important for SAPT in psi4, default
}

set PROPERTIES_ORIGIN ["COM"]
properties('MP2/aug-cc-pvtz', properties = ['dipole'])
--------------------------------------------------------------------------

    Molecular point group: c1
  Charge       = 1
  Multiplicity = 1
  Basis Set: AUG-CC-PVTZ
    Blend: AUG-CC-PVTZ
  Basis Set: (AUG-CC-PVTZ AUX)
    Blend: AUG-CC-PVTZ-JKFIT

    Orbital Energies [Eh]
    ---------------------

    Doubly Occupied:

       1A    -20.734125     2A    -15.860759     3A    -11.455240
       4A    -11.454595     5A    -11.450771     6A    -11.446839
       7A     -1.540374     8A     -1.492386     9A     -1.211625
      10A     -1.172591    11A     -1.086769    12A     -1.015249
      13A     -0.922697    14A     -0.877645    15A     -0.855890
      16A     -0.840321    17A     -0.793925    18A     -0.755523
      19A     -0.745599    20A     -0.742271    21A     -0.727397
      22A     -0.723375    23A     -0.689489    24A     -0.674333
      25A     -0.625263

  @DF-RHF Final Energy:  -287.64376107903411

   => Energetics <=

    Nuclear Repulsion Energy =            278.9560646436369780
    One-Electron Energy =                -933.4095524565713049
    Two-Electron Energy =                 366.8097267339002201
    Total Energy =                       -287.6437610790341068
  Basis Set: (AUG-CC-PVTZ AUX)
    Blend: AUG-CC-PVTZ-RI
    Molecular point group: c1

    Geometry (in Angstrom), charge = 1, multiplicity = 1:

       Center              X                  Y                   Z               Mass
    ------------   -----------------  -----------------  -----------------  -----------------
         O           -1.747024948680     0.051910784924    -0.886688161039    15.994914619570
         N            0.760512751320     0.018841984924    -0.087135061039    14.003074004430
         C           -0.237461948680    -0.705652215076     0.706068838961    12.000000000000
         C            0.984897051320     1.424167784924     0.233900838961    12.000000000000
         C            2.019869051320    -0.751500215076    -0.331401161039    12.000000000000
         C           -1.620492948680    -0.101455215076     0.525489838961    12.000000000000
         H            0.258998051320     0.045162784924    -1.103391161039     1.007825032230
         H           -0.241805948680    -1.748534215076     0.382618838961     1.007825032230
         H            0.125676051320    -0.643134215076     1.734860838961     1.007825032230
         H            1.393615051320     1.417649784924     1.244630838961     1.007825032230
         H            1.698127051320     1.872334784924    -0.457473161039     1.007825032230
         H            0.046181051320     1.973069784924     0.198063838961     1.007825032230
         H            2.494198051320    -0.815582215076     0.648044838961     1.007825032230
         H            1.796996051320    -1.748459215076    -0.710401161039     1.007825032230
         H            2.667316051320    -0.221215215076    -1.029383161039     1.007825032230
         H           -2.360580948680    -0.794968215076     0.939609838961     1.007825032230
         H           -1.719761948680     0.856952784924     1.048076838961     1.007825032230
         H           -2.654119948680     0.321816784924    -1.115226161039     1.007825032230

  Basis Set: AUG-CC-PVTZ
    Blend: AUG-CC-PVTZ
  Basis Set: (AUG-CC-PVTZ AUX)
    Blend: AUG-CC-PVTZ-JKFIT
	 Reference Energy          =    -287.6437610790341068 [Eh]
	 Singles Energy            =      -0.0000000000000000 [Eh]
	 Same-Spin Energy          =      -0.2865137670559921 [Eh]
	 Opposite-Spin Energy      =      -1.0016318877637362 [Eh]
	 Correlation Energy        =      -1.2881456548197283 [Eh]
	 Total Energy              =    -288.9319067338538503 [Eh]

	 ================> DF-SCS-MP2 Energies <==================
	-----------------------------------------------------------
	 SCS Same-Spin Scale       =       0.3333333333333333 [-]
	 SCS Opposite-Spin Scale   =       1.2000000000000000 [-]
	 SCS Same-Spin Energy      =      -0.0955045890186640 [Eh]
	 SCS Opposite-Spin Energy  =      -1.2019582653164835 [Eh]
	 SCS Correlation Energy    =      -1.2974628543351476 [Eh]
	 SCS Total Energy          =    -288.9412239333692582 [Eh]
	-----------------------------------------------------------

  Dipole Moment: [D]
     X:     1.3080      Y:     0.2859      Z:     0.4814     Total:     1.4228

*** Psi4 exiting successfully. Buy a developer a beer!
