                               Psi4 1.3.2 release

  ==> Input File <==

--------------------------------------------------------------------------
#psi4
#
memory 32 gb

molecule  {
0 1
  S        0.0000000     0.0000000     0.1021140
  H        0.0000000     1.0362381    -0.7466943
  H        0.0000000    -0.9745040    -0.8169110
units angstrom
no_reorient  #important for SAPT in psi4, default
symmetry c1  #important for SAPT in psi4, default
}

set PROPERTIES_ORIGIN ["COM"]
properties('MP2/aug-cc-pvtz', properties = ['dipole'])
--------------------------------------------------------------------------

    Molecular point group: c1
  Charge       = 0
  Multiplicity = 1
  Basis Set: AUG-CC-PVTZ
    Blend: AUG-CC-PVTZ
  Basis Set: (AUG-CC-PVTZ AUX)
    Blend: AUG-CC-PVTZ-JKFIT

    Orbital Energies [Eh]
    ---------------------

    Doubly Occupied:

       1A    -91.966734     2A     -8.968876     3A     -6.650239
       4A     -6.649408     5A     -6.648180     6A     -0.980623
       7A     -0.599483     8A     -0.492990     9A     -0.385241

  @DF-RHF Final Energy:  -398.71360033457950

   => Energetics <=

    Nuclear Repulsion Energy =             12.9047829565638050
    One-Electron Energy =                -576.5532193134940826
    Two-Electron Energy =                 164.9348360223507370
    Total Energy =                       -398.7136003345794961
  Basis Set: (AUG-CC-PVTZ AUX)
    Blend: AUG-CC-PVTZ-RI
    Molecular point group: c1

    Geometry (in Angstrom), charge = 0, multiplicity = 1:

       Center              X                  Y                   Z               Mass
    ------------   -----------------  -----------------  -----------------  -----------------
         S            0.000000000000    -0.001830577899     0.052420891652    31.972071174400
         H            0.000000000000     1.034407522101    -0.796387408348     1.007825032230
         H            0.000000000000    -0.976334577899    -0.866604108348     1.007825032230

  Basis Set: AUG-CC-PVTZ
    Blend: AUG-CC-PVTZ
  Basis Set: (AUG-CC-PVTZ AUX)
    Blend: AUG-CC-PVTZ-JKFIT
	 Reference Energy          =    -398.7136003345794961 [Eh]
	 Singles Energy            =      -0.0000000000000000 [Eh]
	 Same-Spin Energy          =      -0.0517175325707541 [Eh]
	 Opposite-Spin Energy      =      -0.1816266087236566 [Eh]
	 Correlation Energy        =      -0.2333441412944106 [Eh]
	 Total Energy              =    -398.9469444758739201 [Eh]

	 ================> DF-SCS-MP2 Energies <==================
	-----------------------------------------------------------
	 SCS Same-Spin Scale       =       0.3333333333333333 [-]
	 SCS Opposite-Spin Scale   =       1.2000000000000000 [-]
	 SCS Same-Spin Energy      =      -0.0172391775235847 [Eh]
	 SCS Opposite-Spin Energy  =      -0.2179519304683879 [Eh]
	 SCS Correlation Energy    =      -0.2351911079919726 [Eh]
	 SCS Total Energy          =    -398.9487914425714621 [Eh]
	-----------------------------------------------------------

  Dipole Moment: [D]
     X:     0.0000      Y:     0.0353      Z:    -1.0100     Total:     1.0107

*** Psi4 exiting successfully. Buy a developer a beer!
