                               Psi4 1.4a3.dev225

  ==> Input File <==

--------------------------------------------------------------------------
#psi4
#
memory 32 gb

molecule  {
0 1
  S        0.0000000     0.0000000     0.1021140
  H        0.0000000     0.9599538    -0.8031891
  H        0.0000000    -0.9745040    -0.8169110
units angstrom
no_reorient  #important for SAPT in psi4, default
symmetry c1  #important for SAPT in psi4, default
}

set PROPERTIES_ORIGIN ["COM"]
properties('MP2/aug-cc-pvtz', properties = ['dipole'])
--------------------------------------------------------------------------

    Molecular point group: c1
  Charge       = 0
  Multiplicity = 1
  Basis Set: AUG-CC-PVTZ
    Blend: AUG-CC-PVTZ
  Basis Set: (AUG-CC-PVTZ AUX)
    Blend: AUG-CC-PVTZ-JKFIT

    Orbital Energies [Eh]
    ---------------------

    Doubly Occupied:

       1A    -91.965561     2A     -8.968163     3A     -6.649494
       4A     -6.648693     5A     -6.647382     6A     -0.984222
       7A     -0.594445     8A     -0.500401     9A     -0.385515

  @DF-RHF Final Energy:  -398.71389348356104

   => Energetics <=

    Nuclear Repulsion Energy =             13.0111214376583764
    One-Electron Energy =                -576.7622785722810477
    Two-Electron Energy =                 165.0372636510616360
    Total Energy =                       -398.7138934835610371
  Basis Set: (AUG-CC-PVTZ AUX)
    Blend: AUG-CC-PVTZ-RI
    Molecular point group: c1

    Geometry (in Angstrom), charge = 0, multiplicity = 1:

       Center              X                  Y                   Z               Mass
    ------------   -----------------  -----------------  -----------------  -----------------
         S            0.000000000000     0.000431451573     0.054096110571    31.972071174400
         H            0.000000000000     0.960385251573    -0.851206989429     1.007825032230
         H            0.000000000000    -0.974072548427    -0.864928889429     1.007825032230

  Basis Set: AUG-CC-PVTZ
    Blend: AUG-CC-PVTZ
  Basis Set: (AUG-CC-PVTZ AUX)
    Blend: AUG-CC-PVTZ-JKFIT
	 Reference Energy          =    -398.7138934835610371 [Eh]
	 Singles Energy            =      -0.0000000000000000 [Eh]
	 Same-Spin Energy          =      -0.0519072221836642 [Eh]
	 Opposite-Spin Energy      =      -0.1818454156390514 [Eh]
	 Correlation Energy        =      -0.2337526378227156 [Eh]
	 Total Energy              =    -398.9476461213837410 [Eh]

	 ================> DF-SCS-MP2 Energies <==================
	-----------------------------------------------------------
	 SCS Same-Spin Scale       =       0.3333333333333333 [-]
	 SCS Opposite-Spin Scale   =       1.2000000000000000 [-]
	 SCS Same-Spin Energy      =      -0.0173024073945547 [Eh]
	 SCS Opposite-Spin Energy  =      -0.2182144987668617 [Eh]
	 SCS Correlation Energy    =      -0.2355169061614164 [Eh]
	 SCS Total Energy          =    -398.9494103897224591 [Eh]
	-----------------------------------------------------------

  Dipole Moment: [D]
     X:     0.0000      Y:    -0.0017      Z:    -1.0012     Total:     1.0012

*** Psi4 exiting successfully. Buy a developer a beer!
