                               Psi4 1.3.2 release

  ==> Input File <==

--------------------------------------------------------------------------
#psi4
#
memory 32 gb

molecule  {
0 1
  S        0.0000000     0.0000000     0.1021140
  H        0.0000000     1.0059839    -0.7823415
  H        0.0000000    -0.9745040    -0.8169110
units angstrom
no_reorient  #important for SAPT in psi4, default
symmetry c1  #important for SAPT in psi4, default
}

set PROPERTIES_ORIGIN ["COM"]
properties('MP2/aug-cc-pvtz', properties = ['dipole'])
--------------------------------------------------------------------------

    Molecular point group: c1
  Charge       = 0
  Multiplicity = 1
  Basis Set: AUG-CC-PVTZ
    Blend: AUG-CC-PVTZ
  Basis Set: (AUG-CC-PVTZ AUX)
    Blend: AUG-CC-PVTZ-JKFIT

    Orbital Energies [Eh]
    ---------------------

    Doubly Occupied:

       1A    -91.966911     2A     -8.969017     3A     -6.650348
       4A     -6.649539     5A     -6.648288     6A     -0.980997
       7A     -0.595542     8A     -0.496316     9A     -0.385328

  @DF-RHF Final Energy:  -398.71387274782916

   => Energetics <=

    Nuclear Repulsion Energy =             12.9089225115529089
    One-Electron Energy =                -576.5610183631964674
    Two-Electron Energy =                 164.9382231038144369
    Total Energy =                       -398.7138727478291571
  Basis Set: (AUG-CC-PVTZ AUX)
    Blend: AUG-CC-PVTZ-RI
    Molecular point group: c1

    Geometry (in Angstrom), charge = 0, multiplicity = 1:

       Center              X                  Y                   Z               Mass
    ------------   -----------------  -----------------  -----------------  -----------------
         S            0.000000000000    -0.000933461558     0.053477924579    31.972071174400
         H            0.000000000000     1.005050438442    -0.830977575421     1.007825032230
         H            0.000000000000    -0.975437461558    -0.865547075421     1.007825032230

  Basis Set: AUG-CC-PVTZ
    Blend: AUG-CC-PVTZ
  Basis Set: (AUG-CC-PVTZ AUX)
    Blend: AUG-CC-PVTZ-JKFIT
	 Reference Energy          =    -398.7138727478291571 [Eh]
	 Singles Energy            =      -0.0000000000000000 [Eh]
	 Same-Spin Energy          =      -0.0517922616062841 [Eh]
	 Opposite-Spin Energy      =      -0.1817559851697972 [Eh]
	 Correlation Energy        =      -0.2335482467760814 [Eh]
	 Total Energy              =    -398.9474209946052383 [Eh]

	 ================> DF-SCS-MP2 Energies <==================
	-----------------------------------------------------------
	 SCS Same-Spin Scale       =       0.3333333333333333 [-]
	 SCS Opposite-Spin Scale   =       1.2000000000000000 [-]
	 SCS Same-Spin Energy      =      -0.0172640872020947 [Eh]
	 SCS Opposite-Spin Energy  =      -0.2181071822037567 [Eh]
	 SCS Correlation Energy    =      -0.2353712694058514 [Eh]
	 SCS Total Energy          =    -398.9492440172350030 [Eh]
	-----------------------------------------------------------

  Dipole Moment: [D]
     X:    -0.0000      Y:     0.0176      Z:    -1.0059     Total:     1.0060

*** Psi4 exiting successfully. Buy a developer a beer!
