                               Psi4 1.3.2 release

  ==> Input File <==

--------------------------------------------------------------------------
#psi4
#
memory 32 gb

molecule  {
0 1
  S        0.0000000     0.0000000     0.1021140
  H        0.0000000     0.9418368    -0.8503609
  H        0.0000000    -0.9745040    -0.8169110
units angstrom
no_reorient  #important for SAPT in psi4, default
symmetry c1  #important for SAPT in psi4, default
}

set PROPERTIES_ORIGIN ["COM"]
properties('MP2/aug-cc-pvtz', properties = ['dipole'])
--------------------------------------------------------------------------

    Molecular point group: c1
  Charge       = 0
  Multiplicity = 1
  Basis Set: AUG-CC-PVTZ
    Blend: AUG-CC-PVTZ
  Basis Set: (AUG-CC-PVTZ AUX)
    Blend: AUG-CC-PVTZ-JKFIT

    Orbital Energies [Eh]
    ---------------------

    Doubly Occupied:

       1A    -91.967240     2A     -8.969288     3A     -6.650554
       4A     -6.649796     5A     -6.648492     6A     -0.981869
       7A     -0.587254     8A     -0.502998     9A     -0.385511

  @DF-RHF Final Energy:  -398.71368924478350

   => Energetics <=

    Nuclear Repulsion Energy =             12.9178654349800102
    One-Electron Energy =                -576.5771058019525981
    Two-Electron Energy =                 164.9455511221890163
    Total Energy =                       -398.7136892447834953
  Basis Set: (AUG-CC-PVTZ AUX)
    Blend: AUG-CC-PVTZ-RI
    Molecular point group: c1

    Geometry (in Angstrom), charge = 0, multiplicity = 1:

       Center              X                  Y                   Z               Mass
    ------------   -----------------  -----------------  -----------------  -----------------
         S            0.000000000000     0.000968668116     0.055494878100    31.972071174400
         H            0.000000000000     0.942805468116    -0.896980021900     1.007825032230
         H            0.000000000000    -0.973535331884    -0.863530121900     1.007825032230

  Basis Set: AUG-CC-PVTZ
    Blend: AUG-CC-PVTZ
  Basis Set: (AUG-CC-PVTZ AUX)
    Blend: AUG-CC-PVTZ-JKFIT
	 Reference Energy          =    -398.7136892447834953 [Eh]
	 Singles Energy            =      -0.0000000000000000 [Eh]
	 Same-Spin Energy          =      -0.0519828636161981 [Eh]
	 Opposite-Spin Energy      =      -0.1820726868666739 [Eh]
	 Correlation Energy        =      -0.2340555504828721 [Eh]
	 Total Energy              =    -398.9477447952663738 [Eh]

	 ================> DF-SCS-MP2 Energies <==================
	-----------------------------------------------------------
	 SCS Same-Spin Scale       =       0.3333333333333333 [-]
	 SCS Opposite-Spin Scale   =       1.2000000000000000 [-]
	 SCS Same-Spin Energy      =      -0.0173276212053994 [Eh]
	 SCS Opposite-Spin Energy  =      -0.2184872242400087 [Eh]
	 SCS Correlation Energy    =      -0.2358148454454081 [Eh]
	 SCS Total Energy          =    -398.9495040902289134 [Eh]
	-----------------------------------------------------------

  Dipole Moment: [D]
     X:    -0.0000      Y:    -0.0174      Z:    -0.9973     Total:     0.9975

*** Psi4 exiting successfully. Buy a developer a beer!
