                               Psi4 1.3.2 release

  ==> Input File <==

--------------------------------------------------------------------------
#psi4
#
memory 32 gb

molecule  {
0 1
  S        0.0000000     0.0000000     0.1021140
  H        0.0000000     0.9017528    -0.7483015
  H        0.0000000    -0.9745040    -0.8169110
units angstrom
no_reorient  #important for SAPT in psi4, default
symmetry c1  #important for SAPT in psi4, default
}

set PROPERTIES_ORIGIN ["COM"]
properties('MP2/aug-cc-pvtz', properties = ['dipole'])
--------------------------------------------------------------------------

    Molecular point group: c1
  Charge       = 0
  Multiplicity = 1
  Basis Set: AUG-CC-PVTZ
    Blend: AUG-CC-PVTZ
  Basis Set: (AUG-CC-PVTZ AUX)
    Blend: AUG-CC-PVTZ-JKFIT

    Orbital Energies [Eh]
    ---------------------

    Doubly Occupied:

       1A    -91.959029     2A     -8.964130     3A     -6.645691
       4A     -6.644624     5A     -6.643197     6A     -0.997098
       7A     -0.606656     8A     -0.502895     9A     -0.386029

  @DF-RHF Final Energy:  -398.70880772363967

   => Energetics <=

    Nuclear Repulsion Energy =             13.4335721268595822
    One-Electron Energy =                -577.5860631338224493
    Two-Electron Energy =                 165.4436832833232529
    Total Energy =                       -398.7088077236396657
  Basis Set: (AUG-CC-PVTZ AUX)
    Blend: AUG-CC-PVTZ-RI
    Molecular point group: c1

    Geometry (in Angstrom), charge = 0, multiplicity = 1:

       Center              X                  Y                   Z               Mass
    ------------   -----------------  -----------------  -----------------  -----------------
         S            0.000000000000     0.002157263794     0.052468549345    31.972071174400
         H            0.000000000000     0.903910063794    -0.797946950655     1.007825032230
         H            0.000000000000    -0.972346736206    -0.866556450655     1.007825032230

  Basis Set: AUG-CC-PVTZ
    Blend: AUG-CC-PVTZ
  Basis Set: (AUG-CC-PVTZ AUX)
    Blend: AUG-CC-PVTZ-JKFIT
	 Reference Energy          =    -398.7088077236396657 [Eh]
	 Singles Energy            =      -0.0000000000000000 [Eh]
	 Same-Spin Energy          =      -0.0520333835301618 [Eh]
	 Opposite-Spin Energy      =      -0.1817447021566032 [Eh]
	 Correlation Energy        =      -0.2337780856867650 [Eh]
	 Total Energy              =    -398.9425858093264310 [Eh]

	 ================> DF-SCS-MP2 Energies <==================
	-----------------------------------------------------------
	 SCS Same-Spin Scale       =       0.3333333333333333 [-]
	 SCS Opposite-Spin Scale   =       1.2000000000000000 [-]
	 SCS Same-Spin Energy      =      -0.0173444611767206 [Eh]
	 SCS Opposite-Spin Energy  =      -0.2180936425879239 [Eh]
	 SCS Correlation Energy    =      -0.2354381037646444 [Eh]
	 SCS Total Energy          =    -398.9442458274043020 [Eh]
	-----------------------------------------------------------

  Dipole Moment: [D]
     X:     0.0000      Y:    -0.0089      Z:    -0.9996     Total:     0.9996

*** Psi4 exiting successfully. Buy a developer a beer!
