                               Psi4 1.3.2 release

  ==> Input File <==

--------------------------------------------------------------------------
#psi4
#
memory 32 gb

molecule  {
0 1
  S        0.0000000     0.0000000     0.1021140
  H        0.0000000     1.1200065    -0.9541299
  H        0.0000000    -0.9745040    -0.8169110
units angstrom
no_reorient  #important for SAPT in psi4, default
symmetry c1  #important for SAPT in psi4, default
}

set PROPERTIES_ORIGIN ["COM"]
properties('MP2/aug-cc-pvtz', properties = ['dipole'])
--------------------------------------------------------------------------

    Molecular point group: c1
  Charge       = 0
  Multiplicity = 1
  Basis Set: AUG-CC-PVTZ
    Blend: AUG-CC-PVTZ
  Basis Set: (AUG-CC-PVTZ AUX)
    Blend: AUG-CC-PVTZ-JKFIT

    Orbital Energies [Eh]
    ---------------------

    Doubly Occupied:

       1A    -91.980180     2A     -8.978497     3A     -6.659570
       4A     -6.658727     5A     -6.657650     6A     -0.960815
       7A     -0.565818     8A     -0.488222     9A     -0.385187

  @DF-RHF Final Energy:  -398.69691070994361

   => Energetics <=

    Nuclear Repulsion Energy =             12.0727174823734504
    One-Electron Energy =                -574.8699273589152199
    Two-Electron Energy =                 164.1002991665981199
    Total Energy =                       -398.6969107099436087
  Basis Set: (AUG-CC-PVTZ AUX)
    Blend: AUG-CC-PVTZ-RI
    Molecular point group: c1

    Geometry (in Angstrom), charge = 0, multiplicity = 1:

       Center              X                  Y                   Z               Mass
    ------------   -----------------  -----------------  -----------------  -----------------
         S            0.000000000000    -0.004314530554     0.058571900976    31.972071174400
         H            0.000000000000     1.115691969446    -0.997671999024     1.007825032230
         H            0.000000000000    -0.978818530554    -0.860453099024     1.007825032230

  Basis Set: AUG-CC-PVTZ
    Blend: AUG-CC-PVTZ
  Basis Set: (AUG-CC-PVTZ AUX)
    Blend: AUG-CC-PVTZ-JKFIT
	 Reference Energy          =    -398.6969107099436087 [Eh]
	 Singles Energy            =      -0.0000000000000000 [Eh]
	 Same-Spin Energy          =      -0.0516907466791153 [Eh]
	 Opposite-Spin Energy      =      -0.1831763320249319 [Eh]
	 Correlation Energy        =      -0.2348670787040472 [Eh]
	 Total Energy              =    -398.9317777886476506 [Eh]

	 ================> DF-SCS-MP2 Energies <==================
	-----------------------------------------------------------
	 SCS Same-Spin Scale       =       0.3333333333333333 [-]
	 SCS Opposite-Spin Scale   =       1.2000000000000000 [-]
	 SCS Same-Spin Energy      =      -0.0172302488930384 [Eh]
	 SCS Opposite-Spin Energy  =      -0.2198115984299183 [Eh]
	 SCS Correlation Energy    =      -0.2370418473229567 [Eh]
	 SCS Total Energy          =    -398.9339525572665934 [Eh]
	-----------------------------------------------------------

  Dipole Moment: [D]
     X:     0.0000      Y:     0.0144      Z:    -1.0052     Total:     1.0053

*** Psi4 exiting successfully. Buy a developer a beer!
