                               Psi4 1.3.2 release

  ==> Input File <==

--------------------------------------------------------------------------
#psi4
#
memory 32 gb

molecule  {
0 1
  S        0.0000000     0.0000000     0.1021140
  H        0.0000000     0.8731013    -0.9137399
  H        0.0000000    -0.9745040    -0.8169110
units angstrom
no_reorient  #important for SAPT in psi4, default
symmetry c1  #important for SAPT in psi4, default
}

set PROPERTIES_ORIGIN ["COM"]
properties('MP2/aug-cc-pvtz', properties = ['dipole'])
--------------------------------------------------------------------------

    Molecular point group: c1
  Charge       = 0
  Multiplicity = 1
  Basis Set: AUG-CC-PVTZ
    Blend: AUG-CC-PVTZ
  Basis Set: (AUG-CC-PVTZ AUX)
    Blend: AUG-CC-PVTZ-JKFIT

    Orbital Energies [Eh]
    ---------------------

    Doubly Occupied:

       1A    -91.967523     2A     -8.969536     3A     -6.650731
       4A     -6.650039     5A     -6.648671     6A     -0.982939
       7A     -0.578418     8A     -0.509750     9A     -0.385704

  @DF-RHF Final Energy:  -398.71251696098358

   => Energetics <=

    Nuclear Repulsion Energy =             12.9277879863468996
    One-Electron Energy =                -576.5939876777024438
    Two-Electron Energy =                 164.9536827303719804
    Total Energy =                       -398.7125169609836348
  Basis Set: (AUG-CC-PVTZ AUX)
    Blend: AUG-CC-PVTZ-RI
    Molecular point group: c1

    Geometry (in Angstrom), charge = 0, multiplicity = 1:

       Center              X                  Y                   Z               Mass
    ------------   -----------------  -----------------  -----------------  -----------------
         S            0.000000000000     0.003006855878     0.057374231595    31.972071174400
         H            0.000000000000     0.876108155878    -0.958479668405     1.007825032230
         H            0.000000000000    -0.971497144122    -0.861650768405     1.007825032230

  Basis Set: AUG-CC-PVTZ
    Blend: AUG-CC-PVTZ
  Basis Set: (AUG-CC-PVTZ AUX)
    Blend: AUG-CC-PVTZ-JKFIT
	 Reference Energy          =    -398.7125169609835780 [Eh]
	 Singles Energy            =      -0.0000000000000000 [Eh]
	 Same-Spin Energy          =      -0.0522293613386274 [Eh]
	 Opposite-Spin Energy      =      -0.1824633246545995 [Eh]
	 Correlation Energy        =      -0.2346926859932268 [Eh]
	 Total Energy              =    -398.9472096469768303 [Eh]

	 ================> DF-SCS-MP2 Energies <==================
	-----------------------------------------------------------
	 SCS Same-Spin Scale       =       0.3333333333333333 [-]
	 SCS Opposite-Spin Scale   =       1.2000000000000000 [-]
	 SCS Same-Spin Energy      =      -0.0174097871128758 [Eh]
	 SCS Opposite-Spin Energy  =      -0.2189559895855193 [Eh]
	 SCS Correlation Energy    =      -0.2363657766983951 [Eh]
	 SCS Total Energy          =    -398.9488827376819700 [Eh]
	-----------------------------------------------------------

  Dipole Moment: [D]
     X:     0.0000      Y:    -0.0518      Z:    -0.9891     Total:     0.9904

*** Psi4 exiting successfully. Buy a developer a beer!
