                               Psi4 1.4a3.dev225

  ==> Input File <==

--------------------------------------------------------------------------
#psi4
#
memory 32 gb

molecule  {
0 1
  S        0.0000000     0.0000000     0.1021140
  H        0.0000000     0.9890542    -0.8306329
  H        0.0000000    -0.9745040    -0.8169110
units angstrom
no_reorient  #important for SAPT in psi4, default
symmetry c1  #important for SAPT in psi4, default
}

set PROPERTIES_ORIGIN ["COM"]
properties('MP2/aug-cc-pvtz', properties = ['dipole'])
--------------------------------------------------------------------------

    Molecular point group: c1
  Charge       = 0
  Multiplicity = 1
  Basis Set: AUG-CC-PVTZ
    Blend: AUG-CC-PVTZ
  Basis Set: (AUG-CC-PVTZ AUX)
    Blend: AUG-CC-PVTZ-JKFIT

    Orbital Energies [Eh]
    ---------------------

    Doubly Occupied:

       1A    -91.968557     2A     -8.970139     3A     -6.651410
       4A     -6.650630     5A     -6.649387     6A     -0.978752
       7A     -0.588536     8A     -0.498840     9A     -0.385335

  @DF-RHF Final Energy:  -398.71350179577746

   => Energetics <=

    Nuclear Repulsion Energy =             12.8182725090642577
    One-Electron Energy =                -576.3803769601418026
    Two-Electron Energy =                 164.8486026553000841
    Total Energy =                       -398.7135017957774608
  Basis Set: (AUG-CC-PVTZ AUX)
    Blend: AUG-CC-PVTZ-RI
    Molecular point group: c1

    Geometry (in Angstrom), charge = 0, multiplicity = 1:

       Center              X                  Y                   Z               Mass
    ------------   -----------------  -----------------  -----------------  -----------------
         S            0.000000000000    -0.000431451573     0.054909891183    31.972071174400
         H            0.000000000000     0.988622748427    -0.877837008817     1.007825032230
         H            0.000000000000    -0.974935451573    -0.864115108817     1.007825032230

  Basis Set: AUG-CC-PVTZ
    Blend: AUG-CC-PVTZ
  Basis Set: (AUG-CC-PVTZ AUX)
    Blend: AUG-CC-PVTZ-JKFIT
	 Reference Energy          =    -398.7135017957774608 [Eh]
	 Singles Energy            =      -0.0000000000000000 [Eh]
	 Same-Spin Energy          =      -0.0518559207470025 [Eh]
	 Opposite-Spin Energy      =      -0.1819775318030093 [Eh]
	 Correlation Energy        =      -0.2338334525500118 [Eh]
	 Total Energy              =    -398.9473352483274766 [Eh]

	 ================> DF-SCS-MP2 Energies <==================
	-----------------------------------------------------------
	 SCS Same-Spin Scale       =       0.3333333333333333 [-]
	 SCS Opposite-Spin Scale   =       1.2000000000000000 [-]
	 SCS Same-Spin Energy      =      -0.0172853069156675 [Eh]
	 SCS Opposite-Spin Energy  =      -0.2183730381636111 [Eh]
	 SCS Correlation Energy    =      -0.2356583450792787 [Eh]
	 SCS Total Energy          =    -398.9491601408567476 [Eh]
	-----------------------------------------------------------

  Dipole Moment: [D]
     X:    -0.0000      Y:     0.0016      Z:    -1.0020     Total:     1.0020

*** Psi4 exiting successfully. Buy a developer a beer!
