                               Psi4 1.4a3.dev225

  ==> Input File <==

--------------------------------------------------------------------------
#psi4
#
memory 32 gb

molecule  {
0 1
  S        0.0000000     0.0000000     0.1021140
  H        0.0000000     1.0108796    -0.8512157
  H        0.0000000    -0.9745040    -0.8169110
units angstrom
no_reorient  #important for SAPT in psi4, default
symmetry c1  #important for SAPT in psi4, default
}

set PROPERTIES_ORIGIN ["COM"]
properties('MP2/aug-cc-pvtz', properties = ['dipole'])
--------------------------------------------------------------------------

    Molecular point group: c1
  Charge       = 0
  Multiplicity = 1
  Basis Set: AUG-CC-PVTZ
    Blend: AUG-CC-PVTZ
  Basis Set: (AUG-CC-PVTZ AUX)
    Blend: AUG-CC-PVTZ-JKFIT

    Orbital Energies [Eh]
    ---------------------

    Doubly Occupied:

       1A    -91.970696     2A     -8.971596     3A     -6.652831
       4A     -6.652046     5A     -6.650850     6A     -0.975039
       7A     -0.584254     8A     -0.497505     9A     -0.385236

  @DF-RHF Final Energy:  -398.71221385066127

   => Energetics <=

    Nuclear Repulsion Energy =             12.6808134960504830
    One-Electron Energy =                -576.1059482603626520
    Two-Electron Energy =                 164.7129209136508905
    Total Energy =                       -398.7122138506612146
  Basis Set: (AUG-CC-PVTZ AUX)
    Blend: AUG-CC-PVTZ-RI
    Molecular point group: c1

    Geometry (in Angstrom), charge = 0, multiplicity = 1:

       Center              X                  Y                   Z               Mass
    ------------   -----------------  -----------------  -----------------  -----------------
         S            0.000000000000    -0.001078631897     0.055520225160    31.972071174400
         H            0.000000000000     1.009800968103    -0.897809474840     1.007825032230
         H            0.000000000000    -0.975582631897    -0.863504774840     1.007825032230

  Basis Set: AUG-CC-PVTZ
    Blend: AUG-CC-PVTZ
  Basis Set: (AUG-CC-PVTZ AUX)
    Blend: AUG-CC-PVTZ-JKFIT
	 Reference Energy          =    -398.7122138506612714 [Eh]
	 Singles Energy            =      -0.0000000000000000 [Eh]
	 Same-Spin Energy          =      -0.0518219740065778 [Eh]
	 Opposite-Spin Energy      =      -0.1821109319864859 [Eh]
	 Correlation Energy        =      -0.2339329059930637 [Eh]
	 Total Energy              =    -398.9461467566543433 [Eh]

	 ================> DF-SCS-MP2 Energies <==================
	-----------------------------------------------------------
	 SCS Same-Spin Scale       =       0.3333333333333333 [-]
	 SCS Opposite-Spin Scale   =       1.2000000000000000 [-]
	 SCS Same-Spin Energy      =      -0.0172739913355259 [Eh]
	 SCS Opposite-Spin Energy  =      -0.2185331183837831 [Eh]
	 SCS Correlation Energy    =      -0.2358071097193090 [Eh]
	 SCS Total Energy          =    -398.9480209603805747 [Eh]
	-----------------------------------------------------------

  Dipole Moment: [D]
     X:    -0.0000      Y:     0.0040      Z:    -1.0026     Total:     1.0026

*** Psi4 exiting successfully. Buy a developer a beer!
