                               Psi4 1.3.2 release

  ==> Input File <==

--------------------------------------------------------------------------
#psi4
#
memory 32 gb

molecule  {
0 1
  S        0.0000000     0.0000000     0.1021140
  H        0.0000000     1.0652298    -0.7100131
  H        0.0000000    -0.9745040    -0.8169110
units angstrom
no_reorient  #important for SAPT in psi4, default
symmetry c1  #important for SAPT in psi4, default
}

set PROPERTIES_ORIGIN ["COM"]
properties('MP2/aug-cc-pvtz', properties = ['dipole'])
--------------------------------------------------------------------------

    Molecular point group: c1
  Charge       = 0
  Multiplicity = 1
  Basis Set: AUG-CC-PVTZ
    Blend: AUG-CC-PVTZ
  Basis Set: (AUG-CC-PVTZ AUX)
    Blend: AUG-CC-PVTZ-JKFIT

    Orbital Energies [Eh]
    ---------------------

    Doubly Occupied:

       1A    -91.966550     2A     -8.968733     3A     -6.650126
       4A     -6.649276     5A     -6.648070     6A     -0.980285
       7A     -0.603289     8A     -0.489672     9A     -0.385156

  @DF-RHF Final Energy:  -398.71308914497172

   => Energetics <=

    Nuclear Repulsion Energy =             12.9008470573288410
    One-Electron Energy =                -576.5455595156420259
    Two-Electron Energy =                 164.9316233133414471
    Total Energy =                       -398.7130891449717183
  Basis Set: (AUG-CC-PVTZ AUX)
    Blend: AUG-CC-PVTZ-RI
    Molecular point group: c1

    Geometry (in Angstrom), charge = 0, multiplicity = 1:

       Center              X                  Y                   Z               Mass
    ------------   -----------------  -----------------  -----------------  -----------------
         S            0.000000000000    -0.002690257804     0.051333197913    31.972071174400
         H            0.000000000000     1.062539542196    -0.760793902087     1.007825032230
         H            0.000000000000    -0.977194257804    -0.867691802087     1.007825032230

  Basis Set: AUG-CC-PVTZ
    Blend: AUG-CC-PVTZ
  Basis Set: (AUG-CC-PVTZ AUX)
    Blend: AUG-CC-PVTZ-JKFIT
	 Reference Energy          =    -398.7130891449717183 [Eh]
	 Singles Energy            =      -0.0000000000000000 [Eh]
	 Same-Spin Energy          =      -0.0516563019182613 [Eh]
	 Opposite-Spin Energy      =      -0.1815169792289338 [Eh]
	 Correlation Energy        =      -0.2331732811471952 [Eh]
	 Total Energy              =    -398.9462624261188921 [Eh]

	 ================> DF-SCS-MP2 Energies <==================
	-----------------------------------------------------------
	 SCS Same-Spin Scale       =       0.3333333333333333 [-]
	 SCS Opposite-Spin Scale   =       1.2000000000000000 [-]
	 SCS Same-Spin Energy      =      -0.0172187673060871 [Eh]
	 SCS Opposite-Spin Energy  =      -0.2178203750747206 [Eh]
	 SCS Correlation Energy    =      -0.2350391423808077 [Eh]
	 SCS Total Energy          =    -398.9481282873525174 [Eh]
	-----------------------------------------------------------

  Dipole Moment: [D]
     X:    -0.0000      Y:     0.0531      Z:    -1.0140     Total:     1.0154

*** Psi4 exiting successfully. Buy a developer a beer!
