                               Psi4 1.3.2 release

  ==> Input File <==

--------------------------------------------------------------------------
#psi4
#
memory 32 gb

molecule  {
0 1
  S        0.0000000     0.0000000     0.1021140
  H        0.0000000     0.9080222    -0.8826503
  H        0.0000000    -0.9745040    -0.8169110
units angstrom
no_reorient  #important for SAPT in psi4, default
symmetry c1  #important for SAPT in psi4, default
}

set PROPERTIES_ORIGIN ["COM"]
properties('MP2/aug-cc-pvtz', properties = ['dipole'])
--------------------------------------------------------------------------

    Molecular point group: c1
  Charge       = 0
  Multiplicity = 1
  Basis Set: AUG-CC-PVTZ
    Blend: AUG-CC-PVTZ
  Basis Set: (AUG-CC-PVTZ AUX)
    Blend: AUG-CC-PVTZ-JKFIT

    Orbital Energies [Eh]
    ---------------------

    Doubly Occupied:

       1A    -91.967388     2A     -8.969415     3A     -6.650646
       4A     -6.649919     5A     -6.648586     6A     -0.982377
       7A     -0.582905     8A     -0.506363     9A     -0.385607

  @DF-RHF Final Energy:  -398.71322789143164

   => Energetics <=

    Nuclear Repulsion Energy =             12.9226962807089585
    One-Electron Energy =                -576.5854346563961599
    Two-Electron Energy =                 164.9495104842555975
    Total Energy =                       -398.7132278914316430
  Basis Set: (AUG-CC-PVTZ AUX)
    Blend: AUG-CC-PVTZ-RI
    Molecular point group: c1

    Geometry (in Angstrom), charge = 0, multiplicity = 1:

       Center              X                  Y                   Z               Mass
    ------------   -----------------  -----------------  -----------------  -----------------
         S            0.000000000000     0.001971359649     0.056452343455    31.972071174400
         H            0.000000000000     0.909993559649    -0.928311956545     1.007825032230
         H            0.000000000000    -0.972532640351    -0.862572656545     1.007825032230

  Basis Set: AUG-CC-PVTZ
    Blend: AUG-CC-PVTZ
  Basis Set: (AUG-CC-PVTZ AUX)
    Blend: AUG-CC-PVTZ-JKFIT
	 Reference Energy          =    -398.7132278914316430 [Eh]
	 Singles Energy            =      -0.0000000000000000 [Eh]
	 Same-Spin Energy          =      -0.0520990417100002 [Eh]
	 Opposite-Spin Energy      =      -0.1822590664549273 [Eh]
	 Correlation Energy        =      -0.2343581081649275 [Eh]
	 Total Energy              =    -398.9475859995965834 [Eh]

	 ================> DF-SCS-MP2 Energies <==================
	-----------------------------------------------------------
	 SCS Same-Spin Scale       =       0.3333333333333333 [-]
	 SCS Opposite-Spin Scale   =       1.2000000000000000 [-]
	 SCS Same-Spin Energy      =      -0.0173663472366667 [Eh]
	 SCS Opposite-Spin Energy  =      -0.2187108797459128 [Eh]
	 SCS Correlation Energy    =      -0.2360772269825795 [Eh]
	 SCS Total Energy          =    -398.9493051184142018 [Eh]
	-----------------------------------------------------------

  Dipole Moment: [D]
     X:    -0.0000      Y:    -0.0347      Z:    -0.9931     Total:     0.9937

*** Psi4 exiting successfully. Buy a developer a beer!
