                               Psi4 1.3.2 release

  ==> Input File <==

--------------------------------------------------------------------------
#psi4
#
memory 32 gb

molecule  {
0 1
  S        0.0000000     0.0000000     0.1021140
  H        0.0000000     0.9903948    -0.7997636
  H        0.0000000    -0.9745040    -0.8169110
units angstrom
no_reorient  #important for SAPT in psi4, default
symmetry c1  #important for SAPT in psi4, default
}

set PROPERTIES_ORIGIN ["COM"]
properties('MP2/aug-cc-pvtz', properties = ['dipole'])
--------------------------------------------------------------------------

    Molecular point group: c1
  Charge       = 0
  Multiplicity = 1
  Basis Set: AUG-CC-PVTZ
    Blend: AUG-CC-PVTZ
  Basis Set: (AUG-CC-PVTZ AUX)
    Blend: AUG-CC-PVTZ-JKFIT

    Orbital Energies [Eh]
    ---------------------

    Doubly Occupied:

       1A    -91.966996     2A     -8.969087     3A     -6.650402
       4A     -6.649604     5A     -6.648341     6A     -0.981198
       7A     -0.593521     8A     -0.497981     9A     -0.385373

  @DF-RHF Final Energy:  -398.71391845128989

   => Energetics <=

    Nuclear Repulsion Energy =             12.9110729537704767
    One-Electron Energy =                -576.5649758973486314
    Two-Electron Energy =                 164.9399844922882608
    Total Energy =                       -398.7139184512898851
  Basis Set: (AUG-CC-PVTZ AUX)
    Blend: AUG-CC-PVTZ-RI
    Molecular point group: c1

    Geometry (in Angstrom), charge = 0, multiplicity = 1:

       Center              X                  Y                   Z               Mass
    ------------   -----------------  -----------------  -----------------  -----------------
         S            0.000000000000    -0.000471203877     0.053994535516    31.972071174400
         H            0.000000000000     0.989923596123    -0.847883064484     1.007825032230
         H            0.000000000000    -0.974975203877    -0.865030464484     1.007825032230

  Basis Set: AUG-CC-PVTZ
    Blend: AUG-CC-PVTZ
  Basis Set: (AUG-CC-PVTZ AUX)
    Blend: AUG-CC-PVTZ-JKFIT
	 Reference Energy          =    -398.7139184512898851 [Eh]
	 Singles Energy            =      -0.0000000000000000 [Eh]
	 Same-Spin Energy          =      -0.0518347401877824 [Eh]
	 Opposite-Spin Energy      =      -0.1818279912412432 [Eh]
	 Correlation Energy        =      -0.2336627314290256 [Eh]
	 Total Energy              =    -398.9475811827189204 [Eh]

	 ================> DF-SCS-MP2 Energies <==================
	-----------------------------------------------------------
	 SCS Same-Spin Scale       =       0.3333333333333333 [-]
	 SCS Opposite-Spin Scale   =       1.2000000000000000 [-]
	 SCS Same-Spin Energy      =      -0.0172782467292608 [Eh]
	 SCS Opposite-Spin Energy  =      -0.2181935894894918 [Eh]
	 SCS Correlation Energy    =      -0.2354718362187526 [Eh]
	 SCS Total Energy          =    -398.9493902875086633 [Eh]
	-----------------------------------------------------------

  Dipole Moment: [D]
     X:     0.0000      Y:     0.0088      Z:    -1.0038     Total:     1.0038

*** Psi4 exiting successfully. Buy a developer a beer!
