                               Psi4 1.4a3.dev225

  ==> Input File <==

--------------------------------------------------------------------------
#psi4
#
memory 32 gb

molecule  {
0 1
  S        0.0000000     0.0000000     0.1021140
  H        0.0000000     0.9381284    -0.7826063
  H        0.0000000    -0.9745040    -0.8169110
units angstrom
no_reorient  #important for SAPT in psi4, default
symmetry c1  #important for SAPT in psi4, default
}

set PROPERTIES_ORIGIN ["COM"]
properties('MP2/aug-cc-pvtz', properties = ['dipole'])
--------------------------------------------------------------------------

    Molecular point group: c1
  Charge       = 0
  Multiplicity = 1
  Basis Set: AUG-CC-PVTZ
    Blend: AUG-CC-PVTZ
  Basis Set: (AUG-CC-PVTZ AUX)
    Blend: AUG-CC-PVTZ-JKFIT

    Orbital Energies [Eh]
    ---------------------

    Doubly Occupied:

       1A    -91.963199     2A     -8.966660     3A     -6.648056
       4A     -6.647199     5A     -6.645839     6A     -0.988738
       7A     -0.598984     8A     -0.501426     9A     -0.385684

  @DF-RHF Final Energy:  -398.71301134299148

   => Energetics <=

    Nuclear Repulsion Energy =             13.1634883983870861
    One-Electron Energy =                -577.0614331532891583
    Two-Electron Energy =                 165.1849334119104924
    Total Energy =                       -398.7130113429915355
  Basis Set: (AUG-CC-PVTZ AUX)
    Blend: AUG-CC-PVTZ-RI
    Molecular point group: c1

    Geometry (in Angstrom), charge = 0, multiplicity = 1:

       Center              X                  Y                   Z               Mass
    ------------   -----------------  -----------------  -----------------  -----------------
         S            0.000000000000     0.001078631897     0.053485776594    31.972071174400
         H            0.000000000000     0.939207031897    -0.831234523406     1.007825032230
         H            0.000000000000    -0.973425368103    -0.865539223406     1.007825032230

  Basis Set: AUG-CC-PVTZ
    Blend: AUG-CC-PVTZ
  Basis Set: (AUG-CC-PVTZ AUX)
    Blend: AUG-CC-PVTZ-JKFIT
	 Reference Energy          =    -398.7130113429914786 [Eh]
	 Singles Energy            =      -0.0000000000000000 [Eh]
	 Same-Spin Energy          =      -0.0519507292474371 [Eh]
	 Opposite-Spin Energy      =      -0.1817817892336522 [Eh]
	 Correlation Energy        =      -0.2337325184810893 [Eh]
	 Total Energy              =    -398.9467438614725552 [Eh]

	 ================> DF-SCS-MP2 Energies <==================
	-----------------------------------------------------------
	 SCS Same-Spin Scale       =       0.3333333333333333 [-]
	 SCS Opposite-Spin Scale   =       1.2000000000000000 [-]
	 SCS Same-Spin Energy      =      -0.0173169097491457 [Eh]
	 SCS Opposite-Spin Energy  =      -0.2181381470803826 [Eh]
	 SCS Correlation Energy    =      -0.2354550568295283 [Eh]
	 SCS Total Energy          =    -398.9484663998210294 [Eh]
	-----------------------------------------------------------

  Dipole Moment: [D]
     X:    -0.0000      Y:    -0.0043      Z:    -1.0006     Total:     1.0006

*** Psi4 exiting successfully. Buy a developer a beer!
