                               Psi4 1.3.2 release

  ==> Input File <==

--------------------------------------------------------------------------
#psi4
#
memory 32 gb

molecule  {
0 1
  S        0.0000000     0.0000000     0.1021140
  H        0.0000000     0.8290015    -0.6796921
  H        0.0000000    -0.9745040    -0.8169110
units angstrom
no_reorient  #important for SAPT in psi4, default
symmetry c1  #important for SAPT in psi4, default
}

set PROPERTIES_ORIGIN ["COM"]
properties('MP2/aug-cc-pvtz', properties = ['dipole'])
--------------------------------------------------------------------------

    Molecular point group: c1
  Charge       = 0
  Multiplicity = 1
  Basis Set: AUG-CC-PVTZ
    Blend: AUG-CC-PVTZ
  Basis Set: (AUG-CC-PVTZ AUX)
    Blend: AUG-CC-PVTZ-JKFIT

    Orbital Energies [Eh]
    ---------------------

    Doubly Occupied:

       1A    -91.949752     2A     -8.959132     3A     -6.641320
       4A     -6.639225     5A     -6.637734     6A     -1.017145
       7A     -0.621867     8A     -0.505134     9A     -0.386954

  @DF-RHF Final Energy:  -398.68654458035161

   => Energetics <=

    Nuclear Repulsion Energy =             14.0437503395123198
    One-Electron Energy =                -578.7440626652679612
    Two-Electron Energy =                 166.0137677454039817
    Total Energy =                       -398.6865445803516081
  Basis Set: (AUG-CC-PVTZ AUX)
    Blend: AUG-CC-PVTZ-RI
    Molecular point group: c1

    Geometry (in Angstrom), charge = 0, multiplicity = 1:

       Center              X                  Y                   Z               Mass
    ------------   -----------------  -----------------  -----------------  -----------------
         S            0.000000000000     0.004314530554     0.050434100778    31.972071174400
         H            0.000000000000     0.833316030554    -0.731371999222     1.007825032230
         H            0.000000000000    -0.970189469446    -0.868590899222     1.007825032230

  Basis Set: AUG-CC-PVTZ
    Blend: AUG-CC-PVTZ
  Basis Set: (AUG-CC-PVTZ AUX)
    Blend: AUG-CC-PVTZ-JKFIT
	 Reference Energy          =    -398.6865445803516081 [Eh]
	 Singles Energy            =      -0.0000000000000000 [Eh]
	 Same-Spin Energy          =      -0.0522334195797178 [Eh]
	 Opposite-Spin Energy      =      -0.1819226688925621 [Eh]
	 Correlation Energy        =      -0.2341560884722798 [Eh]
	 Total Energy              =    -398.9207006688238835 [Eh]

	 ================> DF-SCS-MP2 Energies <==================
	-----------------------------------------------------------
	 SCS Same-Spin Scale       =       0.3333333333333333 [-]
	 SCS Opposite-Spin Scale   =       1.2000000000000000 [-]
	 SCS Same-Spin Energy      =      -0.0174111398599059 [Eh]
	 SCS Opposite-Spin Energy  =      -0.2183072026710745 [Eh]
	 SCS Correlation Energy    =      -0.2357183425309804 [Eh]
	 SCS Total Energy          =    -398.9222629228825667 [Eh]
	-----------------------------------------------------------

  Dipole Moment: [D]
     X:    -0.0000      Y:    -0.0185      Z:    -0.9982     Total:     0.9984

*** Psi4 exiting successfully. Buy a developer a beer!
