                               Psi4 1.3.2 release

  ==> Input File <==

--------------------------------------------------------------------------
#psi4
#
memory 32 gb

molecule  {
0 1
  S        0.0000000     0.0000000     0.1021140
  H        0.0000000     0.9745040    -0.8169110
  H        0.0000000    -0.9745040    -0.8169110
units angstrom
no_reorient  #important for SAPT in psi4, default
symmetry c1  #important for SAPT in psi4, default
}

set PROPERTIES_ORIGIN ["COM"]
properties('MP2/aug-cc-pvtz', properties = ['dipole'])
--------------------------------------------------------------------------

    Molecular point group: c1
  Charge       = 0
  Multiplicity = 1
  Basis Set: AUG-CC-PVTZ
    Blend: AUG-CC-PVTZ
  Basis Set: (AUG-CC-PVTZ AUX)
    Blend: AUG-CC-PVTZ-JKFIT

    Orbital Energies [Eh]
    ---------------------

    Doubly Occupied:

       1A    -91.967080     2A     -8.969155     3A     -6.650454
       4A     -6.649669     5A     -6.648393     6A     -0.981411
       7A     -0.591466     8A     -0.499650     9A     -0.385418

  @DF-RHF Final Energy:  -398.71390333163458

   => Energetics <=

    Nuclear Repulsion Energy =             12.9132791308420831
    One-Electron Energy =                -576.5689746765425525
    Two-Electron Energy =                 164.9417922140659414
    Total Energy =                       -398.7139033316345831
  Basis Set: (AUG-CC-PVTZ AUX)
    Blend: AUG-CC-PVTZ-RI
    Molecular point group: c1

    Geometry (in Angstrom), charge = 0, multiplicity = 1:

       Center              X                  Y                   Z               Mass
    ------------   -----------------  -----------------  -----------------  -----------------
         S            0.000000000000     0.000000000000     0.054503000877    31.972071174400
         H            0.000000000000     0.974504000000    -0.864521999123     1.007825032230
         H            0.000000000000    -0.974504000000    -0.864521999123     1.007825032230

  Basis Set: AUG-CC-PVTZ
    Blend: AUG-CC-PVTZ
  Basis Set: (AUG-CC-PVTZ AUX)
    Blend: AUG-CC-PVTZ-JKFIT
	 Reference Energy          =    -398.7139033316345831 [Eh]
	 Singles Energy            =      -0.0000000000000000 [Eh]
	 Same-Spin Energy          =      -0.0518806542380165 [Eh]
	 Opposite-Spin Energy      =      -0.1819048151835618 [Eh]
	 Correlation Energy        =      -0.2337854694215783 [Eh]
	 Total Energy              =    -398.9476888010561879 [Eh]

	 ================> DF-SCS-MP2 Energies <==================
	-----------------------------------------------------------
	 SCS Same-Spin Scale       =       0.3333333333333333 [-]
	 SCS Opposite-Spin Scale   =       1.2000000000000000 [-]
	 SCS Same-Spin Energy      =      -0.0172935514126722 [Eh]
	 SCS Opposite-Spin Energy  =      -0.2182857782202742 [Eh]
	 SCS Correlation Energy    =      -0.2355793296329464 [Eh]
	 SCS Total Energy          =    -398.9494826612675524 [Eh]
	-----------------------------------------------------------

  Dipole Moment: [D]
     X:     0.0000      Y:     0.0000      Z:    -1.0016     Total:     1.0016

*** Psi4 exiting successfully. Buy a developer a beer!
