                               Psi4 1.3.2 release

  ==> Input File <==

--------------------------------------------------------------------------
#psi4
#
memory 32 gb

molecule  {
0 1
  S        0.0000000     0.0000000     0.1021140
  H        0.0000000     1.0472552    -0.8855205
  H        0.0000000    -0.9745040    -0.8169110
units angstrom
no_reorient  #important for SAPT in psi4, default
symmetry c1  #important for SAPT in psi4, default
}

set PROPERTIES_ORIGIN ["COM"]
properties('MP2/aug-cc-pvtz', properties = ['dipole'])
--------------------------------------------------------------------------

    Molecular point group: c1
  Charge       = 0
  Multiplicity = 1
  Basis Set: AUG-CC-PVTZ
    Blend: AUG-CC-PVTZ
  Basis Set: (AUG-CC-PVTZ AUX)
    Blend: AUG-CC-PVTZ-JKFIT

    Orbital Energies [Eh]
    ---------------------

    Doubly Occupied:

       1A    -91.974072     2A     -8.973970     3A     -6.655154
       4A     -6.654345     5A     -6.653211     6A     -0.969539
       7A     -0.577492     8A     -0.494924     9A     -0.385137

  @DF-RHF Final Energy:  -398.70852447635599

   => Energetics <=

    Nuclear Repulsion Energy =             12.4642562464670288
    One-Electron Energy =                -575.6698759942768220
    Two-Electron Energy =                 164.4970952714538157
    Total Energy =                       -398.7085244763559899
  Basis Set: (AUG-CC-PVTZ AUX)
    Blend: AUG-CC-PVTZ-RI
    Molecular point group: c1

    Geometry (in Angstrom), charge = 0, multiplicity = 1:

       Center              X                  Y                   Z               Mass
    ------------   -----------------  -----------------  -----------------  -----------------
         S            0.000000000000    -0.002157263794     0.056537452409    31.972071174400
         H            0.000000000000     1.045097936206    -0.931097047591     1.007825032230
         H            0.000000000000    -0.976661263794    -0.862487547591     1.007825032230

  Basis Set: AUG-CC-PVTZ
    Blend: AUG-CC-PVTZ
  Basis Set: (AUG-CC-PVTZ AUX)
    Blend: AUG-CC-PVTZ-JKFIT
	 Reference Energy          =    -398.7085244763559899 [Eh]
	 Singles Energy            =      -0.0000000000000000 [Eh]
	 Same-Spin Energy          =      -0.0517725040569421 [Eh]
	 Opposite-Spin Energy      =      -0.1823952798201040 [Eh]
	 Correlation Energy        =      -0.2341677838770461 [Eh]
	 Total Energy              =    -398.9426922602330592 [Eh]

	 ================> DF-SCS-MP2 Energies <==================
	-----------------------------------------------------------
	 SCS Same-Spin Scale       =       0.3333333333333333 [-]
	 SCS Opposite-Spin Scale   =       1.2000000000000000 [-]
	 SCS Same-Spin Energy      =      -0.0172575013523140 [Eh]
	 SCS Opposite-Spin Energy  =      -0.2188743357841247 [Eh]
	 SCS Correlation Energy    =      -0.2361318371364388 [Eh]
	 SCS Total Energy          =    -398.9446563134924304 [Eh]
	-----------------------------------------------------------

  Dipole Moment: [D]
     X:     0.0000      Y:     0.0078      Z:    -1.0036     Total:     1.0036

*** Psi4 exiting successfully. Buy a developer a beer!
