                               Psi4 1.3.2 release

  ==> Input File <==

--------------------------------------------------------------------------
#psi4
#
memory 32 gb

molecule  {
0 1
  S        0.0000000     0.0000000     0.1021140
  H        0.0000000     0.9583164    -0.8337785
  H        0.0000000    -0.9745040    -0.8169110
units angstrom
no_reorient  #important for SAPT in psi4, default
symmetry c1  #important for SAPT in psi4, default
}

set PROPERTIES_ORIGIN ["COM"]
properties('MP2/aug-cc-pvtz', properties = ['dipole'])
--------------------------------------------------------------------------

    Molecular point group: c1
  Charge       = 0
  Multiplicity = 1
  Basis Set: AUG-CC-PVTZ
    Blend: AUG-CC-PVTZ
  Basis Set: (AUG-CC-PVTZ AUX)
    Blend: AUG-CC-PVTZ-JKFIT

    Orbital Energies [Eh]
    ---------------------

    Doubly Occupied:

       1A    -91.967161     2A     -8.969222     3A     -6.650504
       4A     -6.649732     5A     -6.648443     6A     -0.981634
       7A     -0.589377     8A     -0.501322     9A     -0.385465

  @DF-RHF Final Energy:  -398.71382704025018

   => Energetics <=

    Nuclear Repulsion Energy =             12.9155424715474663
    One-Electron Energy =                -576.5730166341114682
    Two-Electron Energy =                 164.9436471223138483
    Total Energy =                       -398.7138270402501234
  Basis Set: (AUG-CC-PVTZ AUX)
    Blend: AUG-CC-PVTZ-RI
    Molecular point group: c1

    Geometry (in Angstrom), charge = 0, multiplicity = 1:

       Center              X                  Y                   Z               Mass
    ------------   -----------------  -----------------  -----------------  -----------------
         S            0.000000000000     0.000480004775     0.055003166470    31.972071174400
         H            0.000000000000     0.958796404775    -0.880889333530     1.007825032230
         H            0.000000000000    -0.974023995225    -0.864021833530     1.007825032230

  Basis Set: AUG-CC-PVTZ
    Blend: AUG-CC-PVTZ
  Basis Set: (AUG-CC-PVTZ AUX)
    Blend: AUG-CC-PVTZ-JKFIT
	 Reference Energy          =    -398.7138270402501803 [Eh]
	 Singles Energy            =      -0.0000000000000000 [Eh]
	 Same-Spin Energy          =      -0.0519300224066380 [Eh]
	 Opposite-Spin Energy      =      -0.1819864015659638 [Eh]
	 Correlation Energy        =      -0.2339164239726018 [Eh]
	 Total Energy              =    -398.9477434642228104 [Eh]

	 ================> DF-SCS-MP2 Energies <==================
	-----------------------------------------------------------
	 SCS Same-Spin Scale       =       0.3333333333333333 [-]
	 SCS Opposite-Spin Scale   =       1.2000000000000000 [-]
	 SCS Same-Spin Energy      =      -0.0173100074688793 [Eh]
	 SCS Opposite-Spin Energy  =      -0.2183836818791565 [Eh]
	 SCS Correlation Energy    =      -0.2356936893480359 [Eh]
	 SCS Total Energy          =    -398.9495207295981913 [Eh]
	-----------------------------------------------------------

  Dipole Moment: [D]
     X:    -0.0000      Y:    -0.0087      Z:    -0.9995     Total:     0.9995

*** Psi4 exiting successfully. Buy a developer a beer!
