                               Psi4 1.4a3.dev225

  ==> Input File <==

--------------------------------------------------------------------------
#psi4
#
memory 32 gb

molecule  {
0 1
 Cl        1.1250940    -0.1513770    -0.0000010
  C       -0.4728250     0.6561290     0.0000080
  C       -1.5645042    -0.3221270    -0.0000065
  H       -0.5053100     1.2914100     0.8859770
  H       -0.5053080     1.2914330    -0.8859460
  H       -2.5617430     0.1699160    -0.0000010
  H       -1.5534230    -0.9915670    -0.8860440
  H       -1.5534260    -0.9915890     0.8860150
units angstrom
no_reorient  #important for SAPT in psi4, default
symmetry c1  #important for SAPT in psi4, default
}

set PROPERTIES_ORIGIN ["COM"]
properties('MP2/aug-cc-pvtz', properties = ['dipole'])
--------------------------------------------------------------------------

    Molecular point group: c1
  Charge       = 0
  Multiplicity = 1
  Basis Set: AUG-CC-PVTZ
    Blend: AUG-CC-PVTZ
  Basis Set: (AUG-CC-PVTZ AUX)
    Blend: AUG-CC-PVTZ-JKFIT

    Orbital Energies [Eh]
    ---------------------

    Doubly Occupied:

       1A   -104.820770     2A    -11.292773     3A    -11.235923
       4A    -10.545344     5A     -8.012168     6A     -8.010401
       7A     -8.010376     8A     -1.140713     9A     -1.005017
      10A     -0.839215    11A     -0.651575    12A     -0.613789
      13A     -0.570847    14A     -0.517866    15A     -0.500614
      16A     -0.433909    17A     -0.430875

  @DF-RHF Final Energy:  -538.19706569264042

   => Energetics <=

    Nuclear Repulsion Energy =            103.5563508448498311
    One-Electron Energy =                -946.2424829359467822
    Two-Electron Energy =                 304.4890663984565435
    Total Energy =                       -538.1970656926404217
  Basis Set: (AUG-CC-PVTZ AUX)
    Blend: AUG-CC-PVTZ-RI
    Molecular point group: c1

    Geometry (in Angstrom), charge = 0, multiplicity = 1:

       Center              X                  Y                   Z               Mass
    ------------   -----------------  -----------------  -----------------  -----------------
         CL           0.997550197165    -0.143411885942    -0.000000750640    34.968852682000
         C           -0.600368802835     0.664094114058     0.000008249360    12.000000000000
         C           -1.692048002835    -0.314161885942    -0.000006250640    12.000000000000
         H           -0.632853802835     1.299375114058     0.885977249360     1.007825032230
         H           -0.632851802835     1.299398114058    -0.885945750640     1.007825032230
         H           -2.689286802835     0.177881114058    -0.000000750640     1.007825032230
         H           -1.680966802835    -0.983601885942    -0.886043750640     1.007825032230
         H           -1.680969802835    -0.983623885942     0.886015249360     1.007825032230

  Basis Set: AUG-CC-PVTZ
    Blend: AUG-CC-PVTZ
  Basis Set: (AUG-CC-PVTZ AUX)
    Blend: AUG-CC-PVTZ-JKFIT
	 Reference Energy          =    -538.1970656926404217 [Eh]
	 Singles Energy            =      -0.0000000000000000 [Eh]
	 Same-Spin Energy          =      -0.1426290281854029 [Eh]
	 Opposite-Spin Energy      =      -0.4898739144126630 [Eh]
	 Correlation Energy        =      -0.6325029425980659 [Eh]
	 Total Energy              =    -538.8295686352385019 [Eh]

	 ================> DF-SCS-MP2 Energies <==================
	-----------------------------------------------------------
	 SCS Same-Spin Scale       =       0.3333333333333333 [-]
	 SCS Opposite-Spin Scale   =       1.2000000000000000 [-]
	 SCS Same-Spin Energy      =      -0.0475430093951343 [Eh]
	 SCS Opposite-Spin Energy  =      -0.5878486972951956 [Eh]
	 SCS Correlation Energy    =      -0.6353917066903300 [Eh]
	 SCS Total Energy          =    -538.8324573993307922 [Eh]
	-----------------------------------------------------------

  Dipole Moment: [D]
     X:    -1.9410      Y:     0.7655      Z:     0.0000     Total:     2.0865

*** Psi4 exiting successfully. Buy a developer a beer!
