                               Psi4 1.3.2 release

  ==> Input File <==

--------------------------------------------------------------------------
#psi4
#
memory 32 gb

molecule  {
0 1
 Cl        1.1249220    -0.1513370    -0.0000010
  C       -0.4720740     0.6553440     0.0000100
  C       -1.6020260    -0.3552140    -0.0000060
  H       -0.5050570     1.2911530     0.8855660
  H       -0.5050560     1.2911790    -0.8855330
  H       -2.5608200     0.1721130    -0.0000030
  H       -1.5540650    -0.9912420    -0.8860060
  H       -1.5540690    -0.9912620     0.8859800
units angstrom
no_reorient  #important for SAPT in psi4, default
symmetry c1  #important for SAPT in psi4, default
}

set PROPERTIES_ORIGIN ["COM"]
properties('MP2/aug-cc-pvtz', properties = ['dipole'])
--------------------------------------------------------------------------

    Molecular point group: c1
  Charge       = 0
  Multiplicity = 1
  Basis Set: AUG-CC-PVTZ
    Blend: AUG-CC-PVTZ
  Basis Set: (AUG-CC-PVTZ AUX)
    Blend: AUG-CC-PVTZ-JKFIT

    Orbital Energies [Eh]
    ---------------------

    Doubly Occupied:

       1A   -104.820692     2A    -11.294295     3A    -11.233980
       4A    -10.545219     5A     -8.012050     6A     -8.010287
       7A     -8.010265     8A     -1.136258     9A     -1.000031
      10A     -0.842146    11A     -0.648962    12A     -0.611201
      13A     -0.560004    14A     -0.528803    15A     -0.507632
      16A     -0.431289    17A     -0.430673

  @DF-RHF Final Energy:  -538.20008607855630

   => Energetics <=

    Nuclear Repulsion Energy =            102.9456871253921548
    One-Electron Energy =                -945.0439720680635673
    Two-Electron Energy =                 303.8981988641150451
    Total Energy =                       -538.2000860785562963
  Basis Set: (AUG-CC-PVTZ AUX)
    Blend: AUG-CC-PVTZ-RI
    Molecular point group: c1

    Geometry (in Angstrom), charge = 0, multiplicity = 1:

       Center              X                  Y                   Z               Mass
    ------------   -----------------  -----------------  -----------------  -----------------
         CL           1.004363578343    -0.137080342848    -0.000001266568    34.968852682000
         C           -0.592632421657     0.669600657152     0.000009733432    12.000000000000
         C           -1.722584421657    -0.340957342848    -0.000006266568    12.000000000000
         H           -0.625615421657     1.305409657152     0.885565733432     1.007825032230
         H           -0.625614421657     1.305435657152    -0.885533266568     1.007825032230
         H           -2.681378421657     0.186369657152    -0.000003266568     1.007825032230
         H           -1.674623421657    -0.976985342848    -0.886006266568     1.007825032230
         H           -1.674627421657    -0.977005342848     0.885979733432     1.007825032230

  Basis Set: AUG-CC-PVTZ
    Blend: AUG-CC-PVTZ
  Basis Set: (AUG-CC-PVTZ AUX)
    Blend: AUG-CC-PVTZ-JKFIT
	 Reference Energy          =    -538.2000860785562963 [Eh]
	 Singles Energy            =      -0.0000000000000000 [Eh]
	 Same-Spin Energy          =      -0.1422041638205941 [Eh]
	 Opposite-Spin Energy      =      -0.4894251633182521 [Eh]
	 Correlation Energy        =      -0.6316293271388462 [Eh]
	 Total Energy              =    -538.8317154056951495 [Eh]

	 ================> DF-SCS-MP2 Energies <==================
	-----------------------------------------------------------
	 SCS Same-Spin Scale       =       0.3333333333333333 [-]
	 SCS Opposite-Spin Scale   =       1.2000000000000000 [-]
	 SCS Same-Spin Energy      =      -0.0474013879401980 [Eh]
	 SCS Opposite-Spin Energy  =      -0.5873101959819025 [Eh]
	 SCS Correlation Energy    =      -0.6347115839221005 [Eh]
	 SCS Total Energy          =    -538.8347976624784224 [Eh]
	-----------------------------------------------------------

  Dipole Moment: [D]
     X:    -1.9274      Y:     0.7677      Z:     0.0000     Total:     2.0747

*** Psi4 exiting successfully. Buy a developer a beer!
