                               Psi4 1.4a3.dev225

  ==> Input File <==

--------------------------------------------------------------------------
#psi4
#
memory 32 gb

molecule  {
0 1
 Cl        1.1250940    -0.1513770    -0.0000010
  C       -0.4728250     0.6561290     0.0000080
  C       -1.5868463    -0.3421478    -0.0000068
  H       -0.5053100     1.2914100     0.8859770
  H       -0.5053080     1.2914330    -0.8859460
  H       -2.5617430     0.1699160    -0.0000010
  H       -1.5534230    -0.9915670    -0.8860440
  H       -1.5534260    -0.9915890     0.8860150
units angstrom
no_reorient  #important for SAPT in psi4, default
symmetry c1  #important for SAPT in psi4, default
}

set PROPERTIES_ORIGIN ["COM"]
properties('MP2/aug-cc-pvtz', properties = ['dipole'])
--------------------------------------------------------------------------

    Molecular point group: c1
  Charge       = 0
  Multiplicity = 1
  Basis Set: AUG-CC-PVTZ
    Blend: AUG-CC-PVTZ
  Basis Set: (AUG-CC-PVTZ AUX)
    Blend: AUG-CC-PVTZ-JKFIT

    Orbital Energies [Eh]
    ---------------------

    Doubly Occupied:

       1A   -104.820687     2A    -11.293831     3A    -11.234704
       4A    -10.545224     5A     -8.012050     6A     -8.010287
       7A     -8.010264     8A     -1.137765     9A     -1.001913
      10A     -0.841082    11A     -0.649961    12A     -0.611818
      13A     -0.564473    14A     -0.524515    15A     -0.504860
      16A     -0.432425    17A     -0.430787

  @DF-RHF Final Energy:  -538.19950812210345

   => Energetics <=

    Nuclear Repulsion Energy =            103.1728205999235684
    One-Electron Energy =                -945.4913667711749667
    Two-Electron Energy =                 304.1190380491479459
    Total Energy =                       -538.1995081221034525
  Basis Set: (AUG-CC-PVTZ AUX)
    Blend: AUG-CC-PVTZ-RI
    Molecular point group: c1

    Geometry (in Angstrom), charge = 0, multiplicity = 1:

       Center              X                  Y                   Z               Mass
    ------------   -----------------  -----------------  -----------------  -----------------
         CL           1.001738818788    -0.139658453821    -0.000000694397    34.968852682000
         C           -0.596180181212     0.667847546179     0.000008305603    12.000000000000
         C           -1.710201481212    -0.330429253821    -0.000006494397    12.000000000000
         H           -0.628665181212     1.303128546179     0.885977305603     1.007825032230
         H           -0.628663181212     1.303151546179    -0.885945694397     1.007825032230
         H           -2.685098181212     0.181634546179    -0.000000694397     1.007825032230
         H           -1.676778181212    -0.979848453821    -0.886043694397     1.007825032230
         H           -1.676781181212    -0.979870453821     0.886015305603     1.007825032230

  Basis Set: AUG-CC-PVTZ
    Blend: AUG-CC-PVTZ
  Basis Set: (AUG-CC-PVTZ AUX)
    Blend: AUG-CC-PVTZ-JKFIT
	 Reference Energy          =    -538.1995081221034525 [Eh]
	 Singles Energy            =      -0.0000000000000000 [Eh]
	 Same-Spin Energy          =      -0.1423461969200322 [Eh]
	 Opposite-Spin Energy      =      -0.4895649756673791 [Eh]
	 Correlation Energy        =      -0.6319111725874114 [Eh]
	 Total Energy              =    -538.8314192946908179 [Eh]

	 ================> DF-SCS-MP2 Energies <==================
	-----------------------------------------------------------
	 SCS Same-Spin Scale       =       0.3333333333333333 [-]
	 SCS Opposite-Spin Scale   =       1.2000000000000000 [-]
	 SCS Same-Spin Energy      =      -0.0474487323066774 [Eh]
	 SCS Opposite-Spin Energy  =      -0.5874779708008550 [Eh]
	 SCS Correlation Energy    =      -0.6349267031075324 [Eh]
	 SCS Total Energy          =    -538.8344348252110194 [Eh]
	-----------------------------------------------------------

  Dipole Moment: [D]
     X:    -1.9348      Y:     0.7670      Z:     0.0000     Total:     2.0813

*** Psi4 exiting successfully. Buy a developer a beer!
