                               Psi4 1.3.2 release

  ==> Input File <==

--------------------------------------------------------------------------
#psi4
#
memory 32 gb

molecule  {
0 1
 Cl        1.0647606    -0.2607728    -0.0000027
  C       -0.4720740     0.6553440     0.0000100
  C       -1.6020260    -0.3552140    -0.0000060
  H       -0.5050570     1.2911530     0.8855660
  H       -0.5050560     1.2911790    -0.8855330
  H       -2.5608200     0.1721130    -0.0000030
  H       -1.5540650    -0.9912420    -0.8860060
  H       -1.5540690    -0.9912620     0.8859800
units angstrom
no_reorient  #important for SAPT in psi4, default
symmetry c1  #important for SAPT in psi4, default
}

set PROPERTIES_ORIGIN ["COM"]
properties('MP2/aug-cc-pvtz', properties = ['dipole'])
--------------------------------------------------------------------------

    Molecular point group: c1
  Charge       = 0
  Multiplicity = 1
  Basis Set: AUG-CC-PVTZ
    Blend: AUG-CC-PVTZ
  Basis Set: (AUG-CC-PVTZ AUX)
    Blend: AUG-CC-PVTZ-JKFIT

    Orbital Energies [Eh]
    ---------------------

    Doubly Occupied:

       1A   -104.820659     2A    -11.294634     3A    -11.232209
       4A    -10.545245     5A     -8.012066     6A     -8.010303
       7A     -8.010286     8A     -1.137675     9A     -0.997472
      10A     -0.842998    11A     -0.649046    12A     -0.613148
      13A     -0.557125    14A     -0.526937    15A     -0.508291
      16A     -0.432325    17A     -0.429982

  @DF-RHF Final Energy:  -538.19897986198305

   => Energetics <=

    Nuclear Repulsion Energy =            103.5555888852695006
    One-Electron Energy =                -946.2683287935686849
    Two-Electron Energy =                 304.5137600463161220
    Total Energy =                       -538.1989798619831618
  Basis Set: (AUG-CC-PVTZ AUX)
    Blend: AUG-CC-PVTZ-RI
    Molecular point group: c1

    Geometry (in Angstrom), charge = 0, multiplicity = 1:

       Center              X                  Y                   Z               Mass
    ------------   -----------------  -----------------  -----------------  -----------------
         CL           0.977069567763    -0.186729152268    -0.000002037823    34.968852682000
         C           -0.559765032237     0.729387647732     0.000010662177    12.000000000000
         C           -1.689717032237    -0.281170352268    -0.000005337823    12.000000000000
         H           -0.592748032237     1.365196647732     0.885566662177     1.007825032230
         H           -0.592747032237     1.365222647732    -0.885532337823     1.007825032230
         H           -2.648511032237     0.246156647732    -0.000002337823     1.007825032230
         H           -1.641756032237    -0.917198352268    -0.886005337823     1.007825032230
         H           -1.641760032237    -0.917218352268     0.885980662177     1.007825032230

  Basis Set: AUG-CC-PVTZ
    Blend: AUG-CC-PVTZ
  Basis Set: (AUG-CC-PVTZ AUX)
    Blend: AUG-CC-PVTZ-JKFIT
	 Reference Energy          =    -538.1989798619830481 [Eh]
	 Singles Energy            =      -0.0000000000000000 [Eh]
	 Same-Spin Energy          =      -0.1423735503808333 [Eh]
	 Opposite-Spin Energy      =      -0.4896682838476636 [Eh]
	 Correlation Energy        =      -0.6320418342284969 [Eh]
	 Total Energy              =    -538.8310216962115646 [Eh]

	 ================> DF-SCS-MP2 Energies <==================
	-----------------------------------------------------------
	 SCS Same-Spin Scale       =       0.3333333333333333 [-]
	 SCS Opposite-Spin Scale   =       1.2000000000000000 [-]
	 SCS Same-Spin Energy      =      -0.0474578501269444 [Eh]
	 SCS Opposite-Spin Energy  =      -0.5876019406171963 [Eh]
	 SCS Correlation Energy    =      -0.6350597907441408 [Eh]
	 SCS Total Energy          =    -538.8340396527271423 [Eh]
	-----------------------------------------------------------

  Dipole Moment: [D]
     X:    -1.8504      Y:     0.8652      Z:     0.0000     Total:     2.0427

*** Psi4 exiting successfully. Buy a developer a beer!
