                               Psi4 1.3.2 release

  ==> Input File <==

--------------------------------------------------------------------------
#psi4
#
memory 32 gb

molecule  {
0 1
 Cl        1.0318524    -0.3138495    -0.0000035
  C       -0.4720740     0.6553440     0.0000100
  C       -1.6020260    -0.3552140    -0.0000060
  H       -0.5050570     1.2911530     0.8855660
  H       -0.5050560     1.2911790    -0.8855330
  H       -2.5608200     0.1721130    -0.0000030
  H       -1.5540650    -0.9912420    -0.8860060
  H       -1.5540690    -0.9912620     0.8859800
units angstrom
no_reorient  #important for SAPT in psi4, default
symmetry c1  #important for SAPT in psi4, default
}

set PROPERTIES_ORIGIN ["COM"]
properties('MP2/aug-cc-pvtz', properties = ['dipole'])
--------------------------------------------------------------------------

    Molecular point group: c1
  Charge       = 0
  Multiplicity = 1
  Basis Set: AUG-CC-PVTZ
    Blend: AUG-CC-PVTZ
  Basis Set: (AUG-CC-PVTZ AUX)
    Blend: AUG-CC-PVTZ-JKFIT

    Orbital Energies [Eh]
    ---------------------

    Doubly Occupied:

       1A   -104.820610     2A    -11.294781     3A    -11.231335
       4A    -10.545239     5A     -8.012053     6A     -8.010288
       7A     -8.010273     8A     -1.138577     9A     -0.996068
      10A     -0.843465    11A     -0.649156    12A     -0.614193
      13A     -0.555665    14A     -0.526004    15A     -0.508656
      16A     -0.433130    17A     -0.428919

  @DF-RHF Final Energy:  -538.19769775140242

   => Energetics <=

    Nuclear Repulsion Energy =            103.8897939236210703
    One-Electron Energy =                -946.9381572997722287
    Two-Electron Energy =                 304.8506656247487854
    Total Energy =                       -538.1976977514024156
  Basis Set: (AUG-CC-PVTZ AUX)
    Blend: AUG-CC-PVTZ-RI
    Molecular point group: c1

    Geometry (in Angstrom), charge = 0, multiplicity = 1:

       Center              X                  Y                   Z               Mass
    ------------   -----------------  -----------------  -----------------  -----------------
         CL           0.962139782902    -0.210808977727    -0.000002400767    34.968852682000
         C           -0.541786617098     0.758384522273     0.000011099233    12.000000000000
         C           -1.671738617098    -0.252173477727    -0.000004900767    12.000000000000
         H           -0.574769617098     1.394193522273     0.885567099233     1.007825032230
         H           -0.574768617098     1.394219522273    -0.885531900767     1.007825032230
         H           -2.630532617098     0.275153522273    -0.000001900767     1.007825032230
         H           -1.623777617098    -0.888201477727    -0.886004900767     1.007825032230
         H           -1.623781617098    -0.888221477727     0.885981099233     1.007825032230

  Basis Set: AUG-CC-PVTZ
    Blend: AUG-CC-PVTZ
  Basis Set: (AUG-CC-PVTZ AUX)
    Blend: AUG-CC-PVTZ-JKFIT
	 Reference Energy          =    -538.1976977514024156 [Eh]
	 Singles Energy            =      -0.0000000000000000 [Eh]
	 Same-Spin Energy          =      -0.1424942743613896 [Eh]
	 Opposite-Spin Energy      =      -0.4898536627876018 [Eh]
	 Correlation Energy        =      -0.6323479371489913 [Eh]
	 Total Energy              =    -538.8300456885514222 [Eh]

	 ================> DF-SCS-MP2 Energies <==================
	-----------------------------------------------------------
	 SCS Same-Spin Scale       =       0.3333333333333333 [-]
	 SCS Opposite-Spin Scale   =       1.2000000000000000 [-]
	 SCS Same-Spin Energy      =      -0.0474980914537965 [Eh]
	 SCS Opposite-Spin Energy  =      -0.5878243953451221 [Eh]
	 SCS Correlation Energy    =      -0.6353224867989187 [Eh]
	 SCS Total Energy          =    -538.8330202382013567 [Eh]
	-----------------------------------------------------------

  Dipole Moment: [D]
     X:    -1.8096      Y:     0.9112      Z:     0.0000     Total:     2.0261

*** Psi4 exiting successfully. Buy a developer a beer!
