                               Psi4 1.3.2 release

  ==> Input File <==

--------------------------------------------------------------------------
#psi4
#
memory 32 gb

molecule  {
0 1
 Cl        1.2004946     0.0200136     0.0000016
  C       -0.4720740     0.6553440     0.0000100
  C       -1.6020260    -0.3552140    -0.0000060
  H       -0.5050570     1.2911530     0.8855660
  H       -0.5050560     1.2911790    -0.8855330
  H       -2.5608200     0.1721130    -0.0000030
  H       -1.5540650    -0.9912420    -0.8860060
  H       -1.5540690    -0.9912620     0.8859800
units angstrom
no_reorient  #important for SAPT in psi4, default
symmetry c1  #important for SAPT in psi4, default
}

set PROPERTIES_ORIGIN ["COM"]
properties('MP2/aug-cc-pvtz', properties = ['dipole'])
--------------------------------------------------------------------------

    Molecular point group: c1
  Charge       = 0
  Multiplicity = 1
  Basis Set: AUG-CC-PVTZ
    Blend: AUG-CC-PVTZ
  Basis Set: (AUG-CC-PVTZ AUX)
    Blend: AUG-CC-PVTZ-JKFIT

    Orbital Energies [Eh]
    ---------------------

    Doubly Occupied:

       1A   -104.820614     2A    -11.293690     3A    -11.236659
       4A    -10.545106     5A     -8.011944     6A     -8.010173
       7A     -8.010139     8A     -1.134962     9A     -1.003320
      10A     -0.841004    11A     -0.649133    12A     -0.608661
      13A     -0.564191    14A     -0.531565    15A     -0.506571
      16A     -0.431525    17A     -0.428113

  @DF-RHF Final Energy:  -538.19843724939778

   => Energetics <=

    Nuclear Repulsion Energy =            102.1655696586016262
    One-Electron Energy =                -943.4732728647212525
    Two-Electron Energy =                 303.1092659567218561
    Total Energy =                       -538.1984372493977844
  Basis Set: (AUG-CC-PVTZ AUX)
    Blend: AUG-CC-PVTZ-RI
    Molecular point group: c1

    Geometry (in Angstrom), charge = 0, multiplicity = 1:

       Center              X                  Y                   Z               Mass
    ------------   -----------------  -----------------  -----------------  -----------------
         CL           1.038649338714    -0.059342040725    -0.000000087000    34.968852682000
         C           -0.633919261286     0.575988359275     0.000008313000    12.000000000000
         C           -1.763871261286    -0.434569640725    -0.000007687000    12.000000000000
         H           -0.666902261286     1.211797359275     0.885564313000     1.007825032230
         H           -0.666901261286     1.211823359275    -0.885534687000     1.007825032230
         H           -2.722665261286     0.092757359275    -0.000004687000     1.007825032230
         H           -1.715910261286    -1.070597640725    -0.886007687000     1.007825032230
         H           -1.715914261286    -1.070617640725     0.885978313000     1.007825032230

  Basis Set: AUG-CC-PVTZ
    Blend: AUG-CC-PVTZ
  Basis Set: (AUG-CC-PVTZ AUX)
    Blend: AUG-CC-PVTZ-JKFIT
	 Reference Energy          =    -538.1984372493977844 [Eh]
	 Singles Energy            =      -0.0000000000000000 [Eh]
	 Same-Spin Energy          =      -0.1421080138689577 [Eh]
	 Opposite-Spin Energy      =      -0.4893445401990699 [Eh]
	 Correlation Energy        =      -0.6314525540680276 [Eh]
	 Total Energy              =    -538.8298898034657896 [Eh]

	 ================> DF-SCS-MP2 Energies <==================
	-----------------------------------------------------------
	 SCS Same-Spin Scale       =       0.3333333333333333 [-]
	 SCS Opposite-Spin Scale   =       1.2000000000000000 [-]
	 SCS Same-Spin Energy      =      -0.0473693379563192 [Eh]
	 SCS Opposite-Spin Energy  =      -0.5872134482388838 [Eh]
	 SCS Correlation Energy    =      -0.6345827861952030 [Eh]
	 SCS Total Energy          =    -538.8330200355929946 [Eh]
	-----------------------------------------------------------

  Dipole Moment: [D]
     X:    -2.0308      Y:     0.6097      Z:     0.0000     Total:     2.1203

*** Psi4 exiting successfully. Buy a developer a beer!
