                               Psi4 1.3.2 release

  ==> Input File <==

--------------------------------------------------------------------------
#psi4
#
memory 32 gb

molecule  {
0 1
 Cl        1.1773030    -0.0379712     0.0000007
  C       -0.4720740     0.6553440     0.0000100
  C       -1.6020260    -0.3552140    -0.0000060
  H       -0.5050570     1.2911530     0.8855660
  H       -0.5050560     1.2911790    -0.8855330
  H       -2.5608200     0.1721130    -0.0000030
  H       -1.5540650    -0.9912420    -0.8860060
  H       -1.5540690    -0.9912620     0.8859800
units angstrom
no_reorient  #important for SAPT in psi4, default
symmetry c1  #important for SAPT in psi4, default
}

set PROPERTIES_ORIGIN ["COM"]
properties('MP2/aug-cc-pvtz', properties = ['dipole'])
--------------------------------------------------------------------------

    Molecular point group: c1
  Charge       = 0
  Multiplicity = 1
  Basis Set: AUG-CC-PVTZ
    Blend: AUG-CC-PVTZ
  Basis Set: (AUG-CC-PVTZ AUX)
    Blend: AUG-CC-PVTZ-JKFIT

    Orbital Energies [Eh]
    ---------------------

    Doubly Occupied:

       1A   -104.820654     2A    -11.293903     3A    -11.235766
       4A    -10.545151     5A     -8.011987     6A     -8.010221
       7A     -8.010191     8A     -1.135293     9A     -1.002291
      10A     -0.841372    11A     -0.649039    12A     -0.609455
      13A     -0.562814    14A     -0.530650    15A     -0.506953
      16A     -0.431653    17A     -0.428976

  @DF-RHF Final Energy:  -538.19940446314672

   => Energetics <=

    Nuclear Repulsion Energy =            102.4085755959304436
    One-Electron Energy =                -943.9632222691687957
    Two-Electron Energy =                 303.3552422100917170
    Total Energy =                       -538.1994044631467204
  Basis Set: (AUG-CC-PVTZ AUX)
    Blend: AUG-CC-PVTZ-RI
    Molecular point group: c1

    Geometry (in Angstrom), charge = 0, multiplicity = 1:

       Center              X                  Y                   Z               Mass
    ------------   -----------------  -----------------  -----------------  -----------------
         CL           1.028127778781    -0.085648571901    -0.000000495312    34.968852682000
         C           -0.621249221219     0.607666628099     0.000008804688    12.000000000000
         C           -1.751201221219    -0.402891371901    -0.000007195312    12.000000000000
         H           -0.654232221219     1.243475628099     0.885564804688     1.007825032230
         H           -0.654231221219     1.243501628099    -0.885534195312     1.007825032230
         H           -2.709995221219     0.124435628099    -0.000004195312     1.007825032230
         H           -1.703240221219    -1.038919371901    -0.886007195312     1.007825032230
         H           -1.703244221219    -1.038939371901     0.885978804688     1.007825032230

  Basis Set: AUG-CC-PVTZ
    Blend: AUG-CC-PVTZ
  Basis Set: (AUG-CC-PVTZ AUX)
    Blend: AUG-CC-PVTZ-JKFIT
	 Reference Energy          =    -538.1994044631467204 [Eh]
	 Singles Energy            =      -0.0000000000000000 [Eh]
	 Same-Spin Energy          =      -0.1421206498370282 [Eh]
	 Opposite-Spin Energy      =      -0.4893360701097503 [Eh]
	 Correlation Energy        =      -0.6314567199467784 [Eh]
	 Total Energy              =    -538.8308611830934751 [Eh]

	 ================> DF-SCS-MP2 Energies <==================
	-----------------------------------------------------------
	 SCS Same-Spin Scale       =       0.3333333333333333 [-]
	 SCS Opposite-Spin Scale   =       1.2000000000000000 [-]
	 SCS Same-Spin Energy      =      -0.0473735499456761 [Eh]
	 SCS Opposite-Spin Energy  =      -0.5872032841317003 [Eh]
	 SCS Correlation Energy    =      -0.6345768340773764 [Eh]
	 SCS Total Energy          =    -538.8339812972241134 [Eh]
	-----------------------------------------------------------

  Dipole Moment: [D]
     X:    -1.9980      Y:     0.6637      Z:     0.0000     Total:     2.1054

*** Psi4 exiting successfully. Buy a developer a beer!
