                               Psi4 1.3.2 release

  ==> Input File <==

--------------------------------------------------------------------------
#psi4
#
memory 32 gb

molecule  {
0 1
 Cl        1.1249220    -0.1513370    -0.0000010
  C       -0.4720740     0.6553440     0.0000100
  C       -1.4529481    -0.2218881    -0.0000039
  H       -0.5050570     1.2911530     0.8855660
  H       -0.5050560     1.2911790    -0.8855330
  H       -2.5608200     0.1721130    -0.0000030
  H       -1.5540650    -0.9912420    -0.8860060
  H       -1.5540690    -0.9912620     0.8859800
units angstrom
no_reorient  #important for SAPT in psi4, default
symmetry c1  #important for SAPT in psi4, default
}

set PROPERTIES_ORIGIN ["COM"]
properties('MP2/aug-cc-pvtz', properties = ['dipole'])
--------------------------------------------------------------------------

    Molecular point group: c1
  Charge       = 0
  Multiplicity = 1
  Basis Set: AUG-CC-PVTZ
    Blend: AUG-CC-PVTZ
  Basis Set: (AUG-CC-PVTZ AUX)
    Blend: AUG-CC-PVTZ-JKFIT

    Orbital Energies [Eh]
    ---------------------

    Doubly Occupied:

       1A   -104.821298     2A    -11.285578     3A    -11.245242
       4A    -10.546098     5A     -8.012905     6A     -8.011096
       7A     -8.011064     8A     -1.162665     9A     -1.024365
      10A     -0.826561    11A     -0.663960    12A     -0.638912
      13A     -0.592735    14A     -0.482771    15A     -0.473967
      16A     -0.438062    17A     -0.429795

  @DF-RHF Final Energy:  -538.14919172260602

   => Energetics <=

    Nuclear Repulsion Energy =            105.6777173878873555
    One-Electron Energy =                -950.3196711995682335
    Two-Electron Energy =                 306.4927620890748017
    Total Energy =                       -538.1491917226060195
  Basis Set: (AUG-CC-PVTZ AUX)
    Blend: AUG-CC-PVTZ-RI
    Molecular point group: c1

    Geometry (in Angstrom), charge = 0, multiplicity = 1:

       Center              X                  Y                   Z               Mass
    ------------   -----------------  -----------------  -----------------  -----------------
         CL           0.976414955995    -0.162075833315    -0.000001660268    34.968852682000
         C           -0.620581044005     0.644605166685     0.000009339732    12.000000000000
         C           -1.601455144005    -0.232626933315    -0.000004560268    12.000000000000
         H           -0.653564044005     1.280414166685     0.885565339732     1.007825032230
         H           -0.653563044005     1.280440166685    -0.885533660268     1.007825032230
         H           -2.709327044005     0.161374166685    -0.000003660268     1.007825032230
         H           -1.702572044005    -1.001980833315    -0.886006660268     1.007825032230
         H           -1.702576044005    -1.002000833315     0.885979339732     1.007825032230

  Basis Set: AUG-CC-PVTZ
    Blend: AUG-CC-PVTZ
  Basis Set: (AUG-CC-PVTZ AUX)
    Blend: AUG-CC-PVTZ-JKFIT
	 Reference Energy          =    -538.1491917226060195 [Eh]
	 Singles Energy            =      -0.0000000000000000 [Eh]
	 Same-Spin Energy          =      -0.1451878842969566 [Eh]
	 Opposite-Spin Energy      =      -0.4933045059415678 [Eh]
	 Correlation Energy        =      -0.6384923902385244 [Eh]
	 Total Energy              =    -538.7876841128445449 [Eh]

	 ================> DF-SCS-MP2 Energies <==================
	-----------------------------------------------------------
	 SCS Same-Spin Scale       =       0.3333333333333333 [-]
	 SCS Opposite-Spin Scale   =       1.2000000000000000 [-]
	 SCS Same-Spin Energy      =      -0.0483959614323188 [Eh]
	 SCS Opposite-Spin Energy  =      -0.5919654071298813 [Eh]
	 SCS Correlation Energy    =      -0.6403613685622002 [Eh]
	 SCS Total Energy          =    -538.7895530911682727 [Eh]
	-----------------------------------------------------------

  Dipole Moment: [D]
     X:    -1.9744      Y:     0.7696      Z:     0.0000     Total:     2.1191

*** Psi4 exiting successfully. Buy a developer a beer!
