                               Psi4 1.3.2 release

  ==> Input File <==

--------------------------------------------------------------------------
#psi4
#
memory 32 gb

molecule  {
0 1
 Cl        1.1521019    -0.0951112    -0.0000001
  C       -0.4720740     0.6553440     0.0000100
  C       -1.6020260    -0.3552140    -0.0000060
  H       -0.5050570     1.2911530     0.8855660
  H       -0.5050560     1.2911790    -0.8855330
  H       -2.5608200     0.1721130    -0.0000030
  H       -1.5540650    -0.9912420    -0.8860060
  H       -1.5540690    -0.9912620     0.8859800
units angstrom
no_reorient  #important for SAPT in psi4, default
symmetry c1  #important for SAPT in psi4, default
}

set PROPERTIES_ORIGIN ["COM"]
properties('MP2/aug-cc-pvtz', properties = ['dipole'])
--------------------------------------------------------------------------

    Molecular point group: c1
  Charge       = 0
  Multiplicity = 1
  Basis Set: AUG-CC-PVTZ
    Blend: AUG-CC-PVTZ
  Basis Set: (AUG-CC-PVTZ AUX)
    Blend: AUG-CC-PVTZ-JKFIT

    Orbital Energies [Eh]
    ---------------------

    Doubly Occupied:

       1A   -104.820681     2A    -11.294105     3A    -11.234872
       4A    -10.545190     5A     -8.012023     6A     -8.010259
       7A     -8.010233     8A     -1.135723     9A     -1.001196
      10A     -0.841751    11A     -0.648981    12A     -0.610302
      13A     -0.561418    14A     -0.529729    15A     -0.507303
      16A     -0.431579    17A     -0.429830

  @DF-RHF Final Energy:  -538.19995909107809

   => Energetics <=

    Nuclear Repulsion Energy =            102.6683955080272312
    One-Electron Energy =                -944.4863560163811371
    Two-Electron Energy =                 303.6180014172759343
    Total Energy =                       -538.1999590910779716
  Basis Set: (AUG-CC-PVTZ AUX)
    Blend: AUG-CC-PVTZ-RI
    Molecular point group: c1

    Geometry (in Angstrom), charge = 0, multiplicity = 1:

       Center              X                  Y                   Z               Mass
    ------------   -----------------  -----------------  -----------------  -----------------
         CL           1.016694549334    -0.111571834401    -0.000000858256    34.968852682000
         C           -0.607481350666     0.638883365599     0.000009241744    12.000000000000
         C           -1.737433350666    -0.371674634401    -0.000006758256    12.000000000000
         H           -0.640464350666     1.274692365599     0.885565241744     1.007825032230
         H           -0.640463350666     1.274718365599    -0.885533758256     1.007825032230
         H           -2.696227350666     0.155652365599    -0.000003758256     1.007825032230
         H           -1.689472350666    -1.007702634401    -0.886006758256     1.007825032230
         H           -1.689476350666    -1.007722634401     0.885979241744     1.007825032230

  Basis Set: AUG-CC-PVTZ
    Blend: AUG-CC-PVTZ
  Basis Set: (AUG-CC-PVTZ AUX)
    Blend: AUG-CC-PVTZ-JKFIT
	 Reference Energy          =    -538.1999590910780853 [Eh]
	 Singles Energy            =      -0.0000000000000000 [Eh]
	 Same-Spin Energy          =      -0.1421523356042611 [Eh]
	 Opposite-Spin Energy      =      -0.4893624010005612 [Eh]
	 Correlation Energy        =      -0.6315147366048224 [Eh]
	 Total Energy              =    -538.8314738276828848 [Eh]

	 ================> DF-SCS-MP2 Energies <==================
	-----------------------------------------------------------
	 SCS Same-Spin Scale       =       0.3333333333333333 [-]
	 SCS Opposite-Spin Scale   =       1.2000000000000000 [-]
	 SCS Same-Spin Energy      =      -0.0473841118680870 [Eh]
	 SCS Opposite-Spin Energy  =      -0.5872348812006735 [Eh]
	 SCS Correlation Energy    =      -0.6346189930687605 [Eh]
	 SCS Total Energy          =    -538.8345780841468695 [Eh]
	-----------------------------------------------------------

  Dipole Moment: [D]
     X:    -1.9636      Y:     0.7164      Z:     0.0000     Total:     2.0902

*** Psi4 exiting successfully. Buy a developer a beer!
