                               Psi4 1.4a3.dev225

  ==> Input File <==

--------------------------------------------------------------------------
#psi4
#
memory 32 gb

molecule  {
0 1
 Cl        1.1250940    -0.1513770    -0.0000010
  C       -0.4728250     0.6561290     0.0000080
  C       -1.6389778    -0.3888630    -0.0000075
  H       -0.5053100     1.2914100     0.8859770
  H       -0.5053080     1.2914330    -0.8859460
  H       -2.5617430     0.1699160    -0.0000010
  H       -1.5534230    -0.9915670    -0.8860440
  H       -1.5534260    -0.9915890     0.8860150
units angstrom
no_reorient  #important for SAPT in psi4, default
symmetry c1  #important for SAPT in psi4, default
}

set PROPERTIES_ORIGIN ["COM"]
properties('MP2/aug-cc-pvtz', properties = ['dipole'])
--------------------------------------------------------------------------

    Molecular point group: c1
  Charge       = 0
  Multiplicity = 1
  Basis Set: AUG-CC-PVTZ
    Blend: AUG-CC-PVTZ
  Basis Set: (AUG-CC-PVTZ AUX)
    Blend: AUG-CC-PVTZ-JKFIT

    Orbital Energies [Eh]
    ---------------------

    Doubly Occupied:

       1A   -104.820499     2A    -11.295844     3A    -11.232932
       4A    -10.544949     5A     -8.011780     6A     -8.010027
       7A     -8.010007     8A     -1.132116     9A     -0.995828
      10A     -0.844693    11A     -0.647189    12A     -0.610794
      13A     -0.548678    14A     -0.538998    15A     -0.512429
      16A     -0.430450    17A     -0.427916

  @DF-RHF Final Energy:  -538.19832504089709

   => Energetics <=

    Nuclear Repulsion Energy =            102.3120124865180145
    One-Electron Energy =                -943.7904140774492134
    Two-Electron Energy =                 303.2800765500341527
    Total Energy =                       -538.1983250408970889
  Basis Set: (AUG-CC-PVTZ AUX)
    Blend: AUG-CC-PVTZ-RI
    Molecular point group: c1

    Geometry (in Angstrom), charge = 0, multiplicity = 1:

       Center              X                  Y                   Z               Mass
    ------------   -----------------  -----------------  -----------------  -----------------
         CL           1.011512256741    -0.130900445540    -0.000000563163    34.968852682000
         C           -0.586406743259     0.676605554460     0.000008436837    12.000000000000
         C           -1.752559543259    -0.368386445540    -0.000007063163    12.000000000000
         H           -0.618891743259     1.311886554460     0.885977436837     1.007825032230
         H           -0.618889743259     1.311909554460    -0.885945563163     1.007825032230
         H           -2.675324743259     0.190392554460    -0.000000563163     1.007825032230
         H           -1.667004743259    -0.971090445540    -0.886043563163     1.007825032230
         H           -1.667007743259    -0.971112445540     0.886015436837     1.007825032230

  Basis Set: AUG-CC-PVTZ
    Blend: AUG-CC-PVTZ
  Basis Set: (AUG-CC-PVTZ AUX)
    Blend: AUG-CC-PVTZ-JKFIT
	 Reference Energy          =    -538.1983250408970889 [Eh]
	 Singles Energy            =      -0.0000000000000000 [Eh]
	 Same-Spin Energy          =      -0.1419361066420562 [Eh]
	 Opposite-Spin Energy      =      -0.4892838468231356 [Eh]
	 Correlation Energy        =      -0.6312199534651919 [Eh]
	 Total Energy              =    -538.8295449943623225 [Eh]

	 ================> DF-SCS-MP2 Energies <==================
	-----------------------------------------------------------
	 SCS Same-Spin Scale       =       0.3333333333333333 [-]
	 SCS Opposite-Spin Scale   =       1.2000000000000000 [-]
	 SCS Same-Spin Energy      =      -0.0473120355473521 [Eh]
	 SCS Opposite-Spin Energy  =      -0.5871406161877627 [Eh]
	 SCS Correlation Energy    =      -0.6344526517351148 [Eh]
	 SCS Total Energy          =    -538.8327776926322485 [Eh]
	-----------------------------------------------------------

  Dipole Moment: [D]
     X:    -1.9202      Y:     0.7720      Z:     0.0000     Total:     2.0696

*** Psi4 exiting successfully. Buy a developer a beer!
