                               Psi4 1.3.2 release

  ==> Input File <==

--------------------------------------------------------------------------
#psi4
#
memory 32 gb

molecule  {
0 1
 Cl        1.1249220    -0.1513370    -0.0000010
  C       -0.4720740     0.6553440     0.0000100
  C       -1.7511039    -0.4885399    -0.0000081
  H       -0.5050570     1.2911530     0.8855660
  H       -0.5050560     1.2911790    -0.8855330
  H       -2.5608200     0.1721130    -0.0000030
  H       -1.5540650    -0.9912420    -0.8860060
  H       -1.5540690    -0.9912620     0.8859800
units angstrom
no_reorient  #important for SAPT in psi4, default
symmetry c1  #important for SAPT in psi4, default
}

set PROPERTIES_ORIGIN ["COM"]
properties('MP2/aug-cc-pvtz', properties = ['dipole'])
--------------------------------------------------------------------------

    Molecular point group: c1
  Charge       = 0
  Multiplicity = 1
  Basis Set: AUG-CC-PVTZ
    Blend: AUG-CC-PVTZ
  Basis Set: (AUG-CC-PVTZ AUX)
    Blend: AUG-CC-PVTZ-JKFIT

    Orbital Energies [Eh]
    ---------------------

    Doubly Occupied:

       1A   -104.820310     2A    -11.298299     3A    -11.234557
       4A    -10.544603     5A     -8.011440     6A     -8.009699
       7A     -8.009683     8A     -1.124379     9A     -0.987542
      10A     -0.849693    11A     -0.645192    12A     -0.617643
      13A     -0.563337    14A     -0.532221    15A     -0.506764
      16A     -0.429558    17A     -0.411860

  @DF-RHF Final Energy:  -538.17273945853583

   => Energetics <=

    Nuclear Repulsion Energy =            100.5995425822351308
    One-Electron Energy =                -940.3510080118376209
    Two-Electron Energy =                 301.5787259710666035
    Total Energy =                       -538.1727394585359434
  Basis Set: (AUG-CC-PVTZ AUX)
    Blend: AUG-CC-PVTZ-RI
    Molecular point group: c1

    Geometry (in Angstrom), charge = 0, multiplicity = 1:

       Center              X                  Y                   Z               Mass
    ------------   -----------------  -----------------  -----------------  -----------------
         CL           1.032312200691    -0.112084852380    -0.000000872867    34.968852682000
         C           -0.564683799309     0.694596147620     0.000010127133    12.000000000000
         C           -1.843713699309    -0.449287752380    -0.000007972867    12.000000000000
         H           -0.597666799309     1.330405147620     0.885566127133     1.007825032230
         H           -0.597665799309     1.330431147620    -0.885532872867     1.007825032230
         H           -2.653429799309     0.211365147620    -0.000002872867     1.007825032230
         H           -1.646674799309    -0.951989852380    -0.886005872867     1.007825032230
         H           -1.646678799309    -0.952009852380     0.885980127133     1.007825032230

  Basis Set: AUG-CC-PVTZ
    Blend: AUG-CC-PVTZ
  Basis Set: (AUG-CC-PVTZ AUX)
    Blend: AUG-CC-PVTZ-JKFIT
	 Reference Energy          =    -538.1727394585358297 [Eh]
	 Singles Energy            =      -0.0000000000000000 [Eh]
	 Same-Spin Energy          =      -0.1420746051977197 [Eh]
	 Opposite-Spin Energy      =      -0.4905848906638998 [Eh]
	 Correlation Energy        =      -0.6326594958616195 [Eh]
	 Total Energy              =    -538.8053989543974467 [Eh]

	 ================> DF-SCS-MP2 Energies <==================
	-----------------------------------------------------------
	 SCS Same-Spin Scale       =       0.3333333333333333 [-]
	 SCS Opposite-Spin Scale   =       1.2000000000000000 [-]
	 SCS Same-Spin Energy      =      -0.0473582017325732 [Eh]
	 SCS Opposite-Spin Energy  =      -0.5887018687966797 [Eh]
	 SCS Correlation Energy    =      -0.6360600705292530 [Eh]
	 SCS Total Energy          =    -538.8087995290650269 [Eh]
	-----------------------------------------------------------

  Dipole Moment: [D]
     X:    -1.8643      Y:     0.7960      Z:     0.0000     Total:     2.0271

*** Psi4 exiting successfully. Buy a developer a beer!
