                               Psi4 1.3.2 release

  ==> Input File <==

--------------------------------------------------------------------------
#psi4
#
memory 32 gb

molecule  {
0 1
 Cl        1.1106002    -0.1790856    -0.0000014
  C       -0.4720740     0.6553440     0.0000100
  C       -1.6020260    -0.3552140    -0.0000060
  H       -0.5050570     1.2911530     0.8855660
  H       -0.5050560     1.2911790    -0.8855330
  H       -2.5608200     0.1721130    -0.0000030
  H       -1.5540650    -0.9912420    -0.8860060
  H       -1.5540690    -0.9912620     0.8859800
units angstrom
no_reorient  #important for SAPT in psi4, default
symmetry c1  #important for SAPT in psi4, default
}

set PROPERTIES_ORIGIN ["COM"]
properties('MP2/aug-cc-pvtz', properties = ['dipole'])
--------------------------------------------------------------------------

    Molecular point group: c1
  Charge       = 0
  Multiplicity = 1
  Basis Set: AUG-CC-PVTZ
    Blend: AUG-CC-PVTZ
  Basis Set: (AUG-CC-PVTZ AUX)
    Blend: AUG-CC-PVTZ-JKFIT

    Orbital Energies [Eh]
    ---------------------

    Doubly Occupied:

       1A   -104.820691     2A    -11.294385     3A    -11.233535
       4A    -10.545230     5A     -8.012059     6A     -8.010296
       7A     -8.010276     8A     -1.136567     9A     -0.999421
      10A     -0.842351    11A     -0.648967    12A     -0.611669
      13A     -0.559290    14A     -0.528338    15A     -0.507794
      16A     -0.431090    17A     -0.431057

  @DF-RHF Final Energy:  -538.19998361349406

   => Energetics <=

    Nuclear Repulsion Energy =            103.0911064530224053
    One-Electron Energy =                -945.3361456815630390
    Two-Electron Energy =                 304.0450556150466923
    Total Energy =                       -538.1999836134939414
  Basis Set: (AUG-CC-PVTZ AUX)
    Blend: AUG-CC-PVTZ-RI
    Molecular point group: c1

    Geometry (in Angstrom), charge = 0, multiplicity = 1:

       Center              X                  Y                   Z               Mass
    ------------   -----------------  -----------------  -----------------  -----------------
         CL           0.997866067303    -0.149669321528    -0.000001448039    34.968852682000
         C           -0.584808132697     0.684760278472     0.000009951961    12.000000000000
         C           -1.714760132697    -0.325797721528    -0.000006048039    12.000000000000
         H           -0.617791132697     1.320569278472     0.885565951961     1.007825032230
         H           -0.617790132697     1.320595278472    -0.885533048039     1.007825032230
         H           -2.673554132697     0.201529278472    -0.000003048039     1.007825032230
         H           -1.666799132697    -0.961825721528    -0.886006048039     1.007825032230
         H           -1.666803132697    -0.961845721528     0.885979951961     1.007825032230

  Basis Set: AUG-CC-PVTZ
    Blend: AUG-CC-PVTZ
  Basis Set: (AUG-CC-PVTZ AUX)
    Blend: AUG-CC-PVTZ-JKFIT
	 Reference Energy          =    -538.1999836134940551 [Eh]
	 Singles Energy            =      -0.0000000000000000 [Eh]
	 Same-Spin Energy          =      -0.1422380229351293 [Eh]
	 Opposite-Spin Energy      =      -0.4894708134183249 [Eh]
	 Correlation Energy        =      -0.6317088363534542 [Eh]
	 Total Energy              =    -538.8316924498475373 [Eh]

	 ================> DF-SCS-MP2 Energies <==================
	-----------------------------------------------------------
	 SCS Same-Spin Scale       =       0.3333333333333333 [-]
	 SCS Opposite-Spin Scale   =       1.2000000000000000 [-]
	 SCS Same-Spin Energy      =      -0.0474126743117098 [Eh]
	 SCS Opposite-Spin Energy  =      -0.5873649761019898 [Eh]
	 SCS Correlation Energy    =      -0.6347776504136996 [Eh]
	 SCS Total Energy          =    -538.8347612639078079 [Eh]
	-----------------------------------------------------------

  Dipole Moment: [D]
     X:    -1.9087      Y:     0.7927      Z:     0.0000     Total:     2.0668

*** Psi4 exiting successfully. Buy a developer a beer!
