                               Psi4 1.3.2 release

  ==> Input File <==

--------------------------------------------------------------------------
#psi4
#
memory 32 gb

molecule  {
0 1
 Cl        1.1387573    -0.1233427    -0.0000006
  C       -0.4720740     0.6553440     0.0000100
  C       -1.6020260    -0.3552140    -0.0000060
  H       -0.5050570     1.2911530     0.8855660
  H       -0.5050560     1.2911790    -0.8855330
  H       -2.5608200     0.1721130    -0.0000030
  H       -1.5540650    -0.9912420    -0.8860060
  H       -1.5540690    -0.9912620     0.8859800
units angstrom
no_reorient  #important for SAPT in psi4, default
symmetry c1  #important for SAPT in psi4, default
}

set PROPERTIES_ORIGIN ["COM"]
properties('MP2/aug-cc-pvtz', properties = ['dipole'])
--------------------------------------------------------------------------

    Molecular point group: c1
  Charge       = 0
  Multiplicity = 1
  Basis Set: AUG-CC-PVTZ
    Blend: AUG-CC-PVTZ
  Basis Set: (AUG-CC-PVTZ AUX)
    Blend: AUG-CC-PVTZ-JKFIT

    Orbital Energies [Eh]
    ---------------------

    Doubly Occupied:

       1A   -104.820688     2A    -11.294202     3A    -11.234426
       4A    -10.545206     5A     -8.012038     6A     -8.010275
       7A     -8.010251     8A     -1.135977     9A     -1.000623
      10A     -0.841947    11A     -0.648967    12A     -0.610745
      13A     -0.560714    14A     -0.529267    15A     -0.507469
      16A     -0.431462    17A     -0.430253

  @DF-RHF Final Energy:  -538.20007710420532

   => Energetics <=

    Nuclear Repulsion Energy =            102.8048136951735927
    One-Electron Energy =                -944.7607679603615907
    Two-Electron Energy =                 303.7558771609827204
    Total Energy =                       -538.2000771042053202
  Basis Set: (AUG-CC-PVTZ AUX)
    Blend: AUG-CC-PVTZ-RI
    Molecular point group: c1

    Geometry (in Angstrom), charge = 0, multiplicity = 1:

       Center              X                  Y                   Z               Mass
    ------------   -----------------  -----------------  -----------------  -----------------
         CL           1.010640374172    -0.124379895046    -0.000001085096    34.968852682000
         C           -0.600190925828     0.654306804954     0.000009514904    12.000000000000
         C           -1.730142925828    -0.356251195046    -0.000006485096    12.000000000000
         H           -0.633173925828     1.290115804954     0.885565514904     1.007825032230
         H           -0.633172925828     1.290141804954    -0.885533485096     1.007825032230
         H           -2.688936925828     0.171075804954    -0.000003485096     1.007825032230
         H           -1.682181925828    -0.992279195046    -0.886006485096     1.007825032230
         H           -1.682185925828    -0.992299195046     0.885979514904     1.007825032230

  Basis Set: AUG-CC-PVTZ
    Blend: AUG-CC-PVTZ
  Basis Set: (AUG-CC-PVTZ AUX)
    Blend: AUG-CC-PVTZ-JKFIT
	 Reference Energy          =    -538.2000771042053202 [Eh]
	 Singles Energy            =      -0.0000000000000000 [Eh]
	 Same-Spin Energy          =      -0.1421756564754634 [Eh]
	 Opposite-Spin Energy      =      -0.4893891123861598 [Eh]
	 Correlation Energy        =      -0.6315647688616232 [Eh]
	 Total Energy              =    -538.8316418730669284 [Eh]

	 ================> DF-SCS-MP2 Energies <==================
	-----------------------------------------------------------
	 SCS Same-Spin Scale       =       0.3333333333333333 [-]
	 SCS Opposite-Spin Scale   =       1.2000000000000000 [-]
	 SCS Same-Spin Energy      =      -0.0473918854918211 [Eh]
	 SCS Opposite-Spin Energy  =      -0.5872669348633918 [Eh]
	 SCS Correlation Energy    =      -0.6346588203552129 [Eh]
	 SCS Total Energy          =    -538.8347359245605048 [Eh]
	-----------------------------------------------------------

  Dipole Moment: [D]
     X:    -1.9457      Y:     0.7422      Z:     0.0000     Total:     2.0825

*** Psi4 exiting successfully. Buy a developer a beer!
