                               Psi4 1.3.2 release

  ==> Input File <==

--------------------------------------------------------------------------
#psi4
#
memory 32 gb

molecule  {
0 1
 Cl        1.1249220    -0.1513370    -0.0000010
  C       -0.4720740     0.6553440     0.0000100
  C       -1.5274871    -0.2885511    -0.0000049
  H       -0.5050570     1.2911530     0.8855660
  H       -0.5050560     1.2911790    -0.8855330
  H       -2.5608200     0.1721130    -0.0000030
  H       -1.5540650    -0.9912420    -0.8860060
  H       -1.5540690    -0.9912620     0.8859800
units angstrom
no_reorient  #important for SAPT in psi4, default
symmetry c1  #important for SAPT in psi4, default
}

set PROPERTIES_ORIGIN ["COM"]
properties('MP2/aug-cc-pvtz', properties = ['dipole'])
--------------------------------------------------------------------------

    Molecular point group: c1
  Charge       = 0
  Multiplicity = 1
  Basis Set: AUG-CC-PVTZ
    Blend: AUG-CC-PVTZ
  Basis Set: (AUG-CC-PVTZ AUX)
    Blend: AUG-CC-PVTZ-JKFIT

    Orbital Energies [Eh]
    ---------------------

    Doubly Occupied:

       1A   -104.820970     2A    -11.290567     3A    -11.238428
       4A    -10.545627     5A     -8.012448     6A     -8.010668
       7A     -8.010641     8A     -1.146760     9A     -1.010863
      10A     -0.835578    11A     -0.654802    12A     -0.619680
      13A     -0.580028    14A     -0.506367    15A     -0.492750
      16A     -0.435904    17A     -0.430847

  @DF-RHF Final Energy:  -538.18833628076425

   => Energetics <=

    Nuclear Repulsion Energy =            104.2431271060301299
    One-Electron Energy =                -947.5770691625085647
    Two-Electron Energy =                 305.1456057757142730
    Total Energy =                       -538.1883362807641333
  Basis Set: (AUG-CC-PVTZ AUX)
    Blend: AUG-CC-PVTZ-RI
    Molecular point group: c1

    Geometry (in Angstrom), charge = 0, multiplicity = 1:

       Center              X                  Y                   Z               Mass
    ------------   -----------------  -----------------  -----------------  -----------------
         CL           0.990389276543    -0.149578078707    -0.000001472792    34.968852682000
         C           -0.606606723457     0.657102921293     0.000009527208    12.000000000000
         C           -1.662019823457    -0.286792178707    -0.000005372792    12.000000000000
         H           -0.639589723457     1.292911921293     0.885565527208     1.007825032230
         H           -0.639588723457     1.292937921293    -0.885533472792     1.007825032230
         H           -2.695352723457     0.173871921293    -0.000003472792     1.007825032230
         H           -1.688597723457    -0.989483078707    -0.886006472792     1.007825032230
         H           -1.688601723457    -0.989503078707     0.885979527208     1.007825032230

  Basis Set: AUG-CC-PVTZ
    Blend: AUG-CC-PVTZ
  Basis Set: (AUG-CC-PVTZ AUX)
    Blend: AUG-CC-PVTZ-JKFIT
	 Reference Energy          =    -538.1883362807642470 [Eh]
	 Singles Energy            =      -0.0000000000000000 [Eh]
	 Same-Spin Energy          =      -0.1432645689530834 [Eh]
	 Opposite-Spin Energy      =      -0.4906538364225138 [Eh]
	 Correlation Energy        =      -0.6339184053755972 [Eh]
	 Total Energy              =    -538.8222546861398996 [Eh]

	 ================> DF-SCS-MP2 Energies <==================
	-----------------------------------------------------------
	 SCS Same-Spin Scale       =       0.3333333333333333 [-]
	 SCS Opposite-Spin Scale   =       1.2000000000000000 [-]
	 SCS Same-Spin Energy      =      -0.0477548563176945 [Eh]
	 SCS Opposite-Spin Energy  =      -0.5887846037070166 [Eh]
	 SCS Correlation Energy    =      -0.6365394600247111 [Eh]
	 SCS Total Energy          =    -538.8248757407889116 [Eh]
	-----------------------------------------------------------

  Dipole Moment: [D]
     X:    -1.9488      Y:     0.7638      Z:     0.0000     Total:     2.0932

*** Psi4 exiting successfully. Buy a developer a beer!
