                               Psi4 1.3.2 release

  ==> Input File <==

--------------------------------------------------------------------------
#psi4
#
memory 32 gb

molecule  {
0 1
 Cl        1.0957964    -0.2065799    -0.0000019
  C       -0.4720740     0.6553440     0.0000100
  C       -1.6020260    -0.3552140    -0.0000060
  H       -0.5050570     1.2911530     0.8855660
  H       -0.5050560     1.2911790    -0.8855330
  H       -2.5608200     0.1721130    -0.0000030
  H       -1.5540650    -0.9912420    -0.8860060
  H       -1.5540690    -0.9912620     0.8859800
units angstrom
no_reorient  #important for SAPT in psi4, default
symmetry c1  #important for SAPT in psi4, default
}

set PROPERTIES_ORIGIN ["COM"]
properties('MP2/aug-cc-pvtz', properties = ['dipole'])
--------------------------------------------------------------------------

    Molecular point group: c1
  Charge       = 0
  Multiplicity = 1
  Basis Set: AUG-CC-PVTZ
    Blend: AUG-CC-PVTZ
  Basis Set: (AUG-CC-PVTZ AUX)
    Blend: AUG-CC-PVTZ-JKFIT

    Orbital Energies [Eh]
    ---------------------

    Doubly Occupied:

       1A   -104.820686     2A    -11.294472     3A    -11.233092
       4A    -10.545238     5A     -8.012064     6A     -8.010302
       7A     -8.010283     8A     -1.136906     9A     -0.998792
      10A     -0.842560    11A     -0.648983    12A     -0.612150
      13A     -0.558572    14A     -0.527871    15A     -0.507956
      16A     -0.431505    17A     -0.430764

  @DF-RHF Final Energy:  -538.19976706978741

   => Energetics <=

    Nuclear Repulsion Energy =            103.2411633214293829
    One-Electron Energy =                -945.6374672904217960
    Two-Electron Energy =                 304.1965368992050571
    Total Energy =                       -538.1997670697874128
  Basis Set: (AUG-CC-PVTZ AUX)
    Blend: AUG-CC-PVTZ-RI
    Molecular point group: c1

    Geometry (in Angstrom), charge = 0, multiplicity = 1:

       Center              X                  Y                   Z               Mass
    ------------   -----------------  -----------------  -----------------  -----------------
         CL           0.991149882609    -0.162142929441    -0.000001674879    34.968852682000
         C           -0.576720517391     0.699780970559     0.000010225121    12.000000000000
         C           -1.706672517391    -0.310777029441    -0.000005774879    12.000000000000
         H           -0.609703517391     1.335589970559     0.885566225121     1.007825032230
         H           -0.609702517391     1.335615970559    -0.885532774879     1.007825032230
         H           -2.665466517391     0.216549970559    -0.000002774879     1.007825032230
         H           -1.658711517391    -0.946805029441    -0.886005774879     1.007825032230
         H           -1.658715517391    -0.946825029441     0.885980225121     1.007825032230

  Basis Set: AUG-CC-PVTZ
    Blend: AUG-CC-PVTZ
  Basis Set: (AUG-CC-PVTZ AUX)
    Blend: AUG-CC-PVTZ-JKFIT
	 Reference Energy          =    -538.1997670697874128 [Eh]
	 Singles Energy            =      -0.0000000000000000 [Eh]
	 Same-Spin Energy          =      -0.1422774107808507 [Eh]
	 Opposite-Spin Energy      =      -0.4895263439917735 [Eh]
	 Correlation Energy        =      -0.6318037547726243 [Eh]
	 Total Energy              =    -538.8315708245600035 [Eh]

	 ================> DF-SCS-MP2 Energies <==================
	-----------------------------------------------------------
	 SCS Same-Spin Scale       =       0.3333333333333333 [-]
	 SCS Opposite-Spin Scale   =       1.2000000000000000 [-]
	 SCS Same-Spin Energy      =      -0.0474258035936169 [Eh]
	 SCS Opposite-Spin Energy  =      -0.5874316127901282 [Eh]
	 SCS Correlation Energy    =      -0.6348574163837452 [Eh]
	 SCS Total Energy          =    -538.8346244861711511 [Eh]
	-----------------------------------------------------------

  Dipole Moment: [D]
     X:    -1.8897      Y:     0.8173      Z:     0.0000     Total:     2.0588

*** Psi4 exiting successfully. Buy a developer a beer!
