                               Psi4 1.4a3.dev225

  ==> Input File <==

--------------------------------------------------------------------------
#psi4
#
memory 32 gb

molecule  {
0 1
 Cl        1.1250940    -0.1513770    -0.0000010
  C       -0.4728250     0.6561290     0.0000080
  C       -1.6166357    -0.3688422    -0.0000072
  H       -0.5053100     1.2914100     0.8859770
  H       -0.5053080     1.2914330    -0.8859460
  H       -2.5617430     0.1699160    -0.0000010
  H       -1.5534230    -0.9915670    -0.8860440
  H       -1.5534260    -0.9915890     0.8860150
units angstrom
no_reorient  #important for SAPT in psi4, default
symmetry c1  #important for SAPT in psi4, default
}

set PROPERTIES_ORIGIN ["COM"]
properties('MP2/aug-cc-pvtz', properties = ['dipole'])
--------------------------------------------------------------------------

    Molecular point group: c1
  Charge       = 0
  Multiplicity = 1
  Basis Set: AUG-CC-PVTZ
    Blend: AUG-CC-PVTZ
  Basis Set: (AUG-CC-PVTZ AUX)
    Blend: AUG-CC-PVTZ-JKFIT

    Orbital Energies [Eh]
    ---------------------

    Doubly Occupied:

       1A   -104.820578     2A    -11.295057     3A    -11.233500
       4A    -10.545065     5A     -8.011894     6A     -8.010138
       7A     -8.010116     8A     -1.134348     9A     -0.998239
      10A     -0.843265    11A     -0.648212    12A     -0.610710
      13A     -0.555427    14A     -0.532989    15A     -0.509646
      16A     -0.430611    17A     -0.430042

  @DF-RHF Final Energy:  -538.19990914604489

   => Energetics <=

    Nuclear Repulsion Energy =            102.6756366848584463
    One-Electron Energy =                -944.5114136658389725
    Two-Electron Energy =                 303.6358678349357092
    Total Energy =                       -538.1999091460447744
  Basis Set: (AUG-CC-PVTZ AUX)
    Blend: AUG-CC-PVTZ-RI
    Molecular point group: c1

    Geometry (in Angstrom), charge = 0, multiplicity = 1:

       Center              X                  Y                   Z               Mass
    ------------   -----------------  -----------------  -----------------  -----------------
         CL           1.007323635119    -0.134653877661    -0.000000619406    34.968852682000
         C           -0.590595364881     0.672852122339     0.000008380594    12.000000000000
         C           -1.734406064881    -0.352119077661    -0.000006819406    12.000000000000
         H           -0.623080364881     1.308133122339     0.885977380594     1.007825032230
         H           -0.623078364881     1.308156122339    -0.885945619406     1.007825032230
         H           -2.679513364881     0.186639122339    -0.000000619406     1.007825032230
         H           -1.671193364881    -0.974843877661    -0.886043619406     1.007825032230
         H           -1.671196364881    -0.974865877661     0.886015380594     1.007825032230

  Basis Set: AUG-CC-PVTZ
    Blend: AUG-CC-PVTZ
  Basis Set: (AUG-CC-PVTZ AUX)
    Blend: AUG-CC-PVTZ-JKFIT
	 Reference Energy          =    -538.1999091460448881 [Eh]
	 Singles Energy            =      -0.0000000000000000 [Eh]
	 Same-Spin Energy          =      -0.1420710150610046 [Eh]
	 Opposite-Spin Energy      =      -0.4893311293391506 [Eh]
	 Correlation Energy        =      -0.6314021444001552 [Eh]
	 Total Energy              =    -538.8313112904450009 [Eh]

	 ================> DF-SCS-MP2 Energies <==================
	-----------------------------------------------------------
	 SCS Same-Spin Scale       =       0.3333333333333333 [-]
	 SCS Opposite-Spin Scale   =       1.2000000000000000 [-]
	 SCS Same-Spin Energy      =      -0.0473570050203349 [Eh]
	 SCS Opposite-Spin Energy  =      -0.5871973552069807 [Eh]
	 SCS Correlation Energy    =      -0.6345543602273155 [Eh]
	 SCS Total Energy          =    -538.8344635062721864 [Eh]
	-----------------------------------------------------------

  Dipole Moment: [D]
     X:    -1.9266      Y:     0.7696      Z:     0.0000     Total:     2.0747

*** Psi4 exiting successfully. Buy a developer a beer!
