                               Psi4 1.3.2 release

  ==> Input File <==

--------------------------------------------------------------------------
#psi4
#
memory 32 gb

molecule  {
0 1
 Cl        1.1249220    -0.1513370    -0.0000010
  C       -0.4720740     0.6553440     0.0000100
  C       -1.6765649    -0.4218769    -0.0000071
  H       -0.5050570     1.2911530     0.8855660
  H       -0.5050560     1.2911790    -0.8855330
  H       -2.5608200     0.1721130    -0.0000030
  H       -1.5540650    -0.9912420    -0.8860060
  H       -1.5540690    -0.9912620     0.8859800
units angstrom
no_reorient  #important for SAPT in psi4, default
symmetry c1  #important for SAPT in psi4, default
}

set PROPERTIES_ORIGIN ["COM"]
properties('MP2/aug-cc-pvtz', properties = ['dipole'])
--------------------------------------------------------------------------

    Molecular point group: c1
  Charge       = 0
  Multiplicity = 1
  Basis Set: AUG-CC-PVTZ
    Blend: AUG-CC-PVTZ
  Basis Set: (AUG-CC-PVTZ AUX)
    Blend: AUG-CC-PVTZ-JKFIT

    Orbital Energies [Eh]
    ---------------------

    Doubly Occupied:

       1A   -104.820438     2A    -11.296756     3A    -11.232608
       4A    -10.544846     5A     -8.011681     6A     -8.009931
       7A     -8.009912     8A     -1.129205     9A     -0.992435
      10A     -0.846647    11A     -0.645940    12A     -0.612327
      13A     -0.548217    14A     -0.538882    15A     -0.515064
      16A     -0.430124    17A     -0.423588

  @DF-RHF Final Energy:  -538.19260387340410

   => Energetics <=

    Nuclear Repulsion Energy =            101.7433259446605973
    One-Electron Energy =                -942.6546635737166753
    Two-Electron Energy =                 302.7187337556519537
    Total Energy =                       -538.1926038734040958
  Basis Set: (AUG-CC-PVTZ AUX)
    Blend: AUG-CC-PVTZ-RI
    Molecular point group: c1

    Geometry (in Angstrom), charge = 0, multiplicity = 1:

       Center              X                  Y                   Z               Mass
    ------------   -----------------  -----------------  -----------------  -----------------
         CL           1.018337880144    -0.124582606988    -0.000001060343    34.968852682000
         C           -0.578658119856     0.682098393012     0.000009939657    12.000000000000
         C           -1.783149019856    -0.395122506988    -0.000007160343    12.000000000000
         H           -0.611641119856     1.317907393012     0.885565939657     1.007825032230
         H           -0.611640119856     1.317933393012    -0.885533060343     1.007825032230
         H           -2.667404119856     0.198867393012    -0.000003060343     1.007825032230
         H           -1.660649119856    -0.964487606988    -0.886006060343     1.007825032230
         H           -1.660653119856    -0.964507606988     0.885979939657     1.007825032230

  Basis Set: AUG-CC-PVTZ
    Blend: AUG-CC-PVTZ
  Basis Set: (AUG-CC-PVTZ AUX)
    Blend: AUG-CC-PVTZ-JKFIT
	 Reference Energy          =    -538.1926038734040958 [Eh]
	 Singles Energy            =      -0.0000000000000000 [Eh]
	 Same-Spin Energy          =      -0.1418496983465329 [Eh]
	 Opposite-Spin Energy      =      -0.4894445283662996 [Eh]
	 Correlation Energy        =      -0.6312942267128325 [Eh]
	 Total Energy              =    -538.8238981001169350 [Eh]

	 ================> DF-SCS-MP2 Energies <==================
	-----------------------------------------------------------
	 SCS Same-Spin Scale       =       0.3333333333333333 [-]
	 SCS Opposite-Spin Scale   =       1.2000000000000000 [-]
	 SCS Same-Spin Energy      =      -0.0472832327821776 [Eh]
	 SCS Opposite-Spin Energy  =      -0.5873334340395595 [Eh]
	 SCS Correlation Energy    =      -0.6346166668217371 [Eh]
	 SCS Total Energy          =    -538.8272205402258805 [Eh]
	-----------------------------------------------------------

  Dipole Moment: [D]
     X:    -1.9044      Y:     0.7767      Z:     0.0000     Total:     2.0567

*** Psi4 exiting successfully. Buy a developer a beer!
