                               Psi4 1.4a3.dev225

  ==> Input File <==

--------------------------------------------------------------------------
#psi4
#
memory 32 gb

molecule  {
0 1
  O        0.9636680    -1.0001680    -0.4301960
  N        0.7679840     1.1102310     0.3050190
  C       -1.3243600    -0.1423310    -0.3721570
  C        0.1381010     0.0595700    -0.1541750
  C       -2.0674230     1.1831610    -0.2295090
  C       -1.8648280    -1.2049810     0.5921130
  C        2.1729476    -0.5674147    -0.1226726
  C        2.1041050     0.7294570     0.3348460
  H       -1.4517930    -0.5154570    -1.3975200
  H       -1.9460070     1.5800180     0.7812150
  H       -3.1336970     1.0333660    -0.4232700
  H       -1.6836890     1.9287350    -0.9294360
  H       -1.7477770    -0.8676130     1.6266340
  H       -1.3321260    -2.1520890     0.4742110
  H       -2.9287500    -1.3798940     0.4051340
  H        3.0327410    -1.2424980    -0.2628180
  H        2.8799090     1.4020910     0.6717620
units angstrom
no_reorient  #important for SAPT in psi4, default
symmetry c1  #important for SAPT in psi4, default
}

set PROPERTIES_ORIGIN ["COM"]
properties('MP2/aug-cc-pvtz', properties = ['dipole'])
--------------------------------------------------------------------------

    Molecular point group: c1
  Charge       = 0
  Multiplicity = 1
  Basis Set: AUG-CC-PVTZ
    Blend: AUG-CC-PVTZ
  Basis Set: (AUG-CC-PVTZ AUX)
    Blend: AUG-CC-PVTZ-JKFIT

    Orbital Energies [Eh]
    ---------------------

    Doubly Occupied:

       1A    -20.640561     2A    -15.561727     3A    -11.332344
       4A    -11.292927     5A    -11.257429     6A    -11.251285
       7A    -11.225311     8A    -11.217107     9A     -1.496314
      10A     -1.228852    11A     -1.103703    12A     -1.003185
      13A     -0.939108    14A     -0.860023    15A     -0.829023
      16A     -0.777259    17A     -0.716023    18A     -0.670237
      19A     -0.639532    20A     -0.608274    21A     -0.599346
      22A     -0.569938    23A     -0.558264    24A     -0.541805
      25A     -0.506247    26A     -0.491437    27A     -0.489088
      28A     -0.455425    29A     -0.449595    30A     -0.324584

  @DF-RHF Final Energy:  -361.87161979846621

   => Energetics <=

    Nuclear Repulsion Energy =            373.1973340871019786
    One-Electron Energy =               -1230.8660010142377814
    Two-Electron Energy =                 495.7970471286695329
    Total Energy =                       -361.8716197984662131
  Basis Set: (AUG-CC-PVTZ AUX)
    Blend: AUG-CC-PVTZ-RI
    Molecular point group: c1

    Geometry (in Angstrom), charge = 0, multiplicity = 1:

       Center              X                  Y                   Z               Mass
    ------------   -----------------  -----------------  -----------------  -----------------
         O            0.894393480135    -1.000380214155    -0.420516505802    15.994914619570
         N            0.698709480135     1.110018785845     0.314698494198    14.003074004430
         C           -1.393634519865    -0.142543214155    -0.362477505802    12.000000000000
         C            0.068826480135     0.059357785845    -0.144495505802    12.000000000000
         C           -2.136697519865     1.182948785845    -0.219829505802    12.000000000000
         C           -1.934102519865    -1.205193214155     0.601792494198    12.000000000000
         C            2.103673080135    -0.567626914155    -0.112993105802    12.000000000000
         C            2.034830480135     0.729244785845     0.344525494198    12.000000000000
         H           -1.521067519865    -0.515669214155    -1.387840505802     1.007825032230
         H           -2.015281519865     1.579805785845     0.790894494198     1.007825032230
         H           -3.202971519865     1.033153785845    -0.413590505802     1.007825032230
         H           -1.752963519865     1.928522785845    -0.919756505802     1.007825032230
         H           -1.817051519865    -0.867825214155     1.636313494198     1.007825032230
         H           -1.401400519865    -2.152301214155     0.483890494198     1.007825032230
         H           -2.998024519865    -1.380106214155     0.414813494198     1.007825032230
         H            2.963466480135    -1.242710214155    -0.253138505802     1.007825032230
         H            2.810634480135     1.401878785845     0.681441494198     1.007825032230

  Basis Set: AUG-CC-PVTZ
    Blend: AUG-CC-PVTZ
  Basis Set: (AUG-CC-PVTZ AUX)
    Blend: AUG-CC-PVTZ-JKFIT
	 Reference Energy          =    -361.8716197984662131 [Eh]
	 Singles Energy            =      -0.0000000000000000 [Eh]
	 Same-Spin Energy          =      -0.3805184478275217 [Eh]
	 Opposite-Spin Energy      =      -1.2183979093482067 [Eh]
	 Correlation Energy        =      -1.5989163571757283 [Eh]
	 Total Energy              =    -363.4705361556419234 [Eh]

	 ================> DF-SCS-MP2 Energies <==================
	-----------------------------------------------------------
	 SCS Same-Spin Scale       =       0.3333333333333333 [-]
	 SCS Opposite-Spin Scale   =       1.2000000000000000 [-]
	 SCS Same-Spin Energy      =      -0.1268394826091739 [Eh]
	 SCS Opposite-Spin Energy  =      -1.4620774912178480 [Eh]
	 SCS Correlation Energy    =      -1.5889169738270219 [Eh]
	 SCS Total Energy          =    -363.4605367722932101 [Eh]
	-----------------------------------------------------------

  Dipole Moment: [D]
     X:     0.1183      Y:    -1.3000      Z:    -0.3986     Total:     1.3649

*** Psi4 exiting successfully. Buy a developer a beer!
