                               Psi4 1.4a3.dev225

  ==> Input File <==

--------------------------------------------------------------------------
#psi4
#
memory 32 gb

molecule  {
0 1
  O        0.9636680    -1.0001680    -0.4301960
  N        0.7679840     1.1102310     0.3050190
  C       -1.3243600    -0.1423310    -0.3721570
  C        0.1381010     0.0595700    -0.1541750
  C       -2.0674230     1.1831610    -0.2295090
  C       -1.8648280    -1.2049810     0.5921130
  C        2.2187300    -0.5510310    -0.1110300
  C        2.1041050     0.7294570     0.3348460
  H       -1.4541130    -0.5222500    -1.4161874
  H       -1.9460070     1.5800180     0.7812150
  H       -3.1336970     1.0333660    -0.4232700
  H       -1.6836890     1.9287350    -0.9294360
  H       -1.7477770    -0.8676130     1.6266340
  H       -1.3321260    -2.1520890     0.4742110
  H       -2.9287500    -1.3798940     0.4051340
  H        3.0327410    -1.2424980    -0.2628180
  H        2.8799090     1.4020910     0.6717620
units angstrom
no_reorient  #important for SAPT in psi4, default
symmetry c1  #important for SAPT in psi4, default
}

set PROPERTIES_ORIGIN ["COM"]
properties('MP2/aug-cc-pvtz', properties = ['dipole'])
--------------------------------------------------------------------------

    Molecular point group: c1
  Charge       = 0
  Multiplicity = 1
  Basis Set: AUG-CC-PVTZ
    Blend: AUG-CC-PVTZ
  Basis Set: (AUG-CC-PVTZ AUX)
    Blend: AUG-CC-PVTZ-JKFIT

    Orbital Energies [Eh]
    ---------------------

    Doubly Occupied:

       1A    -20.633485     2A    -15.560240     3A    -11.334891
       4A    -11.290382     5A    -11.260115     6A    -11.253936
       7A    -11.225646     8A    -11.217396     9A     -1.475672
      10A     -1.225581    11A     -1.103018    12A     -1.006008
      13A     -0.939151    14A     -0.858836    15A     -0.826420
      16A     -0.771255    17A     -0.712014    18A     -0.661680
      19A     -0.635546    20A     -0.607221    21A     -0.599531
      22A     -0.571662    23A     -0.557934    24A     -0.541900
      25A     -0.506541    26A     -0.490994    27A     -0.487608
      28A     -0.455333    29A     -0.448272    30A     -0.331097

  @DF-RHF Final Energy:  -361.87373760515788

   => Energetics <=

    Nuclear Repulsion Energy =            372.2206808755872771
    One-Electron Energy =               -1229.0101065237240618
    Two-Electron Energy =                 494.9156880429788998
    Total Energy =                       -361.8737376051578849
  Basis Set: (AUG-CC-PVTZ AUX)
    Blend: AUG-CC-PVTZ-RI
    Molecular point group: c1

    Geometry (in Angstrom), charge = 0, multiplicity = 1:

       Center              X                  Y                   Z               Mass
    ------------   -----------------  -----------------  -----------------  -----------------
         O            0.889468131635    -1.002088694882    -0.421605003627    15.994914619570
         N            0.693784131635     1.108310305118     0.313609996373    14.003074004430
         C           -1.398559868365    -0.144251694882    -0.363566003627    12.000000000000
         C            0.063901131635     0.057649305118    -0.145584003627    12.000000000000
         C           -2.141622868365     1.181240305118    -0.220918003627    12.000000000000
         C           -1.939027868365    -1.206901694882     0.600703996373    12.000000000000
         C            2.144530131635    -0.552951694882    -0.102439003627    12.000000000000
         C            2.029905131635     0.727536305118     0.343436996373    12.000000000000
         H           -1.528312868365    -0.524170694882    -1.407596403627     1.007825032230
         H           -2.020206868365     1.578097305118     0.789805996373     1.007825032230
         H           -3.207896868365     1.031445305118    -0.414679003627     1.007825032230
         H           -1.757888868365     1.926814305118    -0.920845003627     1.007825032230
         H           -1.821976868365    -0.869533694882     1.635224996373     1.007825032230
         H           -1.406325868365    -2.154009694882     0.482801996373     1.007825032230
         H           -3.002949868365    -1.381814694882     0.413724996373     1.007825032230
         H            2.958541131635    -1.244418694882    -0.254227003627     1.007825032230
         H            2.805709131635     1.400170305118     0.680352996373     1.007825032230

  Basis Set: AUG-CC-PVTZ
    Blend: AUG-CC-PVTZ
  Basis Set: (AUG-CC-PVTZ AUX)
    Blend: AUG-CC-PVTZ-JKFIT
	 Reference Energy          =    -361.8737376051578849 [Eh]
	 Singles Energy            =      -0.0000000000000000 [Eh]
	 Same-Spin Energy          =      -0.3800045874137210 [Eh]
	 Opposite-Spin Energy      =      -1.2185757964350865 [Eh]
	 Correlation Energy        =      -1.5985803838488075 [Eh]
	 Total Energy              =    -363.4723179890066831 [Eh]

	 ================> DF-SCS-MP2 Energies <==================
	-----------------------------------------------------------
	 SCS Same-Spin Scale       =       0.3333333333333333 [-]
	 SCS Opposite-Spin Scale   =       1.2000000000000000 [-]
	 SCS Same-Spin Energy      =      -0.1266681958045736 [Eh]
	 SCS Opposite-Spin Energy  =      -1.4622909557221038 [Eh]
	 SCS Correlation Energy    =      -1.5889591515266774 [Eh]
	 SCS Total Energy          =    -363.4626967566845792 [Eh]
	-----------------------------------------------------------

  Dipole Moment: [D]
     X:     0.1777      Y:    -1.2534      Z:    -0.3626     Total:     1.3169

*** Psi4 exiting successfully. Buy a developer a beer!
