                               Psi4 1.4a3.dev225

  ==> Input File <==

--------------------------------------------------------------------------
#psi4
#
memory 32 gb

molecule  {
0 1
  O        0.9828527    -1.0420495    -0.4431140
  N        0.7679840     1.1102310     0.3050190
  C       -1.3243600    -0.1423310    -0.3721570
  C        0.1381010     0.0595700    -0.1541750
  C       -2.0674230     1.1831610    -0.2295090
  C       -1.8648280    -1.2049810     0.5921130
  C        2.2187300    -0.5510310    -0.1110300
  C        2.1041050     0.7294570     0.3348460
  H       -1.4517930    -0.5154570    -1.3975200
  H       -1.9460070     1.5800180     0.7812150
  H       -3.1336970     1.0333660    -0.4232700
  H       -1.6836890     1.9287350    -0.9294360
  H       -1.7477770    -0.8676130     1.6266340
  H       -1.3321260    -2.1520890     0.4742110
  H       -2.9287500    -1.3798940     0.4051340
  H        3.0327410    -1.2424980    -0.2628180
  H        2.8799090     1.4020910     0.6717620
units angstrom
no_reorient  #important for SAPT in psi4, default
symmetry c1  #important for SAPT in psi4, default
}

set PROPERTIES_ORIGIN ["COM"]
properties('MP2/aug-cc-pvtz', properties = ['dipole'])
--------------------------------------------------------------------------

    Molecular point group: c1
  Charge       = 0
  Multiplicity = 1
  Basis Set: AUG-CC-PVTZ
    Blend: AUG-CC-PVTZ
  Basis Set: (AUG-CC-PVTZ AUX)
    Blend: AUG-CC-PVTZ-JKFIT

    Orbital Energies [Eh]
    ---------------------

    Doubly Occupied:

       1A    -20.632402     2A    -15.566053     3A    -11.338979
       4A    -11.291422     5A    -11.259871     6A    -11.252503
       7A    -11.225585     8A    -11.218104     9A     -1.460041
      10A     -1.230110    11A     -1.102811    12A     -1.001566
      13A     -0.939409    14A     -0.859627    15A     -0.823295
      16A     -0.769169    17A     -0.710467    18A     -0.655205
      19A     -0.631200    20A     -0.605640    21A     -0.600074
      22A     -0.573100    23A     -0.557796    24A     -0.542258
      25A     -0.506364    26A     -0.491965    27A     -0.489767
      28A     -0.458981    29A     -0.452117    30A     -0.329454

  @DF-RHF Final Energy:  -361.86906797323576

   => Energetics <=

    Nuclear Repulsion Energy =            370.9975900629304988
    One-Electron Energy =               -1226.5826451107891444
    Two-Electron Energy =                 493.7159870746228876
    Total Energy =                       -361.8690679732357580
  Basis Set: (AUG-CC-PVTZ AUX)
    Blend: AUG-CC-PVTZ-RI
    Molecular point group: c1

    Geometry (in Angstrom), charge = 0, multiplicity = 1:

       Center              X                  Y                   Z               Mass
    ------------   -----------------  -----------------  -----------------  -----------------
         O            0.905868999745    -1.038000497127    -0.432832074340    15.994914619570
         N            0.691000299745     1.114280002873     0.315300925660    14.003074004430
         C           -1.401343700255    -0.138281997127    -0.361875074340    12.000000000000
         C            0.061117299745     0.063619002873    -0.143893074340    12.000000000000
         C           -2.144406700255     1.187210002873    -0.219227074340    12.000000000000
         C           -1.941811700255    -1.200931997127     0.602394925660    12.000000000000
         C            2.141746299745    -0.546981997127    -0.100748074340    12.000000000000
         C            2.027121299745     0.733506002873     0.345127925660    12.000000000000
         H           -1.528776700255    -0.511407997127    -1.387238074340     1.007825032230
         H           -2.022990700255     1.584067002873     0.791496925660     1.007825032230
         H           -3.210680700255     1.037415002873    -0.412988074340     1.007825032230
         H           -1.760672700255     1.932784002873    -0.919154074340     1.007825032230
         H           -1.824760700255    -0.863563997127     1.636915925660     1.007825032230
         H           -1.409109700255    -2.148039997127     0.484492925660     1.007825032230
         H           -3.005733700255    -1.375844997127     0.415415925660     1.007825032230
         H            2.955757299745    -1.238448997127    -0.252536074340     1.007825032230
         H            2.802925299745     1.406140002873     0.682043925660     1.007825032230

  Basis Set: AUG-CC-PVTZ
    Blend: AUG-CC-PVTZ
  Basis Set: (AUG-CC-PVTZ AUX)
    Blend: AUG-CC-PVTZ-JKFIT
	 Reference Energy          =    -361.8690679732357580 [Eh]
	 Singles Energy            =      -0.0000000000000000 [Eh]
	 Same-Spin Energy          =      -0.3805788341467465 [Eh]
	 Opposite-Spin Energy      =      -1.2205723189966369 [Eh]
	 Correlation Energy        =      -1.6011511531433835 [Eh]
	 Total Energy              =    -363.4702191263791633 [Eh]

	 ================> DF-SCS-MP2 Energies <==================
	-----------------------------------------------------------
	 SCS Same-Spin Scale       =       0.3333333333333333 [-]
	 SCS Opposite-Spin Scale   =       1.2000000000000000 [-]
	 SCS Same-Spin Energy      =      -0.1268596113822488 [Eh]
	 SCS Opposite-Spin Energy  =      -1.4646867827959642 [Eh]
	 SCS Correlation Energy    =      -1.5915463941782131 [Eh]
	 SCS Total Energy          =    -363.4606143674139958 [Eh]
	-----------------------------------------------------------

  Dipole Moment: [D]
     X:     0.1018      Y:    -1.1156      Z:    -0.3288     Total:     1.1675

*** Psi4 exiting successfully. Buy a developer a beer!
