                               Psi4 1.4a3.dev225

  ==> Input File <==

--------------------------------------------------------------------------
#psi4
#
memory 32 gb

molecule  {
0 1
  O        0.9636680    -1.0001680    -0.4301960
  N        0.7679840     1.1102310     0.3050190
  C       -1.3243600    -0.1423310    -0.3721570
  C        0.1260614     0.0750246    -0.1501497
  C       -2.0674230     1.1831610    -0.2295090
  C       -1.8648280    -1.2049810     0.5921130
  C        2.2187300    -0.5510310    -0.1110300
  C        2.1041050     0.7294570     0.3348460
  H       -1.4517930    -0.5154570    -1.3975200
  H       -1.9460070     1.5800180     0.7812150
  H       -3.1336970     1.0333660    -0.4232700
  H       -1.6836890     1.9287350    -0.9294360
  H       -1.7477770    -0.8676130     1.6266340
  H       -1.3321260    -2.1520890     0.4742110
  H       -2.9287500    -1.3798940     0.4051340
  H        3.0327410    -1.2424980    -0.2628180
  H        2.8799090     1.4020910     0.6717620
units angstrom
no_reorient  #important for SAPT in psi4, default
symmetry c1  #important for SAPT in psi4, default
}

set PROPERTIES_ORIGIN ["COM"]
properties('MP2/aug-cc-pvtz', properties = ['dipole'])
--------------------------------------------------------------------------

    Molecular point group: c1
  Charge       = 0
  Multiplicity = 1
  Basis Set: AUG-CC-PVTZ
    Blend: AUG-CC-PVTZ
  Basis Set: (AUG-CC-PVTZ AUX)
    Blend: AUG-CC-PVTZ-JKFIT

    Orbital Energies [Eh]
    ---------------------

    Doubly Occupied:

       1A    -20.629598     2A    -15.560954     3A    -11.334436
       4A    -11.290950     5A    -11.259387     6A    -11.251549
       7A    -11.225820     8A    -11.217635     9A     -1.467368
      10A     -1.227194    11A     -1.105078    12A     -1.005264
      13A     -0.939521    14A     -0.860551    15A     -0.824970
      16A     -0.769083    17A     -0.712756    18A     -0.659307
      19A     -0.635036    20A     -0.607060    21A     -0.601338
      22A     -0.568540    23A     -0.558132    24A     -0.542204
      25A     -0.508049    26A     -0.491779    27A     -0.490215
      28A     -0.454411    29A     -0.449046    30A     -0.331108

  @DF-RHF Final Energy:  -361.87333603759572

   => Energetics <=

    Nuclear Repulsion Energy =            372.2318082959873209
    One-Electron Energy =               -1229.0536089235099553
    Two-Electron Energy =                 494.9484645899269140
    Total Energy =                       -361.8733360375957204
  Basis Set: (AUG-CC-PVTZ AUX)
    Blend: AUG-CC-PVTZ-RI
    Molecular point group: c1

    Geometry (in Angstrom), charge = 0, multiplicity = 1:

       Center              X                  Y                   Z               Mass
    ------------   -----------------  -----------------  -----------------  -----------------
         O            0.890747856814    -1.003820072406    -0.422209289496    15.994914619570
         N            0.695063856814     1.106578927594     0.313005710504    14.003074004430
         C           -1.397280143186    -0.145983072406    -0.364170289496    12.000000000000
         C            0.053141256814     0.071372527594    -0.142162989496    12.000000000000
         C           -2.140343143186     1.179508927594    -0.221522289496    12.000000000000
         C           -1.937748143186    -1.208633072406     0.600099710504    12.000000000000
         C            2.145809856814    -0.554683072406    -0.103043289496    12.000000000000
         C            2.031184856814     0.725804927594     0.342832710504    12.000000000000
         H           -1.524713143186    -0.519109072406    -1.389533289496     1.007825032230
         H           -2.018927143186     1.576365927594     0.789201710504     1.007825032230
         H           -3.206617143186     1.029713927594    -0.415283289496     1.007825032230
         H           -1.756609143186     1.925082927594    -0.921449289496     1.007825032230
         H           -1.820697143186    -0.871265072406     1.634620710504     1.007825032230
         H           -1.405046143186    -2.155741072406     0.482197710504     1.007825032230
         H           -3.001670143186    -1.383546072406     0.413120710504     1.007825032230
         H            2.959820856814    -1.246150072406    -0.254831289496     1.007825032230
         H            2.806988856814     1.398438927594     0.679748710504     1.007825032230

  Basis Set: AUG-CC-PVTZ
    Blend: AUG-CC-PVTZ
  Basis Set: (AUG-CC-PVTZ AUX)
    Blend: AUG-CC-PVTZ-JKFIT
	 Reference Energy          =    -361.8733360375957204 [Eh]
	 Singles Energy            =      -0.0000000000000000 [Eh]
	 Same-Spin Energy          =      -0.3801283387245240 [Eh]
	 Opposite-Spin Energy      =      -1.2188477859256672 [Eh]
	 Correlation Energy        =      -1.5989761246501912 [Eh]
	 Total Energy              =    -363.4723121622458848 [Eh]

	 ================> DF-SCS-MP2 Energies <==================
	-----------------------------------------------------------
	 SCS Same-Spin Scale       =       0.3333333333333333 [-]
	 SCS Opposite-Spin Scale   =       1.2000000000000000 [-]
	 SCS Same-Spin Energy      =      -0.1267094462415080 [Eh]
	 SCS Opposite-Spin Energy  =      -1.4626173431108007 [Eh]
	 SCS Correlation Energy    =      -1.5893267893523086 [Eh]
	 SCS Total Energy          =    -363.4626628269480193 [Eh]
	-----------------------------------------------------------

  Dipole Moment: [D]
     X:     0.1264      Y:    -1.2158      Z:    -0.3591     Total:     1.2740

*** Psi4 exiting successfully. Buy a developer a beer!
