                               Psi4 1.4a3.dev225

  ==> Input File <==

--------------------------------------------------------------------------
#psi4
#
memory 32 gb

molecule  {
0 1
  O        0.9636680    -1.0001680    -0.4301960
  N        0.7679840     1.1102310     0.3050190
  C       -1.3243600    -0.1423310    -0.3721570
  C        0.1381010     0.0595700    -0.1541750
  C       -2.0674230     1.1831610    -0.2295090
  C       -1.8295804    -1.1356783     0.5292263
  C        2.2187300    -0.5510310    -0.1110300
  C        2.1041050     0.7294570     0.3348460
  H       -1.4517930    -0.5154570    -1.3975200
  H       -1.9460070     1.5800180     0.7812150
  H       -3.1336970     1.0333660    -0.4232700
  H       -1.6836890     1.9287350    -0.9294360
  H       -1.7477770    -0.8676130     1.6266340
  H       -1.3321260    -2.1520890     0.4742110
  H       -2.9287500    -1.3798940     0.4051340
  H        3.0327410    -1.2424980    -0.2628180
  H        2.8799090     1.4020910     0.6717620
units angstrom
no_reorient  #important for SAPT in psi4, default
symmetry c1  #important for SAPT in psi4, default
}

set PROPERTIES_ORIGIN ["COM"]
properties('MP2/aug-cc-pvtz', properties = ['dipole'])
--------------------------------------------------------------------------

    Molecular point group: c1
  Charge       = 0
  Multiplicity = 1
  Basis Set: AUG-CC-PVTZ
    Blend: AUG-CC-PVTZ
  Basis Set: (AUG-CC-PVTZ AUX)
    Blend: AUG-CC-PVTZ-JKFIT

    Orbital Energies [Eh]
    ---------------------

    Doubly Occupied:

       1A    -20.634175     2A    -15.561020     3A    -11.335489
       4A    -11.290934     5A    -11.260509     6A    -11.247635
       7A    -11.230021     8A    -11.217721     9A     -1.476368
      10A     -1.226333    11A     -1.118133    12A     -1.009185
      13A     -0.938361    14A     -0.856317    15A     -0.827035
      16A     -0.772777    17A     -0.717213    18A     -0.665230
      19A     -0.637698    20A     -0.613528    21A     -0.600045
      22A     -0.572203    23A     -0.560569    24A     -0.533758
      25A     -0.512822    26A     -0.488645    27A     -0.475312
      28A     -0.455160    29A     -0.449150    30A     -0.332499

  @DF-RHF Final Energy:  -361.86267029729481

   => Energetics <=

    Nuclear Repulsion Energy =            373.9866558467065261
    One-Electron Energy =               -1232.4669606072629904
    Two-Electron Energy =                 496.6176344632616519
    Total Energy =                       -361.8626702972948124
  Basis Set: (AUG-CC-PVTZ AUX)
    Blend: AUG-CC-PVTZ-RI
    Molecular point group: c1

    Geometry (in Angstrom), charge = 0, multiplicity = 1:

       Center              X                  Y                   Z               Mass
    ------------   -----------------  -----------------  -----------------  -----------------
         O            0.885638875962    -1.009637902851    -0.414980015469    15.994914619570
         N            0.689954875962     1.100761097149     0.320234984531    14.003074004430
         C           -1.402389124038    -0.151800902851    -0.356941015469    12.000000000000
         C            0.060071875962     0.050100097149    -0.138959015469    12.000000000000
         C           -2.145452124038     1.173691097149    -0.214293015469    12.000000000000
         C           -1.907609524038    -1.145148202851     0.544442284531    12.000000000000
         C            2.140700875962    -0.560500902851    -0.095814015469    12.000000000000
         C            2.026075875962     0.719987097149     0.350061984531    12.000000000000
         H           -1.529822124038    -0.524926902851    -1.382304015469     1.007825032230
         H           -2.024036124038     1.570548097149     0.796430984531     1.007825032230
         H           -3.211726124038     1.023896097149    -0.408054015469     1.007825032230
         H           -1.761718124038     1.919265097149    -0.914220015469     1.007825032230
         H           -1.825806124038    -0.877082902851     1.641849984531     1.007825032230
         H           -1.410155124038    -2.161558902851     0.489426984531     1.007825032230
         H           -3.006779124038    -1.389363902851     0.420349984531     1.007825032230
         H            2.954711875962    -1.251967902851    -0.247602015469     1.007825032230
         H            2.801879875962     1.392621097149     0.686977984531     1.007825032230

  Basis Set: AUG-CC-PVTZ
    Blend: AUG-CC-PVTZ
  Basis Set: (AUG-CC-PVTZ AUX)
    Blend: AUG-CC-PVTZ-JKFIT
	 Reference Energy          =    -361.8626702972948124 [Eh]
	 Singles Energy            =      -0.0000000000000000 [Eh]
	 Same-Spin Energy          =      -0.3810543679496887 [Eh]
	 Opposite-Spin Energy      =      -1.2197575743944444 [Eh]
	 Correlation Energy        =      -1.6008119423441332 [Eh]
	 Total Energy              =    -363.4634822396389495 [Eh]

	 ================> DF-SCS-MP2 Energies <==================
	-----------------------------------------------------------
	 SCS Same-Spin Scale       =       0.3333333333333333 [-]
	 SCS Opposite-Spin Scale   =       1.2000000000000000 [-]
	 SCS Same-Spin Energy      =      -0.1270181226498962 [Eh]
	 SCS Opposite-Spin Energy  =      -1.4637090892733333 [Eh]
	 SCS Correlation Energy    =      -1.5907272119232296 [Eh]
	 SCS Total Energy          =    -363.4533975092180640 [Eh]
	-----------------------------------------------------------

  Dipole Moment: [D]
     X:     0.2167      Y:    -1.2433      Z:    -0.3839     Total:     1.3191

*** Psi4 exiting successfully. Buy a developer a beer!
