                               Psi4 1.4a3.dev225

  ==> Input File <==

--------------------------------------------------------------------------
#psi4
#
memory 32 gb

molecule  {
0 1
  O        0.9636680    -1.0001680    -0.4301960
  N        0.7679840     1.1102310     0.3050190
  C       -1.3243600    -0.1423310    -0.3721570
  C        0.1381010     0.0595700    -0.1541750
  C       -2.0674230     1.1831610    -0.2295090
  C       -1.8648280    -1.2049810     0.5921130
  C        2.2187300    -0.5510310    -0.1110300
  C        2.1041050     0.7294570     0.3348460
  H       -1.4517930    -0.5154570    -1.3975200
  H       -1.9460070     1.5800180     0.7812150
  H       -3.1336970     1.0333660    -0.4232700
  H       -1.7188211     1.8604752    -0.8653553
  H       -1.7477770    -0.8676130     1.6266340
  H       -1.3321260    -2.1520890     0.4742110
  H       -2.9287500    -1.3798940     0.4051340
  H        3.0327410    -1.2424980    -0.2628180
  H        2.8799090     1.4020910     0.6717620
units angstrom
no_reorient  #important for SAPT in psi4, default
symmetry c1  #important for SAPT in psi4, default
}

set PROPERTIES_ORIGIN ["COM"]
properties('MP2/aug-cc-pvtz', properties = ['dipole'])
--------------------------------------------------------------------------

    Molecular point group: c1
  Charge       = 0
  Multiplicity = 1
  Basis Set: AUG-CC-PVTZ
    Blend: AUG-CC-PVTZ
  Basis Set: (AUG-CC-PVTZ AUX)
    Blend: AUG-CC-PVTZ-JKFIT

    Orbital Energies [Eh]
    ---------------------

    Doubly Occupied:

       1A    -20.633449     2A    -15.560228     3A    -11.334732
       4A    -11.290343     5A    -11.260110     6A    -11.250712
       7A    -11.224718     8A    -11.204981     9A     -1.475643
      10A     -1.225600    11A     -1.104564    12A     -1.006810
      13A     -0.946400    14A     -0.860833    15A     -0.827122
      16A     -0.772572    17A     -0.713895    18A     -0.662535
      19A     -0.636097    20A     -0.617030    21A     -0.599449
      22A     -0.571949    23A     -0.559731    24A     -0.540911
      25A     -0.507526    26A     -0.497928    27A     -0.488592
      28A     -0.455449    29A     -0.448284    30A     -0.331112

  @DF-RHF Final Energy:  -361.86818892616628

   => Energetics <=

    Nuclear Repulsion Energy =            372.7710471890896429
    One-Electron Energy =               -1230.0598622677327967
    Two-Electron Energy =                 495.4206261524769275
    Total Energy =                       -361.8681889261662832
  Basis Set: (AUG-CC-PVTZ AUX)
    Blend: AUG-CC-PVTZ-RI
    Molecular point group: c1

    Geometry (in Angstrom), charge = 0, multiplicity = 1:

       Center              X                  Y                   Z               Mass
    ------------   -----------------  -----------------  -----------------  -----------------
         O            0.889765865748    -1.001530950538    -0.422355852619    15.994914619570
         N            0.694081865748     1.108868049462     0.312859147381    14.003074004430
         C           -1.398262134252    -0.143693950538    -0.364316852619    12.000000000000
         C            0.064198865748     0.058207049462    -0.146334852619    12.000000000000
         C           -2.141325134252     1.181798049462    -0.221668852619    12.000000000000
         C           -1.938730134252    -1.206343950538     0.599953147381    12.000000000000
         C            2.144827865748    -0.552393950538    -0.103189852619    12.000000000000
         C            2.030202865748     0.728094049462     0.342686147381    12.000000000000
         H           -1.525695134252    -0.516819950538    -1.389679852619     1.007825032230
         H           -2.019909134252     1.578655049462     0.789055147381     1.007825032230
         H           -3.207599134252     1.032003049462    -0.415429852619     1.007825032230
         H           -1.792723234252     1.859112249462    -0.857515152619     1.007825032230
         H           -1.821679134252    -0.868975950538     1.634474147381     1.007825032230
         H           -1.406028134252    -2.153451950538     0.482051147381     1.007825032230
         H           -3.002652134252    -1.381256950538     0.412974147381     1.007825032230
         H            2.958838865748    -1.243860950538    -0.254977852619     1.007825032230
         H            2.806006865748     1.400728049462     0.679602147381     1.007825032230

  Basis Set: AUG-CC-PVTZ
    Blend: AUG-CC-PVTZ
  Basis Set: (AUG-CC-PVTZ AUX)
    Blend: AUG-CC-PVTZ-JKFIT
	 Reference Energy          =    -361.8681889261662832 [Eh]
	 Singles Energy            =      -0.0000000000000000 [Eh]
	 Same-Spin Energy          =      -0.3799882831453802 [Eh]
	 Opposite-Spin Energy      =      -1.2179198452138962 [Eh]
	 Correlation Energy        =      -1.5979081283592764 [Eh]
	 Total Energy              =    -363.4660970545255623 [Eh]

	 ================> DF-SCS-MP2 Energies <==================
	-----------------------------------------------------------
	 SCS Same-Spin Scale       =       0.3333333333333333 [-]
	 SCS Opposite-Spin Scale   =       1.2000000000000000 [-]
	 SCS Same-Spin Energy      =      -0.1266627610484601 [Eh]
	 SCS Opposite-Spin Energy  =      -1.4615038142566754 [Eh]
	 SCS Correlation Energy    =      -1.5881665753051355 [Eh]
	 SCS Total Energy          =    -363.4563555014714211 [Eh]
	-----------------------------------------------------------

  Dipole Moment: [D]
     X:     0.1773      Y:    -1.2188      Z:    -0.3997     Total:     1.2949

*** Psi4 exiting successfully. Buy a developer a beer!
