                               Psi4 1.4a3.dev225

  ==> Input File <==

--------------------------------------------------------------------------
#psi4
#
memory 32 gb

molecule  {
0 1
  O        0.9636680    -1.0001680    -0.4301960
  N        0.7679840     1.1102310     0.3050190
  C       -1.3243600    -0.1423310    -0.3721570
  C        0.1381010     0.0595700    -0.1541750
  C       -2.0674230     1.1831610    -0.2295090
  C       -1.8648280    -1.2049810     0.5921130
  C        2.2187300    -0.5510310    -0.1110300
  C        2.1041050     0.7294570     0.3348460
  H       -1.4517930    -0.5154570    -1.3975200
  H       -1.9460070     1.5800180     0.7812150
  H       -3.1336970     1.0333660    -0.4232700
  H       -1.6836890     1.9287350    -0.9294360
  H       -1.7477770    -0.8676130     1.6266340
  H       -1.3808629    -2.0654382     0.4849978
  H       -2.9287500    -1.3798940     0.4051340
  H        3.0327410    -1.2424980    -0.2628180
  H        2.8799090     1.4020910     0.6717620
units angstrom
no_reorient  #important for SAPT in psi4, default
symmetry c1  #important for SAPT in psi4, default
}

set PROPERTIES_ORIGIN ["COM"]
properties('MP2/aug-cc-pvtz', properties = ['dipole'])
--------------------------------------------------------------------------

    Molecular point group: c1
  Charge       = 0
  Multiplicity = 1
  Basis Set: AUG-CC-PVTZ
    Blend: AUG-CC-PVTZ
  Basis Set: (AUG-CC-PVTZ AUX)
    Blend: AUG-CC-PVTZ-JKFIT

    Orbital Energies [Eh]
    ---------------------

    Doubly Occupied:

       1A    -20.633690     2A    -15.560028     3A    -11.334670
       4A    -11.290331     5A    -11.260128     6A    -11.250708
       7A    -11.216467     8A    -11.213312     9A     -1.475817
      10A     -1.225479    11A     -1.104808    12A     -1.007021
      13A     -0.946505    14A     -0.861355    15A     -0.826399
      16A     -0.772397    17A     -0.713893    18A     -0.662785
      19A     -0.636374    20A     -0.617778    21A     -0.599610
      22A     -0.571761    23A     -0.560731    24A     -0.540989
      25A     -0.507267    26A     -0.495034    27A     -0.489721
      28A     -0.455221    29A     -0.448352    30A     -0.331096

  @DF-RHF Final Energy:  -361.86825862607674

   => Energetics <=

    Nuclear Repulsion Energy =            372.7556363810232938
    One-Electron Energy =               -1230.0283381186206952
    Two-Electron Energy =                 495.4044431115206066
    Total Energy =                       -361.8682586260767380
  Basis Set: (AUG-CC-PVTZ AUX)
    Blend: AUG-CC-PVTZ-RI
    Molecular point group: c1

    Geometry (in Angstrom), charge = 0, multiplicity = 1:

       Center              X                  Y                   Z               Mass
    ------------   -----------------  -----------------  -----------------  -----------------
         O            0.889889314508    -1.002936595715    -0.421872268451    15.994914619570
         N            0.694205314508     1.107462404285     0.313342731549    14.003074004430
         C           -1.398138685492    -0.145099595715    -0.363833268451    12.000000000000
         C            0.064322314508     0.056801404285    -0.145851268451    12.000000000000
         C           -2.141201685492     1.180392404285    -0.221185268451    12.000000000000
         C           -1.938606685492    -1.207749595715     0.600436731549    12.000000000000
         C            2.144951314508    -0.553799595715    -0.102706268451    12.000000000000
         C            2.030326314508     0.726688404285     0.343169731549    12.000000000000
         H           -1.525571685492    -0.518225595715    -1.389196268451     1.007825032230
         H           -2.019785685492     1.577249404285     0.789538731549     1.007825032230
         H           -3.207475685492     1.030597404285    -0.414946268451     1.007825032230
         H           -1.757467685492     1.925966404285    -0.921112268451     1.007825032230
         H           -1.821555685492    -0.870381595715     1.634957731549     1.007825032230
         H           -1.454641585492    -2.068206795715     0.493321531549     1.007825032230
         H           -3.002528685492    -1.382662595715     0.413457731549     1.007825032230
         H            2.958962314508    -1.245266595715    -0.254494268451     1.007825032230
         H            2.806130314508     1.399322404285     0.680085731549     1.007825032230

  Basis Set: AUG-CC-PVTZ
    Blend: AUG-CC-PVTZ
  Basis Set: (AUG-CC-PVTZ AUX)
    Blend: AUG-CC-PVTZ-JKFIT
	 Reference Energy          =    -361.8682586260767380 [Eh]
	 Singles Energy            =      -0.0000000000000000 [Eh]
	 Same-Spin Energy          =      -0.3799749038879913 [Eh]
	 Opposite-Spin Energy      =      -1.2179079389312037 [Eh]
	 Correlation Energy        =      -1.5978828428191951 [Eh]
	 Total Energy              =    -363.4661414688959553 [Eh]

	 ================> DF-SCS-MP2 Energies <==================
	-----------------------------------------------------------
	 SCS Same-Spin Scale       =       0.3333333333333333 [-]
	 SCS Opposite-Spin Scale   =       1.2000000000000000 [-]
	 SCS Same-Spin Energy      =      -0.1266583012959971 [Eh]
	 SCS Opposite-Spin Energy  =      -1.4614895267174444 [Eh]
	 SCS Correlation Energy    =      -1.5881478280134413 [Eh]
	 SCS Total Energy          =    -363.4564064540901995 [Eh]
	-----------------------------------------------------------

  Dipole Moment: [D]
     X:     0.1867      Y:    -1.3033      Z:    -0.3655     Total:     1.3664

*** Psi4 exiting successfully. Buy a developer a beer!
