                               Psi4 1.4a3.dev225

  ==> Input File <==

--------------------------------------------------------------------------
#psi4
#
memory 32 gb

molecule  {
0 1
  O        0.9636680    -1.0001680    -0.4301960
  N        0.7679840     1.1102310     0.3050190
  C       -1.3243600    -0.1423310    -0.3721570
  C        0.1381010     0.0595700    -0.1541750
  C       -2.0674230     1.1831610    -0.2295090
  C       -1.8648280    -1.2049810     0.5921130
  C        2.2187300    -0.5510310    -0.1110300
  C        2.1041050     0.7294570     0.3348460
  H       -1.4459930    -0.4984745    -1.3508514
  H       -1.9460070     1.5800180     0.7812150
  H       -3.1336970     1.0333660    -0.4232700
  H       -1.6836890     1.9287350    -0.9294360
  H       -1.7477770    -0.8676130     1.6266340
  H       -1.3321260    -2.1520890     0.4742110
  H       -2.9287500    -1.3798940     0.4051340
  H        3.0327410    -1.2424980    -0.2628180
  H        2.8799090     1.4020910     0.6717620
units angstrom
no_reorient  #important for SAPT in psi4, default
symmetry c1  #important for SAPT in psi4, default
}

set PROPERTIES_ORIGIN ["COM"]
properties('MP2/aug-cc-pvtz', properties = ['dipole'])
--------------------------------------------------------------------------

    Molecular point group: c1
  Charge       = 0
  Multiplicity = 1
  Basis Set: AUG-CC-PVTZ
    Blend: AUG-CC-PVTZ
  Basis Set: (AUG-CC-PVTZ AUX)
    Blend: AUG-CC-PVTZ-JKFIT

    Orbital Energies [Eh]
    ---------------------

    Doubly Occupied:

       1A    -20.633522     2A    -15.559850     3A    -11.334396
       4A    -11.290176     5A    -11.259961     6A    -11.245449
       7A    -11.225093     8A    -11.216863     9A     -1.475654
      10A     -1.225331    11A     -1.105709    12A     -1.006187
      13A     -0.938737    14A     -0.861230    15A     -0.826281
      16A     -0.773924    17A     -0.717205    18A     -0.662225
      19A     -0.637290    20A     -0.607579    21A     -0.599538
      22A     -0.571636    23A     -0.557648    24A     -0.541607
      25A     -0.506310    26A     -0.494860    27A     -0.490012
      28A     -0.455029    29A     -0.448144    30A     -0.331179

  @DF-RHF Final Energy:  -361.87347143778857

   => Energetics <=

    Nuclear Repulsion Energy =            372.5871818576667920
    One-Electron Energy =               -1229.7240520342541004
    Two-Electron Energy =                 495.2633987387987418
    Total Energy =                       -361.8734714377885666
  Basis Set: (AUG-CC-PVTZ AUX)
    Blend: AUG-CC-PVTZ-RI
    Molecular point group: c1

    Geometry (in Angstrom), charge = 0, multiplicity = 1:

       Center              X                  Y                   Z               Mass
    ------------   -----------------  -----------------  -----------------  -----------------
         O            0.889394451468    -1.002304431681    -0.422197856753    15.994914619570
         N            0.693710451468     1.108094568319     0.313017143247    14.003074004430
         C           -1.398633548532    -0.144467431681    -0.364158856753    12.000000000000
         C            0.063827451468     0.057433568319    -0.146176856753    12.000000000000
         C           -2.141696548532     1.181024568319    -0.221510856753    12.000000000000
         C           -1.939101548532    -1.207117431681     0.600111143247    12.000000000000
         C            2.144456451468    -0.553167431681    -0.103031856753    12.000000000000
         C            2.029831451468     0.727320568319     0.342844143247    12.000000000000
         H           -1.520266548532    -0.500610931681    -1.342853256753     1.007825032230
         H           -2.020280548532     1.577881568319     0.789213143247     1.007825032230
         H           -3.207970548532     1.031229568319    -0.415271856753     1.007825032230
         H           -1.757962548532     1.926598568319    -0.921437856753     1.007825032230
         H           -1.822050548532    -0.869749431681     1.634632143247     1.007825032230
         H           -1.406399548532    -2.154225431681     0.482209143247     1.007825032230
         H           -3.003023548532    -1.382030431681     0.413132143247     1.007825032230
         H            2.958467451468    -1.244634431681    -0.254819856753     1.007825032230
         H            2.805635451468     1.399954568319     0.679760143247     1.007825032230

  Basis Set: AUG-CC-PVTZ
    Blend: AUG-CC-PVTZ
  Basis Set: (AUG-CC-PVTZ AUX)
    Blend: AUG-CC-PVTZ-JKFIT
	 Reference Energy          =    -361.8734714377885666 [Eh]
	 Singles Energy            =      -0.0000000000000000 [Eh]
	 Same-Spin Energy          =      -0.3799496510873233 [Eh]
	 Opposite-Spin Energy      =      -1.2181116488297250 [Eh]
	 Correlation Energy        =      -1.5980612999170483 [Eh]
	 Total Energy              =    -363.4715327377056155 [Eh]

	 ================> DF-SCS-MP2 Energies <==================
	-----------------------------------------------------------
	 SCS Same-Spin Scale       =       0.3333333333333333 [-]
	 SCS Opposite-Spin Scale   =       1.2000000000000000 [-]
	 SCS Same-Spin Energy      =      -0.1266498836957744 [Eh]
	 SCS Opposite-Spin Energy  =      -1.4617339785956700 [Eh]
	 SCS Correlation Energy    =      -1.5883838622914443 [Eh]
	 SCS Total Energy          =    -363.4618553000800034 [Eh]
	-----------------------------------------------------------

  Dipole Moment: [D]
     X:     0.1708      Y:    -1.2648      Z:    -0.3941     Total:     1.3357

*** Psi4 exiting successfully. Buy a developer a beer!
