                               Psi4 1.4a3.dev225

  ==> Input File <==

--------------------------------------------------------------------------
#psi4
#
memory 32 gb

molecule  {
0 1
  O        0.9636680    -1.0001680    -0.4301960
  N        0.7679840     1.1102310     0.3050190
  C       -1.3243600    -0.1423310    -0.3721570
  C        0.1381010     0.0595700    -0.1541750
  C       -2.0674230     1.1831610    -0.2295090
  C       -1.8648280    -1.2049810     0.5921130
  C        2.2187300    -0.5510310    -0.1110300
  C        2.1041050     0.7294570     0.3348460
  H       -1.4517930    -0.5154570    -1.3975200
  H       -1.9460070     1.5800180     0.7812150
  H       -3.1336970     1.0333660    -0.4232700
  H       -1.6836890     1.9287350    -0.9294360
  H       -1.7477770    -0.8676130     1.6266340
  H       -1.2346523    -2.3253906     0.4526373
  H       -2.9287500    -1.3798940     0.4051340
  H        3.0327410    -1.2424980    -0.2628180
  H        2.8799090     1.4020910     0.6717620
units angstrom
no_reorient  #important for SAPT in psi4, default
symmetry c1  #important for SAPT in psi4, default
}

set PROPERTIES_ORIGIN ["COM"]
properties('MP2/aug-cc-pvtz', properties = ['dipole'])
--------------------------------------------------------------------------

    Molecular point group: c1
  Charge       = 0
  Multiplicity = 1
  Basis Set: AUG-CC-PVTZ
    Blend: AUG-CC-PVTZ
  Basis Set: (AUG-CC-PVTZ AUX)
    Blend: AUG-CC-PVTZ-JKFIT

    Orbital Energies [Eh]
    ---------------------

    Doubly Occupied:

       1A    -20.633080     2A    -15.560487     3A    -11.335068
       4A    -11.290358     5A    -11.259984     6A    -11.253959
       7A    -11.247809     8A    -11.219449     9A     -1.475350
      10A     -1.225677    11A     -1.103461    12A     -1.005563
      13A     -0.930876    14A     -0.857145    15A     -0.826439
      16A     -0.771534    17A     -0.713336    18A     -0.661266
      19A     -0.636364    20A     -0.601628    21A     -0.592992
      22A     -0.571477    23A     -0.551118    24A     -0.544252
      25A     -0.507086    26A     -0.492898    27A     -0.471371
      28A     -0.455087    29A     -0.447606    30A     -0.331265

  @DF-RHF Final Energy:  -361.85394619898506

   => Energetics <=

    Nuclear Repulsion Energy =            371.5970140121407326
    One-Electron Energy =               -1227.7539497213931554
    Two-Electron Energy =                 494.3029895102673095
    Total Energy =                       -361.8539461989850565
  Basis Set: (AUG-CC-PVTZ AUX)
    Blend: AUG-CC-PVTZ-RI
    Molecular point group: c1

    Geometry (in Angstrom), charge = 0, multiplicity = 1:

       Center              X                  Y                   Z               Mass
    ------------   -----------------  -----------------  -----------------  -----------------
         O            0.888562612366    -1.000577810471    -0.421578632117    15.994914619570
         N            0.692878612366     1.109821189529     0.313636367883    14.003074004430
         C           -1.399465387634    -0.142740810471    -0.363539632117    12.000000000000
         C            0.062995612366     0.059160189529    -0.145557632117    12.000000000000
         C           -2.142528387634     1.182751189529    -0.220891632117    12.000000000000
         C           -1.939933387634    -1.205390810471     0.600730367883    12.000000000000
         C            2.143624612366    -0.551440810471    -0.102412632117    12.000000000000
         C            2.028999612366     0.729047189529     0.343463367883    12.000000000000
         H           -1.526898387634    -0.515866810471    -1.388902632117     1.007825032230
         H           -2.021112387634     1.579608189529     0.789832367883     1.007825032230
         H           -3.208802387634     1.032956189529    -0.414652632116     1.007825032230
         H           -1.758794387634     1.928325189529    -0.920818632116     1.007825032230
         H           -1.822882387634    -0.868022810471     1.635251367883     1.007825032230
         H           -1.309757687634    -2.325800410471     0.461254667884     1.007825032230
         H           -3.003855387634    -1.380303810471     0.413751367883     1.007825032230
         H            2.957635612366    -1.242907810471    -0.254200632117     1.007825032230
         H            2.804803612366     1.401681189529     0.680379367883     1.007825032230

  Basis Set: AUG-CC-PVTZ
    Blend: AUG-CC-PVTZ
  Basis Set: (AUG-CC-PVTZ AUX)
    Blend: AUG-CC-PVTZ-JKFIT
	 Reference Energy          =    -361.8539461989850565 [Eh]
	 Singles Energy            =      -0.0000000000000000 [Eh]
	 Same-Spin Energy          =      -0.3800839941037601 [Eh]
	 Opposite-Spin Energy      =      -1.2201312762587664 [Eh]
	 Correlation Energy        =      -1.6002152703625265 [Eh]
	 Total Energy              =    -363.4541614693475822 [Eh]

	 ================> DF-SCS-MP2 Energies <==================
	-----------------------------------------------------------
	 SCS Same-Spin Scale       =       0.3333333333333333 [-]
	 SCS Opposite-Spin Scale   =       1.2000000000000000 [-]
	 SCS Same-Spin Energy      =      -0.1266946647012534 [Eh]
	 SCS Opposite-Spin Energy  =      -1.4641575315105195 [Eh]
	 SCS Correlation Energy    =      -1.5908521962117730 [Eh]
	 SCS Total Energy          =    -363.4447983951968126 [Eh]
	-----------------------------------------------------------

  Dipole Moment: [D]
     X:     0.1418      Y:    -1.1219      Z:    -0.3892     Total:     1.1959

*** Psi4 exiting successfully. Buy a developer a beer!
