                               Psi4 1.4a3.dev225

  ==> Input File <==

--------------------------------------------------------------------------
#psi4
#
memory 32 gb

molecule  {
0 1
  O        0.9636680    -1.0001680    -0.4301960
  N        0.7679840     1.1102310     0.3050190
  C       -1.3243600    -0.1423310    -0.3721570
  C        0.1381010     0.0595700    -0.1541750
  C       -2.0674230     1.1831610    -0.2295090
  C       -1.8648280    -1.2049810     0.5921130
  C        2.1244985    -0.5518150    -0.1228874
  C        2.1041050     0.7294570     0.3348460
  H       -1.4517930    -0.5154570    -1.3975200
  H       -1.9460070     1.5800180     0.7812150
  H       -3.1336970     1.0333660    -0.4232700
  H       -1.6836890     1.9287350    -0.9294360
  H       -1.7477770    -0.8676130     1.6266340
  H       -1.3321260    -2.1520890     0.4742110
  H       -2.9287500    -1.3798940     0.4051340
  H        3.0327410    -1.2424980    -0.2628180
  H        2.8799090     1.4020910     0.6717620
units angstrom
no_reorient  #important for SAPT in psi4, default
symmetry c1  #important for SAPT in psi4, default
}

set PROPERTIES_ORIGIN ["COM"]
properties('MP2/aug-cc-pvtz', properties = ['dipole'])
--------------------------------------------------------------------------

    Molecular point group: c1
  Charge       = 0
  Multiplicity = 1
  Basis Set: AUG-CC-PVTZ
    Blend: AUG-CC-PVTZ
  Basis Set: (AUG-CC-PVTZ AUX)
    Blend: AUG-CC-PVTZ-JKFIT

    Orbital Energies [Eh]
    ---------------------

    Doubly Occupied:

       1A    -20.645764     2A    -15.562266     3A    -11.330251
       4A    -11.294140     5A    -11.251655     6A    -11.250895
       7A    -11.225200     8A    -11.216819     9A     -1.516273
      10A     -1.232783    11A     -1.104471    12A     -1.003604
      13A     -0.939127    14A     -0.864364    15A     -0.828408
      16A     -0.783356    17A     -0.716489    18A     -0.679309
      19A     -0.639384    20A     -0.608996    21A     -0.599993
      22A     -0.568707    23A     -0.556226    24A     -0.541681
      25A     -0.505187    26A     -0.491622    27A     -0.488671
      28A     -0.454400    29A     -0.451703    30A     -0.324100

  @DF-RHF Final Energy:  -361.86416081354298

   => Energetics <=

    Nuclear Repulsion Energy =            374.4594364578089198
    One-Electron Energy =               -1233.2955106960955618
    Two-Electron Energy =                 496.9719134247436614
    Total Energy =                       -361.8641608135429806
  Basis Set: (AUG-CC-PVTZ AUX)
    Blend: AUG-CC-PVTZ-RI
    Molecular point group: c1

    Geometry (in Angstrom), charge = 0, multiplicity = 1:

       Center              X                  Y                   Z               Mass
    ------------   -----------------  -----------------  -----------------  -----------------
         O            0.899627994427    -1.002065629417    -0.420493298484    15.994914619570
         N            0.703943994427     1.108333370583     0.314721701516    14.003074004430
         C           -1.388400005573    -0.144228629417    -0.362454298484    12.000000000000
         C            0.074060994427     0.057672370583    -0.144472298484    12.000000000000
         C           -2.131463005573     1.181263370583    -0.219806298484    12.000000000000
         C           -1.928868005573    -1.206878629417     0.601815701516    12.000000000000
         C            2.060458494427    -0.553712629417    -0.113184698484    12.000000000000
         C            2.040064994427     0.727559370583     0.344548701516    12.000000000000
         H           -1.515833005573    -0.517354629417    -1.387817298484     1.007825032230
         H           -2.010047005573     1.578120370583     0.790917701516     1.007825032230
         H           -3.197737005573     1.031468370583    -0.413567298484     1.007825032230
         H           -1.747729005573     1.926837370583    -0.919733298484     1.007825032230
         H           -1.811817005573    -0.869510629417     1.636336701516     1.007825032230
         H           -1.396166005573    -2.153986629417     0.483913701516     1.007825032230
         H           -2.992790005573    -1.381791629417     0.414836701516     1.007825032230
         H            2.968700994427    -1.244395629417    -0.253115298484     1.007825032230
         H            2.815868994427     1.400193370583     0.681464701516     1.007825032230

  Basis Set: AUG-CC-PVTZ
    Blend: AUG-CC-PVTZ
  Basis Set: (AUG-CC-PVTZ AUX)
    Blend: AUG-CC-PVTZ-JKFIT
	 Reference Energy          =    -361.8641608135429806 [Eh]
	 Singles Energy            =      -0.0000000000000000 [Eh]
	 Same-Spin Energy          =      -0.3805985795603377 [Eh]
	 Opposite-Spin Energy      =      -1.2178939776052360 [Eh]
	 Correlation Energy        =      -1.5984925571655737 [Eh]
	 Total Energy              =    -363.4626533707085514 [Eh]

	 ================> DF-SCS-MP2 Energies <==================
	-----------------------------------------------------------
	 SCS Same-Spin Scale       =       0.3333333333333333 [-]
	 SCS Opposite-Spin Scale   =       1.2000000000000000 [-]
	 SCS Same-Spin Energy      =      -0.1268661931867792 [Eh]
	 SCS Opposite-Spin Energy  =      -1.4614727731262831 [Eh]
	 SCS Correlation Energy    =      -1.5883389663130623 [Eh]
	 SCS Total Energy          =    -363.4524997798560548 [Eh]
	-----------------------------------------------------------

  Dipole Moment: [D]
     X:     0.0632      Y:    -1.2971      Z:    -0.4062     Total:     1.3607

*** Psi4 exiting successfully. Buy a developer a beer!
