                               Psi4 1.4a3.dev225

  ==> Input File <==

--------------------------------------------------------------------------
#psi4
#
memory 32 gb

molecule  {
0 1
  O        0.9636680    -1.0001680    -0.4301960
  N        0.7679840     1.1102310     0.3050190
  C       -1.3243600    -0.1423310    -0.3721570
  C        0.1381010     0.0595700    -0.1541750
  C       -2.0674230     1.1831610    -0.2295090
  C       -1.8648280    -1.2049810     0.5921130
  C        2.2370429    -0.5444775    -0.1063730
  C        2.1041050     0.7294570     0.3348460
  H       -1.4517930    -0.5154570    -1.3975200
  H       -1.9460070     1.5800180     0.7812150
  H       -3.1336970     1.0333660    -0.4232700
  H       -1.6836890     1.9287350    -0.9294360
  H       -1.7477770    -0.8676130     1.6266340
  H       -1.3321260    -2.1520890     0.4742110
  H       -2.9287500    -1.3798940     0.4051340
  H        3.0327410    -1.2424980    -0.2628180
  H        2.8799090     1.4020910     0.6717620
units angstrom
no_reorient  #important for SAPT in psi4, default
symmetry c1  #important for SAPT in psi4, default
}

set PROPERTIES_ORIGIN ["COM"]
properties('MP2/aug-cc-pvtz', properties = ['dipole'])
--------------------------------------------------------------------------

    Molecular point group: c1
  Charge       = 0
  Multiplicity = 1
  Basis Set: AUG-CC-PVTZ
    Blend: AUG-CC-PVTZ
  Basis Set: (AUG-CC-PVTZ AUX)
    Blend: AUG-CC-PVTZ-JKFIT

    Orbital Energies [Eh]
    ---------------------

    Doubly Occupied:

       1A    -20.630687     2A    -15.559539     3A    -11.335588
       4A    -11.289591     5A    -11.261134     6A    -11.251624
       7A    -11.225520     8A    -11.217265     9A     -1.468212
      10A     -1.224221    11A     -1.103687    12A     -1.007355
      13A     -0.938980    14A     -0.859448    15A     -0.825491
      16A     -0.769913    17A     -0.712519    18A     -0.659198
      19A     -0.635042    20A     -0.607298    21A     -0.599784
      22A     -0.570929    23A     -0.557321    24A     -0.541793
      25A     -0.506378    26A     -0.491006    27A     -0.489414
      28A     -0.455089    29A     -0.447732    30A     -0.333627

  @DF-RHF Final Energy:  -361.87385246286152

   => Energetics <=

    Nuclear Repulsion Energy =            371.9836840856066260
    One-Electron Energy =               -1228.5643037285096852
    Two-Electron Energy =                 494.7067671800414814
    Total Energy =                       -361.8738524628615210
  Basis Set: (AUG-CC-PVTZ AUX)
    Blend: AUG-CC-PVTZ-RI
    Molecular point group: c1

    Geometry (in Angstrom), charge = 0, multiplicity = 1:

       Center              X                  Y                   Z               Mass
    ------------   -----------------  -----------------  -----------------  -----------------
         O            0.887468526650    -1.002858384053    -0.422277539323    15.994914619570
         N            0.691784526650     1.107540615947     0.312937460677    14.003074004430
         C           -1.400559473350    -0.145021384053    -0.364238539323    12.000000000000
         C            0.061901526650     0.056879615947    -0.146256539323    12.000000000000
         C           -2.143622473350     1.180470615947    -0.221590539323    12.000000000000
         C           -1.941027473350    -1.207671384053     0.600031460677    12.000000000000
         C            2.160843426650    -0.547167884053    -0.098454539323    12.000000000000
         C            2.027905526650     0.726766615947     0.342764460677    12.000000000000
         H           -1.527992473350    -0.518147384053    -1.389601539323     1.007825032230
         H           -2.022206473350     1.577327615947     0.789133460677     1.007825032230
         H           -3.209896473350     1.030675615947    -0.415351539323     1.007825032230
         H           -1.759888473350     1.926044615947    -0.921517539323     1.007825032230
         H           -1.823976473350    -0.870303384053     1.634552460677     1.007825032230
         H           -1.408325473350    -2.154779384053     0.482129460677     1.007825032230
         H           -3.004949473350    -1.382584384053     0.413052460677     1.007825032230
         H            2.956541526650    -1.245188384053    -0.254899539323     1.007825032230
         H            2.803709526650     1.399400615947     0.679680460677     1.007825032230

  Basis Set: AUG-CC-PVTZ
    Blend: AUG-CC-PVTZ
  Basis Set: (AUG-CC-PVTZ AUX)
    Blend: AUG-CC-PVTZ-JKFIT
	 Reference Energy          =    -361.8738524628615210 [Eh]
	 Singles Energy            =      -0.0000000000000000 [Eh]
	 Same-Spin Energy          =      -0.3798089309380901 [Eh]
	 Opposite-Spin Energy      =      -1.2184926425137776 [Eh]
	 Correlation Energy        =      -1.5983015734518677 [Eh]
	 Total Energy              =    -363.4721540363133840 [Eh]

	 ================> DF-SCS-MP2 Energies <==================
	-----------------------------------------------------------
	 SCS Same-Spin Scale       =       0.3333333333333333 [-]
	 SCS Opposite-Spin Scale   =       1.2000000000000000 [-]
	 SCS Same-Spin Energy      =      -0.1266029769793633 [Eh]
	 SCS Opposite-Spin Energy  =      -1.4621911710165332 [Eh]
	 SCS Correlation Energy    =      -1.5887941479958965 [Eh]
	 SCS Total Energy          =    -363.4626466108574050 [Eh]
	-----------------------------------------------------------

  Dipole Moment: [D]
     X:     0.1969      Y:    -1.2410      Z:    -0.3628     Total:     1.3078

*** Psi4 exiting successfully. Buy a developer a beer!
