                               Psi4 1.4a3.dev225

  ==> Input File <==

--------------------------------------------------------------------------
#psi4
#
memory 32 gb

molecule  {
0 1
  O        0.9636680    -1.0001680    -0.4301960
  N        0.7679840     1.1102310     0.3050190
  C       -1.3243600    -0.1423310    -0.3721570
  C        0.1381010     0.0595700    -0.1541750
  C       -2.0674230     1.1831610    -0.2295090
  C       -1.8648280    -1.2049810     0.5921130
  C        2.3124030    -0.5440085    -0.0970003
  C        2.1041050     0.7294570     0.3348460
  H       -1.4517930    -0.5154570    -1.3975200
  H       -1.9460070     1.5800180     0.7812150
  H       -3.1336970     1.0333660    -0.4232700
  H       -1.6836890     1.9287350    -0.9294360
  H       -1.7477770    -0.8676130     1.6266340
  H       -1.3321260    -2.1520890     0.4742110
  H       -2.9287500    -1.3798940     0.4051340
  H        3.0327410    -1.2424980    -0.2628180
  H        2.8799090     1.4020910     0.6717620
units angstrom
no_reorient  #important for SAPT in psi4, default
symmetry c1  #important for SAPT in psi4, default
}

set PROPERTIES_ORIGIN ["COM"]
properties('MP2/aug-cc-pvtz', properties = ['dipole'])
--------------------------------------------------------------------------

    Molecular point group: c1
  Charge       = 0
  Multiplicity = 1
  Basis Set: AUG-CC-PVTZ
    Blend: AUG-CC-PVTZ
  Basis Set: (AUG-CC-PVTZ AUX)
    Blend: AUG-CC-PVTZ-JKFIT

    Orbital Energies [Eh]
    ---------------------

    Doubly Occupied:

       1A    -20.620998     2A    -15.558845     3A    -11.338770
       4A    -11.289750     5A    -11.269475     6A    -11.252108
       7A    -11.225688     8A    -11.217609     9A     -1.443923
      10A     -1.219792    11A     -1.103009    12A     -1.009612
      13A     -0.939025    14A     -0.859223    15A     -0.827767
      16A     -0.762108    17A     -0.710826    18A     -0.655749
      19A     -0.635776    20A     -0.608125    21A     -0.600738
      22A     -0.562798    23A     -0.551092    24A     -0.541866
      25A     -0.505942    26A     -0.490806    27A     -0.489719
      28A     -0.455190    29A     -0.445337    30A     -0.338282

  @DF-RHF Final Energy:  -361.86339517165402

   => Energetics <=

    Nuclear Repulsion Energy =            370.3937685158931572
    One-Electron Energy =               -1225.4544331099773444
    Two-Electron Energy =                 493.1972694224301677
    Total Energy =                       -361.8633951716540196
  Basis Set: (AUG-CC-PVTZ AUX)
    Blend: AUG-CC-PVTZ-RI
    Molecular point group: c1

    Geometry (in Angstrom), charge = 0, multiplicity = 1:

       Center              X                  Y                   Z               Mass
    ------------   -----------------  -----------------  -----------------  -----------------
         O            0.879326507078    -1.002909055525    -0.423290180055    15.994914619570
         N            0.683642507078     1.107489944475     0.311924819945    14.003074004430
         C           -1.408701492922    -0.145072055525    -0.365251180055    12.000000000000
         C            0.053759507078     0.056828944475    -0.147269180055    12.000000000000
         C           -2.151764492922     1.180419944475    -0.222603180055    12.000000000000
         C           -1.949169492922    -1.207722055525     0.599018819945    12.000000000000
         C            2.228061507078    -0.546749555525    -0.090094480055    12.000000000000
         C            2.019763507078     0.726715944475     0.341751819945    12.000000000000
         H           -1.536134492922    -0.518198055525    -1.390614180055     1.007825032230
         H           -2.030348492922     1.577276944475     0.788120819945     1.007825032230
         H           -3.218038492922     1.030624944475    -0.416364180055     1.007825032230
         H           -1.768030492922     1.925993944475    -0.922530180055     1.007825032230
         H           -1.832118492922    -0.870354055525     1.633539819945     1.007825032230
         H           -1.416467492922    -2.154830055525     0.481116819945     1.007825032230
         H           -3.013091492922    -1.382635055525     0.412039819945     1.007825032230
         H            2.948399507078    -1.245239055525    -0.255912180055     1.007825032230
         H            2.795567507078     1.399349944475     0.678667819945     1.007825032230

  Basis Set: AUG-CC-PVTZ
    Blend: AUG-CC-PVTZ
  Basis Set: (AUG-CC-PVTZ AUX)
    Blend: AUG-CC-PVTZ-JKFIT
	 Reference Energy          =    -361.8633951716540196 [Eh]
	 Singles Energy            =      -0.0000000000000000 [Eh]
	 Same-Spin Energy          =      -0.3796791104120720 [Eh]
	 Opposite-Spin Energy      =      -1.2196781908653209 [Eh]
	 Correlation Energy        =      -1.5993573012773930 [Eh]
	 Total Energy              =    -363.4627524729314132 [Eh]

	 ================> DF-SCS-MP2 Energies <==================
	-----------------------------------------------------------
	 SCS Same-Spin Scale       =       0.3333333333333333 [-]
	 SCS Opposite-Spin Scale   =       1.2000000000000000 [-]
	 SCS Same-Spin Energy      =      -0.1265597034706906 [Eh]
	 SCS Opposite-Spin Energy  =      -1.4636138290383851 [Eh]
	 SCS Correlation Energy    =      -1.5901735325090758 [Eh]
	 SCS Total Energy          =    -363.4535687041631036 [Eh]
	-----------------------------------------------------------

  Dipole Moment: [D]
     X:     0.2522      Y:    -1.2046      Z:    -0.3382     Total:     1.2763

*** Psi4 exiting successfully. Buy a developer a beer!
