                               Psi4 1.4a3.dev225

  ==> Input File <==

--------------------------------------------------------------------------
#psi4
#
memory 32 gb

molecule  {
0 1
  O        0.9636680    -1.0001680    -0.4301960
  N        0.7679840     1.1102310     0.3050190
  C       -1.3243600    -0.1423310    -0.3721570
  C        0.1381010     0.0595700    -0.1541750
  C       -2.0674230     1.1831610    -0.2295090
  C       -1.8648280    -1.2049810     0.5921130
  C        2.2187300    -0.5510310    -0.1110300
  C        2.1041050     0.7294570     0.3348460
  H       -1.4517930    -0.5154570    -1.3975200
  H       -1.9460070     1.5800180     0.7812150
  H       -3.1336970     1.0333660    -0.4232700
  H       -1.6836890     1.9287350    -0.9294360
  H       -1.7477770    -0.8676130     1.6266340
  H       -1.3223786    -2.1694192     0.4720536
  H       -2.9287500    -1.3798940     0.4051340
  H        3.0327410    -1.2424980    -0.2628180
  H        2.8799090     1.4020910     0.6717620
units angstrom
no_reorient  #important for SAPT in psi4, default
symmetry c1  #important for SAPT in psi4, default
}

set PROPERTIES_ORIGIN ["COM"]
properties('MP2/aug-cc-pvtz', properties = ['dipole'])
--------------------------------------------------------------------------

    Molecular point group: c1
  Charge       = 0
  Multiplicity = 1
  Basis Set: AUG-CC-PVTZ
    Blend: AUG-CC-PVTZ
  Basis Set: (AUG-CC-PVTZ AUX)
    Blend: AUG-CC-PVTZ-JKFIT

    Orbital Energies [Eh]
    ---------------------

    Doubly Occupied:

       1A    -20.633448     2A    -15.560142     3A    -11.334760
       4A    -11.290314     5A    -11.260054     6A    -11.251742
       7A    -11.227849     8A    -11.217413     9A     -1.475629
      10A     -1.225510    11A     -1.103571    12A     -1.005923
      13A     -0.937831    14A     -0.859106    15A     -0.826370
      16A     -0.771855    17A     -0.713383    18A     -0.661718
      19A     -0.636042    20A     -0.605631    21A     -0.599412
      22A     -0.571628    23A     -0.557178    24A     -0.542010
      25A     -0.506381    26A     -0.491047    27A     -0.488247
      28A     -0.455240    29A     -0.448204    30A     -0.331125

  @DF-RHF Final Energy:  -361.87375497407771

   => Energetics <=

    Nuclear Repulsion Energy =            372.2425549262179061
    One-Electron Energy =               -1229.0550947753265518
    Two-Electron Energy =                 494.9387848750308763
    Total Energy =                       -361.8737549740777126
  Basis Set: (AUG-CC-PVTZ AUX)
    Blend: AUG-CC-PVTZ-RI
    Molecular point group: c1

    Geometry (in Angstrom), charge = 0, multiplicity = 1:

       Center              X                  Y                   Z               Mass
    ------------   -----------------  -----------------  -----------------  -----------------
         O            0.889358633107    -1.001993081255    -0.421754813917    15.994914619570
         N            0.693674633107     1.108405918745     0.313460186083    14.003074004430
         C           -1.398669366893    -0.144156081255    -0.363715813917    12.000000000000
         C            0.063791633107     0.057744918745    -0.145733813917    12.000000000000
         C           -2.141732366893     1.181335918745    -0.221067813917    12.000000000000
         C           -1.939137366893    -1.206806081255     0.600554186083    12.000000000000
         C            2.144420633107    -0.552856081255    -0.102588813917    12.000000000000
         C            2.029795633107     0.727631918745     0.343287186083    12.000000000000
         H           -1.526102366893    -0.517282081255    -1.389078813917     1.007825032230
         H           -2.020316366893     1.578192918745     0.789656186083     1.007825032230
         H           -3.208006366893     1.031540918745    -0.414828813917     1.007825032230
         H           -1.757998366893     1.926909918745    -0.920994813917     1.007825032230
         H           -1.822086366893    -0.869438081255     1.635075186083     1.007825032230
         H           -1.396687966893    -2.171244281255     0.480494786083     1.007825032230
         H           -3.003059366893    -1.381719081255     0.413575186083     1.007825032230
         H            2.958431633107    -1.244323081255    -0.254376813917     1.007825032230
         H            2.805599633107     1.400265918745     0.680203186083     1.007825032230

  Basis Set: AUG-CC-PVTZ
    Blend: AUG-CC-PVTZ
  Basis Set: (AUG-CC-PVTZ AUX)
    Blend: AUG-CC-PVTZ-JKFIT
	 Reference Energy          =    -361.8737549740777126 [Eh]
	 Singles Energy            =      -0.0000000000000000 [Eh]
	 Same-Spin Energy          =      -0.3799943477478550 [Eh]
	 Opposite-Spin Energy      =      -1.2185674759820826 [Eh]
	 Correlation Energy        =      -1.5985618237299375 [Eh]
	 Total Energy              =    -363.4723167978076503 [Eh]

	 ================> DF-SCS-MP2 Energies <==================
	-----------------------------------------------------------
	 SCS Same-Spin Scale       =       0.3333333333333333 [-]
	 SCS Opposite-Spin Scale   =       1.2000000000000000 [-]
	 SCS Same-Spin Energy      =      -0.1266647825826183 [Eh]
	 SCS Opposite-Spin Energy  =      -1.4622809711784990 [Eh]
	 SCS Correlation Energy    =      -1.5889457537611174 [Eh]
	 SCS Total Energy          =    -363.4627007278388078 [Eh]
	-----------------------------------------------------------

  Dipole Moment: [D]
     X:     0.1726      Y:    -1.2460      Z:    -0.3741     Total:     1.3123

*** Psi4 exiting successfully. Buy a developer a beer!
