                               Psi4 1.4a3.dev225

  ==> Input File <==

--------------------------------------------------------------------------
#psi4
#
memory 32 gb

molecule  {
0 1
  O        0.9636680    -1.0001680    -0.4301960
  N        0.7679840     1.1102310     0.3050190
  C       -1.3243600    -0.1423310    -0.3721570
  C        0.1381010     0.0595700    -0.1541750
  C       -2.0674230     1.1831610    -0.2295090
  C       -1.8648280    -1.2049810     0.5921130
  C        2.1716554    -0.5522038    -0.1172341
  C        2.1041050     0.7294570     0.3348460
  H       -1.4517930    -0.5154570    -1.3975200
  H       -1.9460070     1.5800180     0.7812150
  H       -3.1336970     1.0333660    -0.4232700
  H       -1.6836890     1.9287350    -0.9294360
  H       -1.7477770    -0.8676130     1.6266340
  H       -1.3321260    -2.1520890     0.4742110
  H       -2.9287500    -1.3798940     0.4051340
  H        3.0327410    -1.2424980    -0.2628180
  H        2.8799090     1.4020910     0.6717620
units angstrom
no_reorient  #important for SAPT in psi4, default
symmetry c1  #important for SAPT in psi4, default
}

set PROPERTIES_ORIGIN ["COM"]
properties('MP2/aug-cc-pvtz', properties = ['dipole'])
--------------------------------------------------------------------------

    Molecular point group: c1
  Charge       = 0
  Multiplicity = 1
  Basis Set: AUG-CC-PVTZ
    Blend: AUG-CC-PVTZ
  Basis Set: (AUG-CC-PVTZ AUX)
    Blend: AUG-CC-PVTZ-JKFIT

    Orbital Energies [Eh]
    ---------------------

    Doubly Occupied:

       1A    -20.639595     2A    -15.561056     3A    -11.332514
       4A    -11.291809     5A    -11.255725     6A    -11.251207
       7A    -11.225331     8A    -11.217014     9A     -1.494752
      10A     -1.228908    11A     -1.104061    12A     -1.004669
      13A     -0.939042    14A     -0.861115    15A     -0.827181
      16A     -0.777463    17A     -0.714862    18A     -0.669398
      19A     -0.636925    20A     -0.607314    21A     -0.599252
      22A     -0.572529    23A     -0.557946    24A     -0.541741
      25A     -0.506007    26A     -0.491343    27A     -0.489024
      28A     -0.454970    29A     -0.449871    30A     -0.327579

  @DF-RHF Final Energy:  -361.87224421720907

   => Energetics <=

    Nuclear Repulsion Energy =            373.3638037963418128
    One-Electron Energy =               -1231.2116932481080767
    Two-Electron Energy =                 495.9756452345571915
    Total Energy =                       -361.8722442172090723
  Basis Set: (AUG-CC-PVTZ AUX)
    Blend: AUG-CC-PVTZ-RI
    Molecular point group: c1

    Geometry (in Angstrom), charge = 0, multiplicity = 1:

       Center              X                  Y                   Z               Mass
    ------------   -----------------  -----------------  -----------------  -----------------
         O            0.894533091384    -1.002023622875    -0.421104089596    15.994914619570
         N            0.698849091384     1.108375377125     0.314110910404    14.003074004430
         C           -1.393494908616    -0.144186622875    -0.363065089596    12.000000000000
         C            0.068966091384     0.057714377125    -0.145083089596    12.000000000000
         C           -2.136557908616     1.181305377125    -0.220417089596    12.000000000000
         C           -1.933962908616    -1.206836622875     0.601204910404    12.000000000000
         C            2.102520491384    -0.554059422875    -0.108142189596    12.000000000000
         C            2.034970091384     0.727601377125     0.343937910404    12.000000000000
         H           -1.520927908616    -0.517312622875    -1.388428089596     1.007825032230
         H           -2.015141908616     1.578162377125     0.790306910404     1.007825032230
         H           -3.202831908616     1.031510377125    -0.414178089596     1.007825032230
         H           -1.752823908616     1.926879377125    -0.920344089596     1.007825032230
         H           -1.816911908616    -0.869468622875     1.635725910404     1.007825032230
         H           -1.401260908616    -2.153944622875     0.483302910404     1.007825032230
         H           -2.997884908616    -1.381749622875     0.414225910404     1.007825032230
         H            2.963606091384    -1.244353622875    -0.253726089596     1.007825032230
         H            2.810774091384     1.400235377125     0.680853910404     1.007825032230

  Basis Set: AUG-CC-PVTZ
    Blend: AUG-CC-PVTZ
  Basis Set: (AUG-CC-PVTZ AUX)
    Blend: AUG-CC-PVTZ-JKFIT
	 Reference Energy          =    -361.8722442172090723 [Eh]
	 Singles Energy            =      -0.0000000000000000 [Eh]
	 Same-Spin Energy          =      -0.3802576097272082 [Eh]
	 Opposite-Spin Energy      =      -1.2180665968684310 [Eh]
	 Correlation Energy        =      -1.5983242065956391 [Eh]
	 Total Energy              =    -363.4705684238047070 [Eh]

	 ================> DF-SCS-MP2 Energies <==================
	-----------------------------------------------------------
	 SCS Same-Spin Scale       =       0.3333333333333333 [-]
	 SCS Opposite-Spin Scale   =       1.2000000000000000 [-]
	 SCS Same-Spin Energy      =      -0.1267525365757360 [Eh]
	 SCS Opposite-Spin Energy  =      -1.4616799162421172 [Eh]
	 SCS Correlation Energy    =      -1.5884324528178533 [Eh]
	 SCS Total Energy          =    -363.4606766700269418 [Eh]
	-----------------------------------------------------------

  Dipole Moment: [D]
     X:     0.1255      Y:    -1.2792      Z:    -0.3896     Total:     1.3431

*** Psi4 exiting successfully. Buy a developer a beer!
