                               Psi4 1.4a3.dev225

  ==> Input File <==

--------------------------------------------------------------------------
#psi4
#
memory 32 gb

molecule  {
0 1
  O        0.9636680    -1.0001680    -0.4301960
  N        0.7679840     1.1102310     0.3050190
  C       -1.3243600    -0.1423310    -0.3721570
  C        0.0779030     0.1368430    -0.1340483
  C       -2.0674230     1.1831610    -0.2295090
  C       -1.8648280    -1.2049810     0.5921130
  C        2.2187300    -0.5510310    -0.1110300
  C        2.1041050     0.7294570     0.3348460
  H       -1.4517930    -0.5154570    -1.3975200
  H       -1.9460070     1.5800180     0.7812150
  H       -3.1336970     1.0333660    -0.4232700
  H       -1.6836890     1.9287350    -0.9294360
  H       -1.7477770    -0.8676130     1.6266340
  H       -1.3321260    -2.1520890     0.4742110
  H       -2.9287500    -1.3798940     0.4051340
  H        3.0327410    -1.2424980    -0.2628180
  H        2.8799090     1.4020910     0.6717620
units angstrom
no_reorient  #important for SAPT in psi4, default
symmetry c1  #important for SAPT in psi4, default
}

set PROPERTIES_ORIGIN ["COM"]
properties('MP2/aug-cc-pvtz', properties = ['dipole'])
--------------------------------------------------------------------------

    Molecular point group: c1
  Charge       = 0
  Multiplicity = 1
  Basis Set: AUG-CC-PVTZ
    Blend: AUG-CC-PVTZ
  Basis Set: (AUG-CC-PVTZ AUX)
    Blend: AUG-CC-PVTZ-JKFIT

    Orbital Energies [Eh]
    ---------------------

    Doubly Occupied:

       1A    -20.613070     2A    -15.564324     3A    -11.334047
       4A    -11.292842     5A    -11.256658     6A    -11.252122
       7A    -11.227373     8A    -11.219725     9A     -1.437780
      10A     -1.233482    11A     -1.111265    12A     -1.003000
      13A     -0.941864    14A     -0.865969    15A     -0.820741
      16A     -0.757293    17A     -0.710332    18A     -0.654875
      19A     -0.628677    20A     -0.611036    21A     -0.602523
      22A     -0.559576    23A     -0.556054    24A     -0.543968
      25A     -0.513232    26A     -0.494705    27A     -0.492134
      28A     -0.452392    29A     -0.449273    30A     -0.330220

  @DF-RHF Final Energy:  -361.86268790259186

   => Energetics <=

    Nuclear Repulsion Energy =            371.9091830061387896
    One-Electron Energy =               -1228.4826418843729243
    Two-Electron Energy =                 494.7107709756422196
    Total Energy =                       -361.8626879025918583
  Basis Set: (AUG-CC-PVTZ AUX)
    Blend: AUG-CC-PVTZ-RI
    Molecular point group: c1

    Geometry (in Angstrom), charge = 0, multiplicity = 1:

       Center              X                  Y                   Z               Mass
    ------------   -----------------  -----------------  -----------------  -----------------
         O            0.895950963437    -1.010499026159    -0.423948909188    15.994914619570
         N            0.700266963437     1.099899973841     0.311266090812    14.003074004430
         C           -1.392077036563    -0.152662026159    -0.365909909188    12.000000000000
         C            0.010185963437     0.126511973841    -0.127801209188    12.000000000000
         C           -2.135140036563     1.172829973841    -0.223261909188    12.000000000000
         C           -1.932545036563    -1.215312026159     0.598360090812    12.000000000000
         C            2.151012963437    -0.561362026159    -0.104782909188    12.000000000000
         C            2.036387963437     0.719125973841     0.341093090812    12.000000000000
         H           -1.519510036563    -0.525788026159    -1.391272909188     1.007825032230
         H           -2.013724036563     1.569686973841     0.787462090812     1.007825032230
         H           -3.201414036563     1.023034973841    -0.417022909188     1.007825032230
         H           -1.751406036563     1.918403973841    -0.923188909188     1.007825032230
         H           -1.815494036563    -0.877944026159     1.632881090812     1.007825032230
         H           -1.399843036563    -2.162420026159     0.480458090812     1.007825032230
         H           -2.996467036563    -1.390225026159     0.411381090812     1.007825032230
         H            2.965023963437    -1.252829026159    -0.256570909188     1.007825032230
         H            2.812191963437     1.391759973841     0.678009090812     1.007825032230

  Basis Set: AUG-CC-PVTZ
    Blend: AUG-CC-PVTZ
  Basis Set: (AUG-CC-PVTZ AUX)
    Blend: AUG-CC-PVTZ-JKFIT
	 Reference Energy          =    -361.8626879025918583 [Eh]
	 Singles Energy            =      -0.0000000000000000 [Eh]
	 Same-Spin Energy          =      -0.3809587460408473 [Eh]
	 Opposite-Spin Energy      =      -1.2208431564431756 [Eh]
	 Correlation Energy        =      -1.6018019024840231 [Eh]
	 Total Energy              =    -363.4644898050758570 [Eh]

	 ================> DF-SCS-MP2 Energies <==================
	-----------------------------------------------------------
	 SCS Same-Spin Scale       =       0.3333333333333333 [-]
	 SCS Opposite-Spin Scale   =       1.2000000000000000 [-]
	 SCS Same-Spin Energy      =      -0.1269862486802824 [Eh]
	 SCS Opposite-Spin Energy  =      -1.4650117877318107 [Eh]
	 SCS Correlation Energy    =      -1.5919980364120931 [Eh]
	 SCS Total Energy          =    -363.4546859390039799 [Eh]
	-----------------------------------------------------------

  Dipole Moment: [D]
     X:    -0.1003      Y:    -1.0361      Z:    -0.3035     Total:     1.0843

*** Psi4 exiting successfully. Buy a developer a beer!
