                               Psi4 1.4a3.dev225

  ==> Input File <==

--------------------------------------------------------------------------
#psi4
#
memory 32 gb

molecule  {
0 1
  O        0.9636680    -1.0001680    -0.4301960
  N        0.7679840     1.1102310     0.3050190
  C       -1.3243600    -0.1423310    -0.3721570
  C        0.1535058     0.0264260    -0.2517160
  C       -2.0674230     1.1831610    -0.2295090
  C       -1.8648280    -1.2049810     0.5921130
  C        2.2187300    -0.5510310    -0.1110300
  C        2.1041050     0.7294570     0.3348460
  H       -1.4517930    -0.5154570    -1.3975200
  H       -1.9460070     1.5800180     0.7812150
  H       -3.1336970     1.0333660    -0.4232700
  H       -1.6836890     1.9287350    -0.9294360
  H       -1.7477770    -0.8676130     1.6266340
  H       -1.3321260    -2.1520890     0.4742110
  H       -2.9287500    -1.3798940     0.4051340
  H        3.0327410    -1.2424980    -0.2628180
  H        2.8799090     1.4020910     0.6717620
units angstrom
no_reorient  #important for SAPT in psi4, default
symmetry c1  #important for SAPT in psi4, default
}

set PROPERTIES_ORIGIN ["COM"]
properties('MP2/aug-cc-pvtz', properties = ['dipole'])
--------------------------------------------------------------------------

    Molecular point group: c1
  Charge       = 0
  Multiplicity = 1
  Basis Set: AUG-CC-PVTZ
    Blend: AUG-CC-PVTZ
  Basis Set: (AUG-CC-PVTZ AUX)
    Blend: AUG-CC-PVTZ-JKFIT

    Orbital Energies [Eh]
    ---------------------

    Doubly Occupied:

       1A    -20.644426     2A    -15.559244     3A    -11.338950
       4A    -11.287805     5A    -11.261205     6A    -11.251824
       7A    -11.226538     8A    -11.217251     9A     -1.497233
      10A     -1.208824    11A     -1.104442    12A     -1.008016
      13A     -0.938824    14A     -0.862027    15A     -0.828523
      16A     -0.777985    17A     -0.713147    18A     -0.671427
      19A     -0.636389    20A     -0.611759    21A     -0.593172
      22A     -0.576506    23A     -0.557099    24A     -0.541108
      25A     -0.509499    26A     -0.490474    27A     -0.485317
      28A     -0.453023    29A     -0.439597    30A     -0.326978

  @DF-RHF Final Energy:  -361.86542047771781

   => Energetics <=

    Nuclear Repulsion Energy =            372.1423060202491797
    One-Electron Energy =               -1228.7782329586857486
    Two-Electron Energy =                 494.7705064607187637
    Total Energy =                       -361.8654204777178052
  Basis Set: (AUG-CC-PVTZ AUX)
    Blend: AUG-CC-PVTZ-RI
    Molecular point group: c1

    Geometry (in Angstrom), charge = 0, multiplicity = 1:

       Center              X                  Y                   Z               Mass
    ------------   -----------------  -----------------  -----------------  -----------------
         O            0.887782722188    -0.998569405907    -0.411235912304    15.994914619570
         N            0.692098722188     1.111829594093     0.323979087696    14.003074004430
         C           -1.400245277812    -0.140732405907    -0.353196912304    12.000000000000
         C            0.077620522188     0.028024594093    -0.232755912304    12.000000000000
         C           -2.143308277812     1.184759594093    -0.210548912304    12.000000000000
         C           -1.940713277812    -1.203382405907     0.611073087696    12.000000000000
         C            2.142844722188    -0.549432405907    -0.092069912304    12.000000000000
         C            2.028219722188     0.731055594093     0.353806087696    12.000000000000
         H           -1.527678277812    -0.513858405907    -1.378559912304     1.007825032230
         H           -2.021892277812     1.581616594093     0.800175087696     1.007825032230
         H           -3.209582277812     1.034964594093    -0.404309912304     1.007825032230
         H           -1.759574277812     1.930333594093    -0.910475912304     1.007825032230
         H           -1.823662277812    -0.866014405907     1.645594087696     1.007825032230
         H           -1.408011277812    -2.150490405907     0.493171087696     1.007825032230
         H           -3.004635277812    -1.378295405907     0.424094087696     1.007825032230
         H            2.956855722188    -1.240899405907    -0.243857912304     1.007825032230
         H            2.804023722188     1.403689594093     0.690722087696     1.007825032230

  Basis Set: AUG-CC-PVTZ
    Blend: AUG-CC-PVTZ
  Basis Set: (AUG-CC-PVTZ AUX)
    Blend: AUG-CC-PVTZ-JKFIT
	 Reference Energy          =    -361.8654204777178052 [Eh]
	 Singles Energy            =      -0.0000000000000000 [Eh]
	 Same-Spin Energy          =      -0.3809343844352316 [Eh]
	 Opposite-Spin Energy      =      -1.2194727962209804 [Eh]
	 Correlation Energy        =      -1.6004071806562119 [Eh]
	 Total Energy              =    -363.4658276583739962 [Eh]

	 ================> DF-SCS-MP2 Energies <==================
	-----------------------------------------------------------
	 SCS Same-Spin Scale       =       0.3333333333333333 [-]
	 SCS Opposite-Spin Scale   =       1.2000000000000000 [-]
	 SCS Same-Spin Energy      =      -0.1269781281450772 [Eh]
	 SCS Opposite-Spin Energy  =      -1.4633673554651765 [Eh]
	 SCS Correlation Energy    =      -1.5903454836102537 [Eh]
	 SCS Total Energy          =    -363.4557659613280407 [Eh]
	-----------------------------------------------------------

  Dipole Moment: [D]
     X:     0.2654      Y:    -1.4079      Z:    -0.4302     Total:     1.4959

*** Psi4 exiting successfully. Buy a developer a beer!
