                               Psi4 1.4a3.dev225

  ==> Input File <==

--------------------------------------------------------------------------
#psi4
#
memory 32 gb

molecule  {
0 1
  O        0.9636680    -1.0001680    -0.4301960
  N        0.7679840     1.1102310     0.3050190
  C       -1.3243600    -0.1423310    -0.3721570
  C        0.1381010     0.0595700    -0.1541750
  C       -2.0674230     1.1831610    -0.2295090
  C       -1.8648280    -1.2049810     0.5921130
  C        2.2187300    -0.5510310    -0.1110300
  C        2.1041050     0.7294570     0.3348460
  H       -1.4517930    -0.5154570    -1.3975200
  H       -1.9460070     1.5800180     0.7812150
  H       -3.1336970     1.0333660    -0.4232700
  H       -1.6836890     1.9287350    -0.9294360
  H       -1.7477770    -0.8676130     1.6266340
  H       -1.4295997    -1.9787874     0.4957847
  H       -2.9287500    -1.3798940     0.4051340
  H        3.0327410    -1.2424980    -0.2628180
  H        2.8799090     1.4020910     0.6717620
units angstrom
no_reorient  #important for SAPT in psi4, default
symmetry c1  #important for SAPT in psi4, default
}

set PROPERTIES_ORIGIN ["COM"]
properties('MP2/aug-cc-pvtz', properties = ['dipole'])
--------------------------------------------------------------------------

    Molecular point group: c1
  Charge       = 0
  Multiplicity = 1
  Basis Set: AUG-CC-PVTZ
    Blend: AUG-CC-PVTZ
  Basis Set: (AUG-CC-PVTZ AUX)
    Blend: AUG-CC-PVTZ-JKFIT

    Orbital Energies [Eh]
    ---------------------

    Doubly Occupied:

       1A    -20.633867     2A    -15.559985     3A    -11.334647
       4A    -11.290359     5A    -11.260192     6A    -11.250120
       7A    -11.215928     8A    -11.201197     9A     -1.475955
      10A     -1.225486    11A     -1.106920    12A     -1.009006
      13A     -0.956556    14A     -0.863608    15A     -0.826451
      16A     -0.773049    17A     -0.714689    18A     -0.664719
      19A     -0.638140    20A     -0.628276    21A     -0.599550
      22A     -0.571872    23A     -0.562868    24A     -0.540499
      25A     -0.508843    26A     -0.497644    27A     -0.489270
      28A     -0.455221    29A     -0.448442    30A     -0.331101

  @DF-RHF Final Energy:  -361.84017177662184

   => Energetics <=

    Nuclear Repulsion Energy =            373.2555342028574614
    One-Electron Energy =               -1230.9224922631567551
    Two-Electron Energy =                 495.8267862836774498
    Total Energy =                       -361.8401717766218439
  Basis Set: (AUG-CC-PVTZ AUX)
    Blend: AUG-CC-PVTZ-RI
    Molecular point group: c1

    Geometry (in Angstrom), charge = 0, multiplicity = 1:

       Center              X                  Y                   Z               Mass
    ------------   -----------------  -----------------  -----------------  -----------------
         O            0.890331547951    -1.003722857464    -0.421970147834    15.994914619570
         N            0.694647547951     1.106676142536     0.313244852166    14.003074004430
         C           -1.397696452049    -0.145885857464    -0.363931147834    12.000000000000
         C            0.064764547951     0.056015142536    -0.145949147834    12.000000000000
         C           -2.140759452049     1.179606142536    -0.221283147834    12.000000000000
         C           -1.938164452049    -1.208535857464     0.600338852166    12.000000000000
         C            2.145393547951    -0.554585857464    -0.102804147834    12.000000000000
         C            2.030768547951     0.725902142536     0.343071852166    12.000000000000
         H           -1.525129452049    -0.519011857464    -1.389294147834     1.007825032230
         H           -2.019343452049     1.576463142536     0.789440852166     1.007825032230
         H           -3.207033452049     1.029811142536    -0.415044147834     1.007825032230
         H           -1.757025452049     1.925180142536    -0.921210147834     1.007825032230
         H           -1.821113452049    -0.871167857464     1.634859852166     1.007825032230
         H           -1.502936152049    -1.982342257464     0.504010552166     1.007825032230
         H           -3.002086452049    -1.383448857464     0.413359852166     1.007825032230
         H            2.959404547951    -1.246052857464    -0.254592147834     1.007825032230
         H            2.806572547951     1.398536142536     0.679987852166     1.007825032230

  Basis Set: AUG-CC-PVTZ
    Blend: AUG-CC-PVTZ
  Basis Set: (AUG-CC-PVTZ AUX)
    Blend: AUG-CC-PVTZ-JKFIT
	 Reference Energy          =    -361.8401717766218439 [Eh]
	 Singles Energy            =      -0.0000000000000000 [Eh]
	 Same-Spin Energy          =      -0.3800322172021992 [Eh]
	 Opposite-Spin Energy      =      -1.2177538643691681 [Eh]
	 Correlation Energy        =      -1.5977860815713671 [Eh]
	 Total Energy              =    -363.4379578581932151 [Eh]

	 ================> DF-SCS-MP2 Energies <==================
	-----------------------------------------------------------
	 SCS Same-Spin Scale       =       0.3333333333333333 [-]
	 SCS Opposite-Spin Scale   =       1.2000000000000000 [-]
	 SCS Same-Spin Energy      =      -0.1266774057340664 [Eh]
	 SCS Opposite-Spin Energy  =      -1.4613046372430016 [Eh]
	 SCS Correlation Energy    =      -1.5879820429770679 [Eh]
	 SCS Total Energy          =    -363.4281538195988901 [Eh]
	-----------------------------------------------------------

  Dipole Moment: [D]
     X:     0.1936      Y:    -1.3345      Z:    -0.3591     Total:     1.3955

*** Psi4 exiting successfully. Buy a developer a beer!
