                               Psi4 1.4a3.dev225

  ==> Input File <==

--------------------------------------------------------------------------
#psi4
#
memory 32 gb

molecule  {
0 1
  O        0.9636680    -1.0001680    -0.4301960
  N        0.7679840     1.1102310     0.3050190
  C       -1.3243600    -0.1423310    -0.3721570
  C        0.1381010     0.0595700    -0.1541750
  C       -2.0674230     1.1831610    -0.2295090
  C       -1.9000756    -1.2742837     0.6549997
  C        2.2187300    -0.5510310    -0.1110300
  C        2.1041050     0.7294570     0.3348460
  H       -1.4517930    -0.5154570    -1.3975200
  H       -1.9460070     1.5800180     0.7812150
  H       -3.1336970     1.0333660    -0.4232700
  H       -1.6836890     1.9287350    -0.9294360
  H       -1.7477770    -0.8676130     1.6266340
  H       -1.3321260    -2.1520890     0.4742110
  H       -2.9287500    -1.3798940     0.4051340
  H        3.0327410    -1.2424980    -0.2628180
  H        2.8799090     1.4020910     0.6717620
units angstrom
no_reorient  #important for SAPT in psi4, default
symmetry c1  #important for SAPT in psi4, default
}

set PROPERTIES_ORIGIN ["COM"]
properties('MP2/aug-cc-pvtz', properties = ['dipole'])
--------------------------------------------------------------------------

    Molecular point group: c1
  Charge       = 0
  Multiplicity = 1
  Basis Set: AUG-CC-PVTZ
    Blend: AUG-CC-PVTZ
  Basis Set: (AUG-CC-PVTZ AUX)
    Blend: AUG-CC-PVTZ-JKFIT

    Orbital Energies [Eh]
    ---------------------

    Doubly Occupied:

       1A    -20.632840     2A    -15.559266     3A    -11.334255
       4A    -11.289753     5A    -11.259681     6A    -11.254519
       7A    -11.224032     8A    -11.217100     9A     -1.475029
      10A     -1.224799    11A     -1.093658    12A     -1.003393
      13A     -0.941203    14A     -0.861390    15A     -0.825766
      16A     -0.771066    17A     -0.710591    18A     -0.659681
      19A     -0.635160    20A     -0.606855    21A     -0.600234
      22A     -0.571160    23A     -0.559400    24A     -0.553386
      25A     -0.511023    26A     -0.496770    27A     -0.471644
      28A     -0.454837    29A     -0.446232    30A     -0.329282

  @DF-RHF Final Energy:  -361.86742285064400

   => Energetics <=

    Nuclear Repulsion Energy =            370.7549483446226759
    One-Electron Energy =               -1226.0967321087084656
    Two-Electron Energy =                 493.4743609134417852
    Total Energy =                       -361.8674228506440045
  Basis Set: (AUG-CC-PVTZ AUX)
    Blend: AUG-CC-PVTZ-RI
    Molecular point group: c1

    Geometry (in Angstrom), charge = 0, multiplicity = 1:

       Center              X                  Y                   Z               Mass
    ------------   -----------------  -----------------  -----------------  -----------------
         O            0.893255284355    -0.994662765083    -0.428568764482    15.994914619570
         N            0.697571284355     1.115736234917     0.306646235518    14.003074004430
         C           -1.394772715645    -0.136825765083    -0.370529764482    12.000000000000
         C            0.067688284355     0.065075234917    -0.152547764482    12.000000000000
         C           -2.137835715645     1.188666234917    -0.227881764482    12.000000000000
         C           -1.970488315645    -1.268778465083     0.656626935518    12.000000000000
         C            2.148317284355    -0.545525765083    -0.109402764482    12.000000000000
         C            2.033692284355     0.734962234917     0.336473235518    12.000000000000
         H           -1.522205715645    -0.509951765083    -1.395892764482     1.007825032230
         H           -2.016419715645     1.585523234917     0.782842235518     1.007825032230
         H           -3.204109715645     1.038871234917    -0.421642764482     1.007825032230
         H           -1.754101715645     1.934240234917    -0.927808764482     1.007825032230
         H           -1.818189715645    -0.862107765083     1.628261235518     1.007825032230
         H           -1.402538715645    -2.146583765083     0.475838235518     1.007825032230
         H           -2.999162715645    -1.374388765083     0.406761235518     1.007825032230
         H            2.962328284355    -1.236992765083    -0.261190764482     1.007825032230
         H            2.809496284355     1.407596234917     0.673389235518     1.007825032230

  Basis Set: AUG-CC-PVTZ
    Blend: AUG-CC-PVTZ
  Basis Set: (AUG-CC-PVTZ AUX)
    Blend: AUG-CC-PVTZ-JKFIT
	 Reference Energy          =    -361.8674228506440045 [Eh]
	 Singles Energy            =      -0.0000000000000000 [Eh]
	 Same-Spin Energy          =      -0.3796639269337705 [Eh]
	 Opposite-Spin Energy      =      -1.2183837666316444 [Eh]
	 Correlation Energy        =      -1.5980476935654149 [Eh]
	 Total Energy              =    -363.4654705442094382 [Eh]

	 ================> DF-SCS-MP2 Energies <==================
	-----------------------------------------------------------
	 SCS Same-Spin Scale       =       0.3333333333333333 [-]
	 SCS Opposite-Spin Scale   =       1.2000000000000000 [-]
	 SCS Same-Spin Energy      =      -0.1265546423112568 [Eh]
	 SCS Opposite-Spin Energy  =      -1.4620605199579733 [Eh]
	 SCS Correlation Energy    =      -1.5886151622692302 [Eh]
	 SCS Total Energy          =    -363.4560380129132113 [Eh]
	-----------------------------------------------------------

  Dipole Moment: [D]
     X:     0.1474      Y:    -1.2517      Z:    -0.3760     Total:     1.3152

*** Psi4 exiting successfully. Buy a developer a beer!
