                               Psi4 1.4a3.dev225

  ==> Input File <==

--------------------------------------------------------------------------
#psi4
#
memory 32 gb

molecule  {
0 1
  O        0.9636680    -1.0001680    -0.4301960
  N        0.7679840     1.1102310     0.3050190
  C       -1.3243600    -0.1423310    -0.3721570
  C        0.1381010     0.0595700    -0.1541750
  C       -2.0674230     1.1831610    -0.2295090
  C       -1.8648280    -1.2049810     0.5921130
  C        2.3102947    -0.5182636    -0.0877448
  C        2.1041050     0.7294570     0.3348460
  H       -1.4517930    -0.5154570    -1.3975200
  H       -1.9460070     1.5800180     0.7812150
  H       -3.1336970     1.0333660    -0.4232700
  H       -1.6836890     1.9287350    -0.9294360
  H       -1.7477770    -0.8676130     1.6266340
  H       -1.3321260    -2.1520890     0.4742110
  H       -2.9287500    -1.3798940     0.4051340
  H        3.0327410    -1.2424980    -0.2628180
  H        2.8799090     1.4020910     0.6717620
units angstrom
no_reorient  #important for SAPT in psi4, default
symmetry c1  #important for SAPT in psi4, default
}

set PROPERTIES_ORIGIN ["COM"]
properties('MP2/aug-cc-pvtz', properties = ['dipole'])
--------------------------------------------------------------------------

    Molecular point group: c1
  Charge       = 0
  Multiplicity = 1
  Basis Set: AUG-CC-PVTZ
    Blend: AUG-CC-PVTZ
  Basis Set: (AUG-CC-PVTZ AUX)
    Blend: AUG-CC-PVTZ-JKFIT

    Orbital Energies [Eh]
    ---------------------

    Doubly Occupied:

       1A    -20.619367     2A    -15.557548     3A    -11.338376
       4A    -11.288494     5A    -11.265666     6A    -11.251764
       7A    -11.225539     8A    -11.217278     9A     -1.442303
      10A     -1.219428    11A     -1.103549    12A     -1.013281
      13A     -0.938731    14A     -0.860205    15A     -0.823672
      16A     -0.762799    17A     -0.709295    18A     -0.652733
      19A     -0.632908    20A     -0.607498    21A     -0.600736
      22A     -0.564363    23A     -0.551569    24A     -0.541605
      25A     -0.505147    26A     -0.490516    27A     -0.489449
      28A     -0.454183    29A     -0.445904    30A     -0.343038

  @DF-RHF Final Energy:  -361.86520231533825

   => Energetics <=

    Nuclear Repulsion Energy =            370.6780932754568312
    One-Electron Energy =               -1226.0527066639438090
    Two-Electron Energy =                 493.5094110731487262
    Total Energy =                       -361.8652023153382515
  Basis Set: (AUG-CC-PVTZ AUX)
    Blend: AUG-CC-PVTZ-RI
    Molecular point group: c1

    Geometry (in Angstrom), charge = 0, multiplicity = 1:

       Center              X                  Y                   Z               Mass
    ------------   -----------------  -----------------  -----------------  -----------------
         O            0.879554291009    -1.005690573592    -0.424290158322    15.994914619570
         N            0.683870291009     1.104708426408     0.310924841678    14.003074004430
         C           -1.408473708991    -0.147853573592    -0.366251158322    12.000000000000
         C            0.053987291009     0.054047426408    -0.148269158322    12.000000000000
         C           -2.151536708991     1.177638426408    -0.223603158322    12.000000000000
         C           -1.948941708991    -1.210503573592     0.598018841678    12.000000000000
         C            2.226180991009    -0.523786173592    -0.081838958322    12.000000000000
         C            2.019991291009     0.723934426408     0.340751841678    12.000000000000
         H           -1.535906708991    -0.520979573592    -1.391614158322     1.007825032230
         H           -2.030120708991     1.574495426408     0.787120841678     1.007825032230
         H           -3.217810708991     1.027843426408    -0.417364158322     1.007825032230
         H           -1.767802708991     1.923212426408    -0.923530158322     1.007825032230
         H           -1.831890708991    -0.873135573592     1.632539841678     1.007825032230
         H           -1.416239708991    -2.157611573592     0.480116841678     1.007825032230
         H           -3.012863708991    -1.385416573592     0.411039841678     1.007825032230
         H            2.948627291009    -1.248020573592    -0.256912158322     1.007825032230
         H            2.795795291009     1.396568426408     0.677667841678     1.007825032230

  Basis Set: AUG-CC-PVTZ
    Blend: AUG-CC-PVTZ
  Basis Set: (AUG-CC-PVTZ AUX)
    Blend: AUG-CC-PVTZ-JKFIT
	 Reference Energy          =    -361.8652023153382515 [Eh]
	 Singles Energy            =      -0.0000000000000000 [Eh]
	 Same-Spin Energy          =      -0.3793139279200567 [Eh]
	 Opposite-Spin Energy      =      -1.2190350118432476 [Eh]
	 Correlation Energy        =      -1.5983489397633042 [Eh]
	 Total Energy              =    -363.4635512551015495 [Eh]

	 ================> DF-SCS-MP2 Energies <==================
	-----------------------------------------------------------
	 SCS Same-Spin Scale       =       0.3333333333333333 [-]
	 SCS Opposite-Spin Scale   =       1.2000000000000000 [-]
	 SCS Same-Spin Energy      =      -0.1264379759733522 [Eh]
	 SCS Opposite-Spin Energy  =      -1.4628420142118970 [Eh]
	 SCS Correlation Energy    =      -1.5892799901852492 [Eh]
	 SCS Total Energy          =    -363.4544823055235270 [Eh]
	-----------------------------------------------------------

  Dipole Moment: [D]
     X:     0.2793      Y:    -1.1827      Z:    -0.3263     Total:     1.2583

*** Psi4 exiting successfully. Buy a developer a beer!
