                               Psi4 1.4a3.dev225

  ==> Input File <==

--------------------------------------------------------------------------
#psi4
#
memory 32 gb

molecule  {
0 1
  O        0.9636680    -1.0001680    -0.4301960
  N        0.7679840     1.1102310     0.3050190
  C       -1.3243600    -0.1423310    -0.3721570
  C        0.1381010     0.0595700    -0.1541750
  C       -2.0674230     1.1831610    -0.2295090
  C       -1.8648280    -1.2049810     0.5921130
  C        2.2187300    -0.5510310    -0.1110300
  C        2.1041050     0.7294570     0.3348460
  H       -1.4517930    -0.5154570    -1.3975200
  H       -1.9682319     1.5073743     0.5962044
  H       -3.1336970     1.0333660    -0.4232700
  H       -1.6836890     1.9287350    -0.9294360
  H       -1.7477770    -0.8676130     1.6266340
  H       -1.3321260    -2.1520890     0.4742110
  H       -2.9287500    -1.3798940     0.4051340
  H        3.0327410    -1.2424980    -0.2628180
  H        2.8799090     1.4020910     0.6717620
units angstrom
no_reorient  #important for SAPT in psi4, default
symmetry c1  #important for SAPT in psi4, default
}

set PROPERTIES_ORIGIN ["COM"]
properties('MP2/aug-cc-pvtz', properties = ['dipole'])
--------------------------------------------------------------------------

    Molecular point group: c1
  Charge       = 0
  Multiplicity = 1
  Basis Set: AUG-CC-PVTZ
    Blend: AUG-CC-PVTZ
  Basis Set: (AUG-CC-PVTZ AUX)
    Blend: AUG-CC-PVTZ-JKFIT

    Orbital Energies [Eh]
    ---------------------

    Doubly Occupied:

       1A    -20.633375     2A    -15.560280     3A    -11.334694
       4A    -11.290298     5A    -11.260139     6A    -11.249901
       7A    -11.225436     8A    -11.192948     9A     -1.475581
      10A     -1.225665    11A     -1.106898    12A     -1.008912
      13A     -0.954427    14A     -0.864823    15A     -0.827955
      16A     -0.774558    17A     -0.717230    18A     -0.662324
      19A     -0.637438    20A     -0.609494    21A     -0.603991
      22A     -0.573007    23A     -0.570531    24A     -0.549659
      25A     -0.505908    26A     -0.497790    27A     -0.488878
      28A     -0.455860    29A     -0.448335    30A     -0.331059

  @DF-RHF Final Energy:  -361.83992217743190

   => Energetics <=

    Nuclear Repulsion Energy =            373.2605429034649660
    One-Electron Energy =               -1230.9261402115384954
    Two-Electron Energy =                 495.8256751306416277
    Total Energy =                       -361.8399221774319017
  Basis Set: (AUG-CC-PVTZ AUX)
    Blend: AUG-CC-PVTZ-RI
    Molecular point group: c1

    Geometry (in Angstrom), charge = 0, multiplicity = 1:

       Center              X                  Y                   Z               Mass
    ------------   -----------------  -----------------  -----------------  -----------------
         O            0.889648746949    -1.001491171414    -0.420095620041    15.994914619570
         N            0.693964746949     1.108907828586     0.315119379959    14.003074004430
         C           -1.398379253051    -0.143654171414    -0.362056620041    12.000000000000
         C            0.064081746949     0.058246828586    -0.144074620041    12.000000000000
         C           -2.141442253051     1.181837828586    -0.219408620041    12.000000000000
         C           -1.938847253051    -1.206304171414     0.602213379959    12.000000000000
         C            2.144710746949    -0.552354171414    -0.100929620041    12.000000000000
         C            2.030085746949     0.728133828586     0.344946379959    12.000000000000
         H           -1.525812253051    -0.516780171414    -1.387419620041     1.007825032230
         H           -2.042251153051     1.506051128586     0.606304779959     1.007825032230
         H           -3.207716253051     1.032042828586    -0.413169620041     1.007825032230
         H           -1.757708253051     1.927411828586    -0.919335620041     1.007825032230
         H           -1.821796253051    -0.868936171414     1.636734379959     1.007825032230
         H           -1.406145253051    -2.153412171414     0.484311379959     1.007825032230
         H           -3.002769253051    -1.381217171414     0.415234379959     1.007825032230
         H            2.958721746949    -1.243821171414    -0.252717620041     1.007825032230
         H            2.805889746949     1.400767828586     0.681862379959     1.007825032230

  Basis Set: AUG-CC-PVTZ
    Blend: AUG-CC-PVTZ
  Basis Set: (AUG-CC-PVTZ AUX)
    Blend: AUG-CC-PVTZ-JKFIT
	 Reference Energy          =    -361.8399221774319017 [Eh]
	 Singles Energy            =      -0.0000000000000000 [Eh]
	 Same-Spin Energy          =      -0.3800097834981602 [Eh]
	 Opposite-Spin Energy      =      -1.2177757334131911 [Eh]
	 Correlation Energy        =      -1.5977855169113513 [Eh]
	 Total Energy              =    -363.4377076943432598 [Eh]

	 ================> DF-SCS-MP2 Energies <==================
	-----------------------------------------------------------
	 SCS Same-Spin Scale       =       0.3333333333333333 [-]
	 SCS Opposite-Spin Scale   =       1.2000000000000000 [-]
	 SCS Same-Spin Energy      =      -0.1266699278327200 [Eh]
	 SCS Opposite-Spin Energy  =      -1.4613308800958293 [Eh]
	 SCS Correlation Energy    =      -1.5880008079285495 [Eh]
	 SCS Total Energy          =    -363.4279229853604534 [Eh]
	-----------------------------------------------------------

  Dipole Moment: [D]
     X:     0.1584      Y:    -1.2297      Z:    -0.3224     Total:     1.2811

*** Psi4 exiting successfully. Buy a developer a beer!
