                               Psi4 1.4a3.dev225

  ==> Input File <==

--------------------------------------------------------------------------
#psi4
#
memory 32 gb

molecule  {
0 1
  O        0.9636680    -1.0001680    -0.4301960
  N        0.7679840     1.1102310     0.3050190
  C       -1.3243600    -0.1423310    -0.3721570
  C        0.1381010     0.0595700    -0.1541750
  C       -2.0674230     1.1831610    -0.2295090
  C       -1.8648280    -1.2049810     0.5921130
  C        2.2187300    -0.5510310    -0.1110300
  C        2.1041050     0.7294570     0.3348460
  H       -1.4517930    -0.5154570    -1.3975200
  H       -1.9237821     1.6526617     0.9662256
  H       -3.1336970     1.0333660    -0.4232700
  H       -1.6836890     1.9287350    -0.9294360
  H       -1.7477770    -0.8676130     1.6266340
  H       -1.3321260    -2.1520890     0.4742110
  H       -2.9287500    -1.3798940     0.4051340
  H        3.0327410    -1.2424980    -0.2628180
  H        2.8799090     1.4020910     0.6717620
units angstrom
no_reorient  #important for SAPT in psi4, default
symmetry c1  #important for SAPT in psi4, default
}

set PROPERTIES_ORIGIN ["COM"]
properties('MP2/aug-cc-pvtz', properties = ['dipole'])
--------------------------------------------------------------------------

    Molecular point group: c1
  Charge       = 0
  Multiplicity = 1
  Basis Set: AUG-CC-PVTZ
    Blend: AUG-CC-PVTZ
  Basis Set: (AUG-CC-PVTZ AUX)
    Blend: AUG-CC-PVTZ-JKFIT

    Orbital Energies [Eh]
    ---------------------

    Doubly Occupied:

       1A    -20.633802     2A    -15.560057     3A    -11.335015
       4A    -11.290461     5A    -11.260076     6A    -11.254214
       7A    -11.239662     8A    -11.225780     9A     -1.475922
      10A     -1.225475    11A     -1.103251    12A     -1.005379
      13A     -0.932413    14A     -0.856455    15A     -0.825488
      16A     -0.770585    17A     -0.711451    18A     -0.661855
      19A     -0.635897    20A     -0.608602    21A     -0.597327
      22A     -0.571844    23A     -0.556619    24A     -0.527230
      25A     -0.508101    26A     -0.492618    27A     -0.472122
      28A     -0.452810    29A     -0.448135    30A     -0.331317

  @DF-RHF Final Energy:  -361.85404925295887

   => Energetics <=

    Nuclear Repulsion Energy =            371.5855088139376221
    One-Electron Energy =               -1227.7391947750465988
    Two-Electron Energy =                 494.2996367081501035
    Total Energy =                       -361.8540492529588732
  Basis Set: (AUG-CC-PVTZ AUX)
    Blend: AUG-CC-PVTZ-RI
    Molecular point group: c1

    Geometry (in Angstrom), charge = 0, multiplicity = 1:

       Center              X                  Y                   Z               Mass
    ------------   -----------------  -----------------  -----------------  -----------------
         O            0.889245413368    -1.002809496520    -0.423453159909    15.994914619570
         N            0.693561413368     1.107589503480     0.311761840091    14.003074004430
         C           -1.398782586632    -0.144972496520    -0.365414159909    12.000000000000
         C            0.063678413368     0.056928503480    -0.147432159909    12.000000000000
         C           -2.141845586632     1.180519503480    -0.222766159909    12.000000000000
         C           -1.939250586632    -1.207622496520     0.598855840091    12.000000000000
         C            2.144307413368    -0.553672496520    -0.104287159909    12.000000000000
         C            2.029682413368     0.726815503480     0.341588840091    12.000000000000
         H           -1.526215586632    -0.518098496520    -1.390777159909     1.007825032230
         H           -1.998204686632     1.650020203480     0.972968440091     1.007825032230
         H           -3.208119586632     1.030724503480    -0.416527159909     1.007825032230
         H           -1.758111586632     1.926093503480    -0.922693159909     1.007825032230
         H           -1.822199586632    -0.870254496520     1.633376840091     1.007825032230
         H           -1.406548586632    -2.154730496520     0.480953840091     1.007825032230
         H           -3.003172586632    -1.382535496520     0.411876840091     1.007825032230
         H            2.958318413368    -1.245139496520    -0.256075159909     1.007825032230
         H            2.805486413368     1.399449503480     0.678504840091     1.007825032230

  Basis Set: AUG-CC-PVTZ
    Blend: AUG-CC-PVTZ
  Basis Set: (AUG-CC-PVTZ AUX)
    Blend: AUG-CC-PVTZ-JKFIT
	 Reference Energy          =    -361.8540492529588732 [Eh]
	 Singles Energy            =      -0.0000000000000000 [Eh]
	 Same-Spin Energy          =      -0.3800896460817991 [Eh]
	 Opposite-Spin Energy      =      -1.2201166632859795 [Eh]
	 Correlation Energy        =      -1.6002063093677785 [Eh]
	 Total Energy              =    -363.4542555623266367 [Eh]

	 ================> DF-SCS-MP2 Energies <==================
	-----------------------------------------------------------
	 SCS Same-Spin Scale       =       0.3333333333333333 [-]
	 SCS Opposite-Spin Scale   =       1.2000000000000000 [-]
	 SCS Same-Spin Energy      =      -0.1266965486939330 [Eh]
	 SCS Opposite-Spin Energy  =      -1.4641399959431753 [Eh]
	 SCS Correlation Energy    =      -1.5908365446371084 [Eh]
	 SCS Total Energy          =    -363.4448857975959868 [Eh]
	-----------------------------------------------------------

  Dipole Moment: [D]
     X:     0.1986      Y:    -1.3101      Z:    -0.4654     Total:     1.4044

*** Psi4 exiting successfully. Buy a developer a beer!
