                               Psi4 1.4a3.dev225

  ==> Input File <==

--------------------------------------------------------------------------
#psi4
#
memory 32 gb

molecule  {
0 1
  O        0.9636680    -1.0001680    -0.4301960
  N        0.7679840     1.1102310     0.3050190
  C       -1.3243600    -0.1423310    -0.3721570
  C        0.1381010     0.0595700    -0.1541750
  C       -2.0674230     1.1831610    -0.2295090
  C       -1.8648280    -1.2049810     0.5921130
  C        2.2187300    -0.5510310    -0.1110300
  C        2.1041050     0.7294570     0.3348460
  H       -1.4517930    -0.5154570    -1.3975200
  H       -1.9482295     1.5727536     0.7627139
  H       -3.1336970     1.0333660    -0.4232700
  H       -1.6836890     1.9287350    -0.9294360
  H       -1.7477770    -0.8676130     1.6266340
  H       -1.3321260    -2.1520890     0.4742110
  H       -2.9287500    -1.3798940     0.4051340
  H        3.0327410    -1.2424980    -0.2628180
  H        2.8799090     1.4020910     0.6717620
units angstrom
no_reorient  #important for SAPT in psi4, default
symmetry c1  #important for SAPT in psi4, default
}

set PROPERTIES_ORIGIN ["COM"]
properties('MP2/aug-cc-pvtz', properties = ['dipole'])
--------------------------------------------------------------------------

    Molecular point group: c1
  Charge       = 0
  Multiplicity = 1
  Basis Set: AUG-CC-PVTZ
    Blend: AUG-CC-PVTZ
  Basis Set: (AUG-CC-PVTZ AUX)
    Blend: AUG-CC-PVTZ-JKFIT

    Orbital Energies [Eh]
    ---------------------

    Doubly Occupied:

       1A    -20.633470     2A    -15.560131     3A    -11.334727
       4A    -11.290309     5A    -11.260070     6A    -11.251334
       7A    -11.225463     8A    -11.214831     9A     -1.475646
      10A     -1.225513    11A     -1.103869    12A     -1.006194
      13A     -0.940109    14A     -0.859874    15A     -0.826506
      16A     -0.772134    17A     -0.713738    18A     -0.661863
      19A     -0.636122    20A     -0.607288    21A     -0.599905
      22A     -0.571646    23A     -0.558554    24A     -0.543328
      25A     -0.506336    26A     -0.491857    27A     -0.489586
      28A     -0.455331    29A     -0.448243    30A     -0.331106

  @DF-RHF Final Energy:  -361.87430993313103

   => Energetics <=

    Nuclear Repulsion Energy =            372.4056133686906946
    One-Electron Energy =               -1229.3696796877447923
    Two-Electron Energy =                 495.0897563859231241
    Total Energy =                       -361.8743099331310304
  Basis Set: (AUG-CC-PVTZ AUX)
    Blend: AUG-CC-PVTZ-RI
    Molecular point group: c1

    Geometry (in Angstrom), charge = 0, multiplicity = 1:

       Center              X                  Y                   Z               Mass
    ------------   -----------------  -----------------  -----------------  -----------------
         O            0.889467246928    -1.002084417440    -0.421606512619    15.994914619570
         N            0.693783246928     1.108314582560     0.313608487381    14.003074004430
         C           -1.398560753072    -0.144247417440    -0.363567512619    12.000000000000
         C            0.063900246928     0.057653582560    -0.145585512619    12.000000000000
         C           -2.141623753072     1.181244582560    -0.220919512619    12.000000000000
         C           -1.939028753072    -1.206897417440     0.600702487381    12.000000000000
         C            2.144529246928    -0.552947417440    -0.102440512619    12.000000000000
         C            2.029904246928     0.727540582560     0.343435487381    12.000000000000
         H           -1.525993753072    -0.517373417440    -1.388930512619     1.007825032230
         H           -2.022430253072     1.570837182560     0.771303387381     1.007825032230
         H           -3.207897753072     1.031449582560    -0.414680512619     1.007825032230
         H           -1.757889753072     1.926818582560    -0.920846512619     1.007825032230
         H           -1.821977753072    -0.869529417440     1.635223487381     1.007825032230
         H           -1.406326753072    -2.154005417440     0.482800487381     1.007825032230
         H           -3.002950753072    -1.381810417440     0.413723487381     1.007825032230
         H            2.958540246928    -1.244414417440    -0.254228512619     1.007825032230
         H            2.805708246928     1.400174582560     0.680351487381     1.007825032230

  Basis Set: AUG-CC-PVTZ
    Blend: AUG-CC-PVTZ
  Basis Set: (AUG-CC-PVTZ AUX)
    Blend: AUG-CC-PVTZ-JKFIT
	 Reference Energy          =    -361.8743099331310304 [Eh]
	 Singles Energy            =      -0.0000000000000000 [Eh]
	 Same-Spin Energy          =      -0.3799790116572369 [Eh]
	 Opposite-Spin Energy      =      -1.2183039781823526 [Eh]
	 Correlation Energy        =      -1.5982829898395894 [Eh]
	 Total Energy              =    -363.4725929229706480 [Eh]

	 ================> DF-SCS-MP2 Energies <==================
	-----------------------------------------------------------
	 SCS Same-Spin Scale       =       0.3333333333333333 [-]
	 SCS Opposite-Spin Scale   =       1.2000000000000000 [-]
	 SCS Same-Spin Energy      =      -0.1266596705524123 [Eh]
	 SCS Opposite-Spin Energy  =      -1.4619647738188231 [Eh]
	 SCS Correlation Energy    =      -1.5886244443712354 [Eh]
	 SCS Total Energy          =    -363.4629343775022789 [Eh]
	-----------------------------------------------------------

  Dipole Moment: [D]
     X:     0.1734      Y:    -1.2531      Z:    -0.3656     Total:     1.3168

*** Psi4 exiting successfully. Buy a developer a beer!
