                               Psi4 1.4a3.dev225

  ==> Input File <==

--------------------------------------------------------------------------
#psi4
#
memory 32 gb

molecule  {
0 1
  O        0.9636680    -1.0001680    -0.4301960
  N        0.7679840     1.1102310     0.3050190
  C       -1.3243600    -0.1423310    -0.3721570
  C        0.1381010     0.0595700    -0.1541750
  C       -2.0674230     1.1831610    -0.2295090
  C       -1.9353233    -1.3435865     0.7178864
  C        2.2187300    -0.5510310    -0.1110300
  C        2.1041050     0.7294570     0.3348460
  H       -1.4517930    -0.5154570    -1.3975200
  H       -1.9460070     1.5800180     0.7812150
  H       -3.1336970     1.0333660    -0.4232700
  H       -1.6836890     1.9287350    -0.9294360
  H       -1.7477770    -0.8676130     1.6266340
  H       -1.3321260    -2.1520890     0.4742110
  H       -2.9287500    -1.3798940     0.4051340
  H        3.0327410    -1.2424980    -0.2628180
  H        2.8799090     1.4020910     0.6717620
units angstrom
no_reorient  #important for SAPT in psi4, default
symmetry c1  #important for SAPT in psi4, default
}

set PROPERTIES_ORIGIN ["COM"]
properties('MP2/aug-cc-pvtz', properties = ['dipole'])
--------------------------------------------------------------------------

    Molecular point group: c1
  Charge       = 0
  Multiplicity = 1
  Basis Set: AUG-CC-PVTZ
    Blend: AUG-CC-PVTZ
  Basis Set: (AUG-CC-PVTZ AUX)
    Blend: AUG-CC-PVTZ-JKFIT

    Orbital Energies [Eh]
    ---------------------

    Doubly Occupied:

       1A    -20.632234     2A    -15.558498     3A    -11.333966
       4A    -11.289270     5A    -11.259369     6A    -11.256833
       7A    -11.225900     8A    -11.217264     9A     -1.474476
      10A     -1.224211    11A     -1.086689    12A     -1.001247
      13A     -0.944136    14A     -0.862549    15A     -0.825252
      16A     -0.770341    17A     -0.708525    18A     -0.658290
      19A     -0.634974    20A     -0.611332    21A     -0.602206
      22A     -0.570868    23A     -0.564338    24A     -0.560986
      25A     -0.513914    26A     -0.499955    27A     -0.455837
      28A     -0.453816    29A     -0.437352    30A     -0.326786

  @DF-RHF Final Energy:  -361.84860950074352

   => Energetics <=

    Nuclear Repulsion Energy =            369.2485356286458682
    One-Electron Energy =               -1223.0714667423665105
    Two-Electron Energy =                 491.9743216129771213
    Total Energy =                       -361.8486095007435210
  Basis Set: (AUG-CC-PVTZ AUX)
    Blend: AUG-CC-PVTZ-RI
    Molecular point group: c1

    Geometry (in Angstrom), charge = 0, multiplicity = 1:

       Center              X                  Y                   Z               Mass
    ------------   -----------------  -----------------  -----------------  -----------------
         O            0.897063499356    -0.987175185395    -0.435363138989    15.994914619570
         N            0.701379499356     1.123223814605     0.299851861011    14.003074004430
         C           -1.390964500644    -0.129338185395    -0.377324138989    12.000000000000
         C            0.071496499356     0.072562814605    -0.159342138989    12.000000000000
         C           -2.134027500644     1.196153814605    -0.234676138989    12.000000000000
         C           -2.001927800644    -1.330593685395     0.712719261011    12.000000000000
         C            2.152125499356    -0.538038185395    -0.116197138989    12.000000000000
         C            2.037500499356     0.742449814605     0.329678861011    12.000000000000
         H           -1.518397500644    -0.502464185395    -1.402687138989     1.007825032230
         H           -2.012611500644     1.593010814605     0.776047861011     1.007825032230
         H           -3.200301500644     1.046358814605    -0.428437138989     1.007825032230
         H           -1.750293500644     1.941727814605    -0.934603138989     1.007825032230
         H           -1.814381500644    -0.854620185395     1.621466861011     1.007825032230
         H           -1.398730500644    -2.139096185395     0.469043861011     1.007825032230
         H           -2.995354500644    -1.366901185395     0.399966861011     1.007825032230
         H            2.966136499356    -1.229505185395    -0.267985138989     1.007825032230
         H            2.813304499356     1.415083814605     0.666594861011     1.007825032230

  Basis Set: AUG-CC-PVTZ
    Blend: AUG-CC-PVTZ
  Basis Set: (AUG-CC-PVTZ AUX)
    Blend: AUG-CC-PVTZ-JKFIT
	 Reference Energy          =    -361.8486095007435210 [Eh]
	 Singles Energy            =      -0.0000000000000000 [Eh]
	 Same-Spin Energy          =      -0.3799662071894255 [Eh]
	 Opposite-Spin Energy      =      -1.2194642845460681 [Eh]
	 Correlation Energy        =      -1.5994304917354936 [Eh]
	 Total Energy              =    -363.4480399924790390 [Eh]

	 ================> DF-SCS-MP2 Energies <==================
	-----------------------------------------------------------
	 SCS Same-Spin Scale       =       0.3333333333333333 [-]
	 SCS Opposite-Spin Scale   =       1.2000000000000000 [-]
	 SCS Same-Spin Energy      =      -0.1266554023964752 [Eh]
	 SCS Opposite-Spin Energy  =      -1.4633571414552817 [Eh]
	 SCS Correlation Energy    =      -1.5900125438517569 [Eh]
	 SCS Total Energy          =    -363.4386220445952631 [Eh]
	-----------------------------------------------------------

  Dipole Moment: [D]
     X:     0.1392      Y:    -1.2201      Z:    -0.3988     Total:     1.2912

*** Psi4 exiting successfully. Buy a developer a beer!
