                               Psi4 1.4a3.dev225

  ==> Input File <==

--------------------------------------------------------------------------
#psi4
#
memory 32 gb

molecule  {
0 1
  O        0.9636680    -1.0001680    -0.4301960
  N        0.7679840     1.1102310     0.3050190
  C       -1.3243600    -0.1423310    -0.3721570
  C        0.1381010     0.0595700    -0.1541750
  C       -2.0674230     1.1831610    -0.2295090
  C       -1.8648280    -1.2049810     0.5921130
  C        2.3588873    -0.5381674    -0.0891919
  C        2.1041050     0.7294570     0.3348460
  H       -1.4517930    -0.5154570    -1.3975200
  H       -1.9460070     1.5800180     0.7812150
  H       -3.1336970     1.0333660    -0.4232700
  H       -1.6836890     1.9287350    -0.9294360
  H       -1.7477770    -0.8676130     1.6266340
  H       -1.3321260    -2.1520890     0.4742110
  H       -2.9287500    -1.3798940     0.4051340
  H        3.0327410    -1.2424980    -0.2628180
  H        2.8799090     1.4020910     0.6717620
units angstrom
no_reorient  #important for SAPT in psi4, default
symmetry c1  #important for SAPT in psi4, default
}

set PROPERTIES_ORIGIN ["COM"]
properties('MP2/aug-cc-pvtz', properties = ['dipole'])
--------------------------------------------------------------------------

    Molecular point group: c1
  Charge       = 0
  Multiplicity = 1
  Basis Set: AUG-CC-PVTZ
    Blend: AUG-CC-PVTZ
  Basis Set: (AUG-CC-PVTZ AUX)
    Blend: AUG-CC-PVTZ-JKFIT

    Orbital Energies [Eh]
    ---------------------

    Doubly Occupied:

       1A    -20.614408     2A    -15.558423     3A    -11.340458
       4A    -11.290644     5A    -11.274524     6A    -11.252256
       7A    -11.225701     8A    -11.217714     9A     -1.430767
      10A     -1.217356    11A     -1.102635    12A     -1.011781
      13A     -0.938980    14A     -0.860056    15A     -0.830225
      16A     -0.758318    17A     -0.709440    18A     -0.656719
      19A     -0.634685    20A     -0.607095    21A     -0.600594
      22A     -0.560879    23A     -0.543124    24A     -0.541746
      25A     -0.504608    26A     -0.490671    27A     -0.489670
      28A     -0.454925    29A     -0.443964    30A     -0.341895

  @DF-RHF Final Energy:  -361.85203653592788

   => Energetics <=

    Nuclear Repulsion Energy =            369.4995474977067147
    One-Electron Energy =               -1223.6946422841660933
    Two-Electron Energy =                 492.3430582505314419
    Total Energy =                       -361.8520365359278799
  Basis Set: (AUG-CC-PVTZ AUX)
    Blend: AUG-CC-PVTZ-RI
    Molecular point group: c1

    Geometry (in Angstrom), charge = 0, multiplicity = 1:

       Center              X                  Y                   Z               Mass
    ------------   -----------------  -----------------  -----------------  -----------------
         O            0.874304272760    -1.003540136833    -0.424133811442    15.994914619570
         N            0.678620272760     1.106858863167     0.311081188558    14.003074004430
         C           -1.413723727240    -0.145703136833    -0.366094811442    12.000000000000
         C            0.048737272760     0.056197863167    -0.148112811442    12.000000000000
         C           -2.156786727240     1.179788863167    -0.223446811442    12.000000000000
         C           -1.954191727240    -1.208353136833     0.598175188558    12.000000000000
         C            2.269523572760    -0.541539536833    -0.083129711442    12.000000000000
         C            2.014741272760     0.726084863167     0.340908188558    12.000000000000
         H           -1.541156727240    -0.518829136833    -1.391457811442     1.007825032230
         H           -2.035370727240     1.576645863167     0.787277188558     1.007825032230
         H           -3.223060727240     1.029993863167    -0.417207811442     1.007825032230
         H           -1.773052727240     1.925362863167    -0.923373811442     1.007825032230
         H           -1.837140727240    -0.870985136833     1.632696188558     1.007825032230
         H           -1.421489727240    -2.155461136833     0.480273188558     1.007825032230
         H           -3.018113727240    -1.383266136833     0.411196188558     1.007825032230
         H            2.943377272760    -1.245870136833    -0.256755811442     1.007825032230
         H            2.790545272760     1.398718863167     0.677824188558     1.007825032230

  Basis Set: AUG-CC-PVTZ
    Blend: AUG-CC-PVTZ
  Basis Set: (AUG-CC-PVTZ AUX)
    Blend: AUG-CC-PVTZ-JKFIT
	 Reference Energy          =    -361.8520365359278799 [Eh]
	 Singles Energy            =      -0.0000000000000000 [Eh]
	 Same-Spin Energy          =      -0.3796360663131318 [Eh]
	 Opposite-Spin Energy      =      -1.2204985583037646 [Eh]
	 Correlation Energy        =      -1.6001346246168966 [Eh]
	 Total Energy              =    -363.4521711605447649 [Eh]

	 ================> DF-SCS-MP2 Energies <==================
	-----------------------------------------------------------
	 SCS Same-Spin Scale       =       0.3333333333333333 [-]
	 SCS Opposite-Spin Scale   =       1.2000000000000000 [-]
	 SCS Same-Spin Energy      =      -0.1265453554377106 [Eh]
	 SCS Opposite-Spin Energy  =      -1.4645982699645175 [Eh]
	 SCS Correlation Energy    =      -1.5911436254022280 [Eh]
	 SCS Total Energy          =    -363.4431801613301332 [Eh]
	-----------------------------------------------------------

  Dipole Moment: [D]
     X:     0.2847      Y:    -1.1763      Z:    -0.3209     Total:     1.2521

*** Psi4 exiting successfully. Buy a developer a beer!
