                               Psi4 1.4a3.dev225

  ==> Input File <==

--------------------------------------------------------------------------
#psi4
#
memory 32 gb

molecule  {
0 1
  O        0.9636680    -1.0001680    -0.4301960
  N        0.7679840     1.1102310     0.3050190
  C       -1.3243600    -0.1423310    -0.3721570
  C        0.1381010     0.0595700    -0.1541750
  C       -2.0674230     1.1831610    -0.2295090
  C       -1.8648280    -1.2049810     0.5921130
  C        2.2187300    -0.5510310    -0.1110300
  C        2.1041050     0.7294570     0.3348460
  H       -1.4517930    -0.5154570    -1.3975200
  H       -1.9460070     1.5800180     0.7812150
  H       -3.1336970     1.0333660    -0.4232700
  H       -1.6836890     1.9287350    -0.9294360
  H       -1.7477770    -0.8676130     1.6266340
  H       -1.3077576    -2.1954144     0.4688176
  H       -2.9287500    -1.3798940     0.4051340
  H        3.0327410    -1.2424980    -0.2628180
  H        2.8799090     1.4020910     0.6717620
units angstrom
no_reorient  #important for SAPT in psi4, default
symmetry c1  #important for SAPT in psi4, default
}

set PROPERTIES_ORIGIN ["COM"]
properties('MP2/aug-cc-pvtz', properties = ['dipole'])
--------------------------------------------------------------------------

    Molecular point group: c1
  Charge       = 0
  Multiplicity = 1
  Basis Set: AUG-CC-PVTZ
    Blend: AUG-CC-PVTZ
  Basis Set: (AUG-CC-PVTZ AUX)
    Blend: AUG-CC-PVTZ-JKFIT

    Orbital Energies [Eh]
    ---------------------

    Doubly Occupied:

       1A    -20.633385     2A    -15.560184     3A    -11.334796
       4A    -11.290315     5A    -11.260038     6A    -11.252056
       7A    -11.231354     8A    -11.217702     9A     -1.475580
      10A     -1.225526    11A     -1.103428    12A     -1.005780
      13A     -0.936219    14A     -0.858654    15A     -0.826370
      16A     -0.771761    17A     -0.713320    18A     -0.661571
      19A     -0.636050    20A     -0.603563    21A     -0.598998
      22A     -0.571598    23A     -0.556147    24A     -0.542334
      25A     -0.506353    26A     -0.491213    27A     -0.486108
      28A     -0.455243    29A     -0.448153    30A     -0.331139

  @DF-RHF Final Energy:  -361.87214312516551

   => Energetics <=

    Nuclear Repulsion Energy =            372.1259326342985219
    One-Electron Energy =               -1228.8262726852608466
    Two-Electron Energy =                 494.8281969257967603
    Total Energy =                       -361.8721431251655076
  Basis Set: (AUG-CC-PVTZ AUX)
    Blend: AUG-CC-PVTZ-RI
    Molecular point group: c1

    Geometry (in Angstrom), charge = 0, multiplicity = 1:

       Center              X                  Y                   Z               Mass
    ------------   -----------------  -----------------  -----------------  -----------------
         O            0.889225963437    -1.001757203093    -0.421725450738    15.994914619570
         N            0.693541963437     1.108641796907     0.313489549262    14.003074004430
         C           -1.398802036563    -0.143920203093    -0.363686450738    12.000000000000
         C            0.063658963437     0.057980796907    -0.145704450738    12.000000000000
         C           -2.141865036563     1.181571796907    -0.221038450738    12.000000000000
         C           -1.939270036563    -1.206570203093     0.600583549262    12.000000000000
         C            2.144287963437    -0.552620203093    -0.102559450738    12.000000000000
         C            2.029662963437     0.727867796907     0.343316549262    12.000000000000
         H           -1.526235036563    -0.517046203093    -1.389049450738     1.007825032230
         H           -2.020449036563     1.578428796907     0.789685549262     1.007825032230
         H           -3.208139036563     1.031776796907    -0.414799450738     1.007825032230
         H           -1.758131036563     1.927145796907    -0.920965450738     1.007825032230
         H           -1.822219036563    -0.869202203093     1.635104549262     1.007825032230
         H           -1.382199636563    -2.197003603093     0.477288149262     1.007825032230
         H           -3.003192036563    -1.381483203093     0.413604549262     1.007825032230
         H            2.958298963437    -1.244087203093    -0.254347450738     1.007825032230
         H            2.805466963437     1.400501796907     0.680232549262     1.007825032230

  Basis Set: AUG-CC-PVTZ
    Blend: AUG-CC-PVTZ
  Basis Set: (AUG-CC-PVTZ AUX)
    Blend: AUG-CC-PVTZ-JKFIT
	 Reference Energy          =    -361.8721431251655076 [Eh]
	 Singles Energy            =      -0.0000000000000000 [Eh]
	 Same-Spin Energy          =      -0.3800075637817441 [Eh]
	 Opposite-Spin Energy      =      -1.2187906504461337 [Eh]
	 Correlation Energy        =      -1.5987982142278778 [Eh]
	 Total Energy              =    -363.4709413393933914 [Eh]

	 ================> DF-SCS-MP2 Energies <==================
	-----------------------------------------------------------
	 SCS Same-Spin Scale       =       0.3333333333333333 [-]
	 SCS Opposite-Spin Scale   =       1.2000000000000000 [-]
	 SCS Same-Spin Energy      =      -0.1266691879272480 [Eh]
	 SCS Opposite-Spin Energy  =      -1.4625487805353603 [Eh]
	 SCS Correlation Energy    =      -1.5892179684626084 [Eh]
	 SCS Total Energy          =    -363.4613610936281134 [Eh]
	-----------------------------------------------------------

  Dipole Moment: [D]
     X:     0.1682      Y:    -1.2284      Z:    -0.3764     Total:     1.2957

*** Psi4 exiting successfully. Buy a developer a beer!
