                               Psi4 1.4a3.dev225

  ==> Input File <==

--------------------------------------------------------------------------
#psi4
#
memory 32 gb

molecule  {
0 1
  O        0.9636680    -1.0001680    -0.4301960
  N        0.7679840     1.1102310     0.3050190
  C       -1.3243600    -0.1423310    -0.3721570
  C        0.1381010     0.0595700    -0.1541750
  C       -2.0674230     1.1831610    -0.2295090
  C       -1.8648280    -1.2049810     0.5921130
  C        2.2187300    -0.5510310    -0.1110300
  C        2.1041050     0.7294570     0.3348460
  H       -1.4401930    -0.4814920    -1.3041829
  H       -1.9460070     1.5800180     0.7812150
  H       -3.1336970     1.0333660    -0.4232700
  H       -1.6836890     1.9287350    -0.9294360
  H       -1.7477770    -0.8676130     1.6266340
  H       -1.3321260    -2.1520890     0.4742110
  H       -2.9287500    -1.3798940     0.4051340
  H        3.0327410    -1.2424980    -0.2628180
  H        2.8799090     1.4020910     0.6717620
units angstrom
no_reorient  #important for SAPT in psi4, default
symmetry c1  #important for SAPT in psi4, default
}

set PROPERTIES_ORIGIN ["COM"]
properties('MP2/aug-cc-pvtz', properties = ['dipole'])
--------------------------------------------------------------------------

    Molecular point group: c1
  Charge       = 0
  Multiplicity = 1
  Basis Set: AUG-CC-PVTZ
    Blend: AUG-CC-PVTZ
  Basis Set: (AUG-CC-PVTZ AUX)
    Blend: AUG-CC-PVTZ-JKFIT

    Orbital Energies [Eh]
    ---------------------

    Doubly Occupied:

       1A    -20.633583     2A    -15.559638     3A    -11.334102
       4A    -11.290075     5A    -11.259887     6A    -11.239233
       7A    -11.224764     8A    -11.216548     9A     -1.475674
      10A     -1.225204    11A     -1.108203    12A     -1.006419
      13A     -0.938495    14A     -0.863521    15A     -0.826240
      16A     -0.776424    17A     -0.721132    18A     -0.662589
      19A     -0.638467    20A     -0.607828    21A     -0.599548
      22A     -0.571648    23A     -0.557506    24A     -0.541439
      25A     -0.506491    26A     -0.499018    27A     -0.489717
      28A     -0.454866    29A     -0.448072    30A     -0.331261

  @DF-RHF Final Energy:  -361.86871825354200

   => Energetics <=

    Nuclear Repulsion Energy =            372.8667627724497606
    One-Electron Energy =               -1230.2557713187843547
    Two-Electron Energy =                 495.5202902927925948
    Total Energy =                       -361.8687182535419993
  Basis Set: (AUG-CC-PVTZ AUX)
    Blend: AUG-CC-PVTZ-RI
    Molecular point group: c1

    Geometry (in Angstrom), charge = 0, multiplicity = 1:

       Center              X                  Y                   Z               Mass
    ------------   -----------------  -----------------  -----------------  -----------------
         O            0.889341822777    -1.002458529394    -0.422621322623    15.994914619570
         N            0.693657822777     1.107940470606     0.312593677377    14.003074004430
         C           -1.398686177223    -0.144621529394    -0.364582322623    12.000000000000
         C            0.063774822777     0.057279470606    -0.146600322623    12.000000000000
         C           -2.141749177223     1.180870470606    -0.221934322623    12.000000000000
         C           -1.939154177223    -1.207271529394     0.599687677377    12.000000000000
         C            2.144403822777    -0.553321529394    -0.103455322623    12.000000000000
         C            2.029778822777     0.727166470606     0.342420677377    12.000000000000
         H           -1.514519177223    -0.483782529394    -1.296608222623     1.007825032230
         H           -2.020333177223     1.577727470606     0.788789677377     1.007825032230
         H           -3.208023177223     1.031075470606    -0.415695322623     1.007825032230
         H           -1.758015177223     1.926444470606    -0.921861322623     1.007825032230
         H           -1.822103177223    -0.869903529394     1.634208677377     1.007825032230
         H           -1.406452177223    -2.154379529394     0.481785677377     1.007825032230
         H           -3.003076177223    -1.382184529394     0.412708677377     1.007825032230
         H            2.958414822777    -1.244788529394    -0.255243322623     1.007825032230
         H            2.805582822777     1.399800470606     0.679336677377     1.007825032230

  Basis Set: AUG-CC-PVTZ
    Blend: AUG-CC-PVTZ
  Basis Set: (AUG-CC-PVTZ AUX)
    Blend: AUG-CC-PVTZ-JKFIT
	 Reference Energy          =    -361.8687182535419993 [Eh]
	 Singles Energy            =      -0.0000000000000000 [Eh]
	 Same-Spin Energy          =      -0.3799264062897209 [Eh]
	 Opposite-Spin Energy      =      -1.2178761379803018 [Eh]
	 Correlation Energy        =      -1.5978025442700226 [Eh]
	 Total Energy              =    -363.4665207978119952 [Eh]

	 ================> DF-SCS-MP2 Energies <==================
	-----------------------------------------------------------
	 SCS Same-Spin Scale       =       0.3333333333333333 [-]
	 SCS Opposite-Spin Scale   =       1.2000000000000000 [-]
	 SCS Same-Spin Energy      =      -0.1266421354299069 [Eh]
	 SCS Opposite-Spin Energy  =      -1.4614513655763621 [Eh]
	 SCS Correlation Energy    =      -1.5880935010062691 [Eh]
	 SCS Total Energy          =    -363.4568117545482551 [Eh]
	-----------------------------------------------------------

  Dipole Moment: [D]
     X:     0.1681      Y:    -1.2709      Z:    -0.4106     Total:     1.3461

*** Psi4 exiting successfully. Buy a developer a beer!
