                               Psi4 1.4a3.dev225

  ==> Input File <==

--------------------------------------------------------------------------
#psi4
#
memory 32 gb

molecule  {
0 1
  O        0.9636680    -1.0001680    -0.4301960
  N        0.7479827     1.1210303     0.3071782
  C       -1.3243600    -0.1423310    -0.3721570
  C        0.1381010     0.0595700    -0.1541750
  C       -2.0674230     1.1831610    -0.2295090
  C       -1.8648280    -1.2049810     0.5921130
  C        2.2187300    -0.5510310    -0.1110300
  C        2.1041050     0.7294570     0.3348460
  H       -1.4517930    -0.5154570    -1.3975200
  H       -1.9460070     1.5800180     0.7812150
  H       -3.1336970     1.0333660    -0.4232700
  H       -1.6836890     1.9287350    -0.9294360
  H       -1.7477770    -0.8676130     1.6266340
  H       -1.3321260    -2.1520890     0.4742110
  H       -2.9287500    -1.3798940     0.4051340
  H        3.0327410    -1.2424980    -0.2628180
  H        2.8799090     1.4020910     0.6717620
units angstrom
no_reorient  #important for SAPT in psi4, default
symmetry c1  #important for SAPT in psi4, default
}

set PROPERTIES_ORIGIN ["COM"]
properties('MP2/aug-cc-pvtz', properties = ['dipole'])
--------------------------------------------------------------------------

    Molecular point group: c1
  Charge       = 0
  Multiplicity = 1
  Basis Set: AUG-CC-PVTZ
    Blend: AUG-CC-PVTZ
  Basis Set: (AUG-CC-PVTZ AUX)
    Blend: AUG-CC-PVTZ-JKFIT

    Orbital Energies [Eh]
    ---------------------

    Doubly Occupied:

       1A    -20.633697     2A    -15.562639     3A    -11.335327
       4A    -11.291749     5A    -11.262165     6A    -11.250793
       7A    -11.225223     8A    -11.216716     9A     -1.475325
      10A     -1.221986    11A     -1.102784    12A     -1.006419
      13A     -0.938644    14A     -0.859718    15A     -0.825590
      16A     -0.769686    17A     -0.713072    18A     -0.661650
      19A     -0.636149    20A     -0.607189    21A     -0.596610
      22A     -0.571820    23A     -0.557191    24A     -0.541511
      25A     -0.505532    26A     -0.490765    27A     -0.488615
      28A     -0.457807    29A     -0.445874    30A     -0.333371

  @DF-RHF Final Energy:  -361.87342950635536

   => Energetics <=

    Nuclear Repulsion Energy =            372.0176396634397520
    One-Electron Energy =               -1228.6109064155646138
    Two-Electron Energy =                 494.7198372457695541
    Total Energy =                       -361.8734295063553645
  Basis Set: (AUG-CC-PVTZ AUX)
    Blend: AUG-CC-PVTZ-RI
    Molecular point group: c1

    Geometry (in Angstrom), charge = 0, multiplicity = 1:

       Center              X                  Y                   Z               Mass
    ------------   -----------------  -----------------  -----------------  -----------------
         O            0.891968766336    -1.003511867744    -0.422046613521    15.994914619570
         N            0.676283466336     1.117686432256     0.315327586479    14.003074004430
         C           -1.396059233664    -0.145674867744    -0.364007613521    12.000000000000
         C            0.066401766336     0.056226132256    -0.146025613521    12.000000000000
         C           -2.139122233664     1.179817132256    -0.221359613521    12.000000000000
         C           -1.936527233664    -1.208324867744     0.600262386479    12.000000000000
         C            2.147030766336    -0.554374867744    -0.102880613521    12.000000000000
         C            2.032405766336     0.726113132256     0.342995386479    12.000000000000
         H           -1.523492233664    -0.518800867744    -1.389370613521     1.007825032230
         H           -2.017706233664     1.576674132256     0.789364386479     1.007825032230
         H           -3.205396233664     1.030022132256    -0.415120613521     1.007825032230
         H           -1.755388233664     1.925391132256    -0.921286613521     1.007825032230
         H           -1.819476233664    -0.870956867744     1.634783386479     1.007825032230
         H           -1.403825233664    -2.155432867744     0.482360386479     1.007825032230
         H           -3.000449233664    -1.383237867744     0.413283386479     1.007825032230
         H            2.961041766336    -1.245841867744    -0.254668613521     1.007825032230
         H            2.808209766336     1.398747132256     0.679911386479     1.007825032230

  Basis Set: AUG-CC-PVTZ
    Blend: AUG-CC-PVTZ
  Basis Set: (AUG-CC-PVTZ AUX)
    Blend: AUG-CC-PVTZ-JKFIT
	 Reference Energy          =    -361.8734295063553645 [Eh]
	 Singles Energy            =      -0.0000000000000000 [Eh]
	 Same-Spin Energy          =      -0.3797872567942496 [Eh]
	 Opposite-Spin Energy      =      -1.2187366981002326 [Eh]
	 Correlation Energy        =      -1.5985239548944821 [Eh]
	 Total Energy              =    -363.4719534612498251 [Eh]

	 ================> DF-SCS-MP2 Energies <==================
	-----------------------------------------------------------
	 SCS Same-Spin Scale       =       0.3333333333333333 [-]
	 SCS Opposite-Spin Scale   =       1.2000000000000000 [-]
	 SCS Same-Spin Energy      =      -0.1265957522647498 [Eh]
	 SCS Opposite-Spin Energy  =      -1.4624840377202790 [Eh]
	 SCS Correlation Energy    =      -1.5890797899850289 [Eh]
	 SCS Total Energy          =    -363.4625092963403858 [Eh]
	-----------------------------------------------------------

  Dipole Moment: [D]
     X:     0.2117      Y:    -1.2774      Z:    -0.3772     Total:     1.3486

*** Psi4 exiting successfully. Buy a developer a beer!
