                               Psi4 1.4a3.dev225

  ==> Input File <==

--------------------------------------------------------------------------
#psi4
#
memory 32 gb

molecule  {
0 1
  O        0.9636680    -1.0001680    -0.4301960
  N        0.7679840     1.1102310     0.3050190
  C       -1.3243600    -0.1423310    -0.3721570
  C        0.1381010     0.0595700    -0.1541750
  C       -2.0674230     1.1831610    -0.2295090
  C       -1.8648280    -1.2049810     0.5921130
  C        2.2187300    -0.5510310    -0.1110300
  C        2.1041050     0.7294570     0.3348460
  H       -1.4517930    -0.5154570    -1.3975200
  H       -1.9460070     1.5800180     0.7812150
  H       -3.1336970     1.0333660    -0.4232700
  H       -1.6907154     1.9150830    -0.9166199
  H       -1.7477770    -0.8676130     1.6266340
  H       -1.3321260    -2.1520890     0.4742110
  H       -2.9287500    -1.3798940     0.4051340
  H        3.0327410    -1.2424980    -0.2628180
  H        2.8799090     1.4020910     0.6717620
units angstrom
no_reorient  #important for SAPT in psi4, default
symmetry c1  #important for SAPT in psi4, default
}

set PROPERTIES_ORIGIN ["COM"]
properties('MP2/aug-cc-pvtz', properties = ['dipole'])
--------------------------------------------------------------------------

    Molecular point group: c1
  Charge       = 0
  Multiplicity = 1
  Basis Set: AUG-CC-PVTZ
    Blend: AUG-CC-PVTZ
  Basis Set: (AUG-CC-PVTZ AUX)
    Blend: AUG-CC-PVTZ-JKFIT

    Orbital Energies [Eh]
    ---------------------

    Doubly Occupied:

       1A    -20.633478     2A    -15.560138     3A    -11.334734
       4A    -11.290319     5A    -11.260073     6A    -11.251358
       7A    -11.225307     8A    -11.214815     9A     -1.475654
      10A     -1.225518    11A     -1.103814    12A     -1.006148
      13A     -0.940287    14A     -0.859679    15A     -0.826507
      16A     -0.772035    17A     -0.713503    18A     -0.661940
      19A     -0.636027    20A     -0.609076    21A     -0.599525
      22A     -0.571705    23A     -0.558245    24A     -0.541600
      25A     -0.506507    26A     -0.492787    27A     -0.489200
      28A     -0.455285    29A     -0.448243    30A     -0.331114

  @DF-RHF Final Energy:  -361.87431727181911

   => Energetics <=

    Nuclear Repulsion Energy =            372.4078085382464565
    One-Electron Energy =               -1229.3750128315612073
    Two-Electron Energy =                 495.0928870214956987
    Total Energy =                       -361.8743172718191090
  Basis Set: (AUG-CC-PVTZ AUX)
    Blend: AUG-CC-PVTZ-RI
    Molecular point group: c1

    Geometry (in Angstrom), charge = 0, multiplicity = 1:

       Center              X                  Y                   Z               Mass
    ------------   -----------------  -----------------  -----------------  -----------------
         O            0.889510837095    -1.002026456918    -0.421890682141    15.994914619570
         N            0.693826837095     1.108372543082     0.313324317859    14.003074004430
         C           -1.398517162905    -0.144189456918    -0.363851682141    12.000000000000
         C            0.063943837095     0.057711543082    -0.145869682141    12.000000000000
         C           -2.141580162905     1.181302543082    -0.221203682141    12.000000000000
         C           -1.938985162905    -1.206839456918     0.600418317859    12.000000000000
         C            2.144572837095    -0.552889456918    -0.102724682141    12.000000000000
         C            2.029947837095     0.727598543082     0.343151317859    12.000000000000
         H           -1.525950162905    -0.517315456918    -1.389214682141     1.007825032230
         H           -2.020164162905     1.578159543082     0.789520317859     1.007825032230
         H           -3.207854162905     1.031507543082    -0.414964682141     1.007825032230
         H           -1.764872562905     1.913224543082    -0.908314582141     1.007825032230
         H           -1.821934162905    -0.869471456918     1.634939317859     1.007825032230
         H           -1.406283162905    -2.153947456918     0.482516317859     1.007825032230
         H           -3.002907162905    -1.381752456918     0.413439317859     1.007825032230
         H            2.958583837095    -1.244356456918    -0.254512682141     1.007825032230
         H            2.805751837095     1.400232543082     0.680067317859     1.007825032230

  Basis Set: AUG-CC-PVTZ
    Blend: AUG-CC-PVTZ
  Basis Set: (AUG-CC-PVTZ AUX)
    Blend: AUG-CC-PVTZ-JKFIT
	 Reference Energy          =    -361.8743172718191090 [Eh]
	 Singles Energy            =      -0.0000000000000000 [Eh]
	 Same-Spin Energy          =      -0.3799836827257682 [Eh]
	 Opposite-Spin Energy      =      -1.2183043329473218 [Eh]
	 Correlation Energy        =      -1.5982880156730899 [Eh]
	 Total Energy              =    -363.4726052874921720 [Eh]

	 ================> DF-SCS-MP2 Energies <==================
	-----------------------------------------------------------
	 SCS Same-Spin Scale       =       0.3333333333333333 [-]
	 SCS Opposite-Spin Scale   =       1.2000000000000000 [-]
	 SCS Same-Spin Energy      =      -0.1266612275752561 [Eh]
	 SCS Opposite-Spin Energy  =      -1.4619651995367862 [Eh]
	 SCS Correlation Energy    =      -1.5886264271120423 [Eh]
	 SCS Total Energy          =    -363.4629436989311557 [Eh]
	-----------------------------------------------------------

  Dipole Moment: [D]
     X:     0.1759      Y:    -1.2484      Z:    -0.3788     Total:     1.3164

*** Psi4 exiting successfully. Buy a developer a beer!
