                               Psi4 1.4a3.dev225

  ==> Input File <==

--------------------------------------------------------------------------
#psi4
#
memory 32 gb

molecule  {
0 1
  O        0.9636680    -1.0001680    -0.4301960
  N        0.7679840     1.1102310     0.3050190
  C       -1.3243600    -0.1423310    -0.3721570
  C        0.1381010     0.0595700    -0.1541750
  C       -2.0674230     1.1831610    -0.2295090
  C       -1.8577785    -1.1911205     0.5795357
  C        2.2187300    -0.5510310    -0.1110300
  C        2.1041050     0.7294570     0.3348460
  H       -1.4517930    -0.5154570    -1.3975200
  H       -1.9460070     1.5800180     0.7812150
  H       -3.1336970     1.0333660    -0.4232700
  H       -1.6836890     1.9287350    -0.9294360
  H       -1.7477770    -0.8676130     1.6266340
  H       -1.3321260    -2.1520890     0.4742110
  H       -2.9287500    -1.3798940     0.4051340
  H        3.0327410    -1.2424980    -0.2628180
  H        2.8799090     1.4020910     0.6717620
units angstrom
no_reorient  #important for SAPT in psi4, default
symmetry c1  #important for SAPT in psi4, default
}

set PROPERTIES_ORIGIN ["COM"]
properties('MP2/aug-cc-pvtz', properties = ['dipole'])
--------------------------------------------------------------------------

    Molecular point group: c1
  Charge       = 0
  Multiplicity = 1
  Basis Set: AUG-CC-PVTZ
    Blend: AUG-CC-PVTZ
  Basis Set: (AUG-CC-PVTZ AUX)
    Blend: AUG-CC-PVTZ-JKFIT

    Orbital Energies [Eh]
    ---------------------

    Doubly Occupied:

       1A    -20.633622     2A    -15.560292     3A    -11.334864
       4A    -11.290434     5A    -11.260148     6A    -11.250840
       7A    -11.226155     8A    -11.217297     9A     -1.475795
      10A     -1.225654    11A     -1.106186    12A     -1.006632
      13A     -0.938746    14A     -0.858911    15A     -0.826499
      16A     -0.772103    17A     -0.714114    18A     -0.662397
      19A     -0.636318    20A     -0.608158    21A     -0.599518
      22A     -0.571755    23A     -0.557979    24A     -0.539748
      25A     -0.506140    26A     -0.493291    27A     -0.487105
      28A     -0.455278    29A     -0.448459    30A     -0.331423

  @DF-RHF Final Energy:  -361.87366781356633

   => Energetics <=

    Nuclear Repulsion Energy =            372.6465479407602857
    One-Electron Energy =               -1229.8487088908680107
    Two-Electron Energy =                 495.3284931365414536
    Total Energy =                       -361.8736678135663283
  Basis Set: (AUG-CC-PVTZ AUX)
    Blend: AUG-CC-PVTZ-RI
    Molecular point group: c1

    Geometry (in Angstrom), charge = 0, multiplicity = 1:

       Center              X                  Y                   Z               Mass
    ------------   -----------------  -----------------  -----------------  -----------------
         O            0.888685441480    -1.003647843422    -0.420415519396    15.994914619570
         N            0.693001441480     1.106751156578     0.314799480604    14.003074004430
         C           -1.399342558520    -0.145810843422    -0.362376519396    12.000000000000
         C            0.063118441480     0.056090156578    -0.144394519396    12.000000000000
         C           -2.142405558520     1.179681156578    -0.219728519396    12.000000000000
         C           -1.932761058520    -1.194600343422     0.589316180604    12.000000000000
         C            2.143747441480    -0.554510843422    -0.101249519396    12.000000000000
         C            2.029122441480     0.725977156578     0.344626480604    12.000000000000
         H           -1.526775558520    -0.518936843422    -1.387739519396     1.007825032230
         H           -2.020989558520     1.576538156578     0.790995480604     1.007825032230
         H           -3.208679558520     1.029886156578    -0.413489519396     1.007825032230
         H           -1.758671558520     1.925255156578    -0.919655519396     1.007825032230
         H           -1.822759558520    -0.871092843422     1.636414480604     1.007825032230
         H           -1.407108558520    -2.155568843422     0.483991480604     1.007825032230
         H           -3.003732558520    -1.383373843422     0.414914480604     1.007825032230
         H            2.957758441480    -1.245977843422    -0.253037519396     1.007825032230
         H            2.804926441480     1.398611156578     0.681542480604     1.007825032230

  Basis Set: AUG-CC-PVTZ
    Blend: AUG-CC-PVTZ
  Basis Set: (AUG-CC-PVTZ AUX)
    Blend: AUG-CC-PVTZ-JKFIT
	 Reference Energy          =    -361.8736678135663283 [Eh]
	 Singles Energy            =      -0.0000000000000000 [Eh]
	 Same-Spin Energy          =      -0.3801365281584783 [Eh]
	 Opposite-Spin Energy      =      -1.2185858092537603 [Eh]
	 Correlation Energy        =      -1.5987223374122386 [Eh]
	 Total Energy              =    -363.4723901509785833 [Eh]

	 ================> DF-SCS-MP2 Energies <==================
	-----------------------------------------------------------
	 SCS Same-Spin Scale       =       0.3333333333333333 [-]
	 SCS Opposite-Spin Scale   =       1.2000000000000000 [-]
	 SCS Same-Spin Energy      =      -0.1267121760528261 [Eh]
	 SCS Opposite-Spin Energy  =      -1.4623029711045124 [Eh]
	 SCS Correlation Energy    =      -1.5890151471573384 [Eh]
	 SCS Total Energy          =    -363.4626829607236687 [Eh]
	-----------------------------------------------------------

  Dipole Moment: [D]
     X:     0.1826      Y:    -1.2558      Z:    -0.3736     Total:     1.3229

*** Psi4 exiting successfully. Buy a developer a beer!
