                               Psi4 1.4a3.dev225

  ==> Input File <==

--------------------------------------------------------------------------
#psi4
#
memory 32 gb

molecule  {
0 1
  O        0.9546477    -0.9790188    -0.4235902
  N        0.7679840     1.1102310     0.3050190
  C       -1.3243600    -0.1423310    -0.3721570
  C        0.1381010     0.0595700    -0.1541750
  C       -2.0674230     1.1831610    -0.2295090
  C       -1.8648280    -1.2049810     0.5921130
  C        2.2187300    -0.5510310    -0.1110300
  C        2.1041050     0.7294570     0.3348460
  H       -1.4517930    -0.5154570    -1.3975200
  H       -1.9460070     1.5800180     0.7812150
  H       -3.1336970     1.0333660    -0.4232700
  H       -1.6836890     1.9287350    -0.9294360
  H       -1.7477770    -0.8676130     1.6266340
  H       -1.3321260    -2.1520890     0.4742110
  H       -2.9287500    -1.3798940     0.4051340
  H        3.0327410    -1.2424980    -0.2628180
  H        2.8799090     1.4020910     0.6717620
units angstrom
no_reorient  #important for SAPT in psi4, default
symmetry c1  #important for SAPT in psi4, default
}

set PROPERTIES_ORIGIN ["COM"]
properties('MP2/aug-cc-pvtz', properties = ['dipole'])
--------------------------------------------------------------------------

    Molecular point group: c1
  Charge       = 0
  Multiplicity = 1
  Basis Set: AUG-CC-PVTZ
    Blend: AUG-CC-PVTZ
  Basis Set: (AUG-CC-PVTZ AUX)
    Blend: AUG-CC-PVTZ-JKFIT

    Orbital Energies [Eh]
    ---------------------

    Doubly Occupied:

       1A    -20.633918     2A    -15.557042     3A    -11.332588
       4A    -11.289759     5A    -11.260151     6A    -11.251119
       7A    -11.225458     8A    -11.216828     9A     -1.484090
      10A     -1.223157    11A     -1.104296    12A     -1.008569
      13A     -0.938859    14A     -0.859527    15A     -0.827951
      16A     -0.773222    17A     -0.715071    18A     -0.665638
      19A     -0.638477    20A     -0.608244    21A     -0.599152
      22A     -0.570690    23A     -0.557777    24A     -0.541593
      25A     -0.506268    26A     -0.490760    27A     -0.489149
      28A     -0.453214    29A     -0.446235    30A     -0.331954

  @DF-RHF Final Energy:  -361.87561234439795

   => Energetics <=

    Nuclear Repulsion Energy =            373.0019812174737126
    One-Electron Energy =               -1230.5536787385117350
    Two-Electron Energy =                 495.6760851766400719
    Total Energy =                       -361.8756123443979504
  Basis Set: (AUG-CC-PVTZ AUX)
    Blend: AUG-CC-PVTZ-RI
    Molecular point group: c1

    Geometry (in Angstrom), charge = 0, multiplicity = 1:

       Center              X                  Y                   Z               Mass
    ------------   -----------------  -----------------  -----------------  -----------------
         O            0.881725789690    -0.984046821182    -0.416119888398    15.994914619570
         N            0.695062089690     1.105202978818     0.312489311602    14.003074004430
         C           -1.397281910310    -0.147359021182    -0.364686688398    12.000000000000
         C            0.065179089690     0.054541978818    -0.146704688398    12.000000000000
         C           -2.140344910310     1.178132978818    -0.222038688398    12.000000000000
         C           -1.937749910310    -1.210009021182     0.599583311602    12.000000000000
         C            2.145808089690    -0.556059021182    -0.103559688398    12.000000000000
         C            2.031183089690     0.724428978818     0.342316311602    12.000000000000
         H           -1.524714910310    -0.520485021182    -1.390049688398     1.007825032230
         H           -2.018928910310     1.574989978818     0.788685311602     1.007825032230
         H           -3.206618910310     1.028337978818    -0.415799688398     1.007825032230
         H           -1.756610910310     1.923706978818    -0.921965688398     1.007825032230
         H           -1.820698910310    -0.872641021182     1.634104311602     1.007825032230
         H           -1.405047910310    -2.157117021182     0.481681311602     1.007825032230
         H           -3.001671910310    -1.384922021182     0.412604311602     1.007825032230
         H            2.959819089690    -1.247526021182    -0.255347688398     1.007825032230
         H            2.806987089690     1.397062978818     0.679232311602     1.007825032230

  Basis Set: AUG-CC-PVTZ
    Blend: AUG-CC-PVTZ
  Basis Set: (AUG-CC-PVTZ AUX)
    Blend: AUG-CC-PVTZ-JKFIT
	 Reference Energy          =    -361.8756123443979504 [Eh]
	 Singles Energy            =      -0.0000000000000000 [Eh]
	 Same-Spin Energy          =      -0.3797251695440371 [Eh]
	 Opposite-Spin Energy      =      -1.2174209452424789 [Eh]
	 Correlation Energy        =      -1.5971461147865160 [Eh]
	 Total Energy              =    -363.4727584591844902 [Eh]

	 ================> DF-SCS-MP2 Energies <==================
	-----------------------------------------------------------
	 SCS Same-Spin Scale       =       0.3333333333333333 [-]
	 SCS Opposite-Spin Scale   =       1.2000000000000000 [-]
	 SCS Same-Spin Energy      =      -0.1265750565146790 [Eh]
	 SCS Opposite-Spin Energy  =      -1.4609051342909747 [Eh]
	 SCS Correlation Energy    =      -1.5874801908056537 [Eh]
	 SCS Total Energy          =    -363.4630925352036002 [Eh]
	-----------------------------------------------------------

  Dipole Moment: [D]
     X:     0.2072      Y:    -1.3285      Z:    -0.3951     Total:     1.4014

*** Psi4 exiting successfully. Buy a developer a beer!
