                               Psi4 1.4a3.dev225

  ==> Input File <==

--------------------------------------------------------------------------
#psi4
#
memory 32 gb

molecule  {
0 1
  O        0.9636680    -1.0001680    -0.4301960
  N        0.7679840     1.1102310     0.3050190
  C       -1.3243600    -0.1423310    -0.3721570
  C        0.1381010     0.0595700    -0.1541750
  C       -2.0674230     1.1831610    -0.2295090
  C       -1.8648280    -1.2049810     0.5921130
  C        2.2187300    -0.5510310    -0.1110300
  C        2.1041050     0.7294570     0.3348460
  H       -1.4517930    -0.5154570    -1.3975200
  H       -1.9460070     1.5800180     0.7812150
  H       -3.1336970     1.0333660    -0.4232700
  H       -1.6836890     1.9287350    -0.9294360
  H       -1.7477770    -0.8676130     1.6266340
  H       -1.3418734    -2.1347588     0.4763684
  H       -2.9287500    -1.3798940     0.4051340
  H        3.0327410    -1.2424980    -0.2628180
  H        2.8799090     1.4020910     0.6717620
units angstrom
no_reorient  #important for SAPT in psi4, default
symmetry c1  #important for SAPT in psi4, default
}

set PROPERTIES_ORIGIN ["COM"]
properties('MP2/aug-cc-pvtz', properties = ['dipole'])
--------------------------------------------------------------------------

    Molecular point group: c1
  Charge       = 0
  Multiplicity = 1
  Basis Set: AUG-CC-PVTZ
    Blend: AUG-CC-PVTZ
  Basis Set: (AUG-CC-PVTZ AUX)
    Blend: AUG-CC-PVTZ-JKFIT

    Orbital Energies [Eh]
    ---------------------

    Doubly Occupied:

       1A    -20.633531     2A    -15.560095     3A    -11.334721
       4A    -11.290317     5A    -11.260077     6A    -11.251358
       7A    -11.223080     8A    -11.217061     9A     -1.475693
      10A     -1.225493    11A     -1.103857    12A     -1.006183
      13A     -0.940313    14A     -0.859783    15A     -0.826374
      16A     -0.772005    17A     -0.713505    18A     -0.661977
      19A     -0.636073    20A     -0.609196    21A     -0.599593
      22A     -0.571671    23A     -0.558480    24A     -0.541619
      25A     -0.506534    26A     -0.491647    27A     -0.489891
      28A     -0.455233    29A     -0.448260    30A     -0.331110

  @DF-RHF Final Energy:  -361.87432619954762

   => Energetics <=

    Nuclear Repulsion Energy =            372.4047773042683502
    One-Electron Energy =               -1229.3687427800548448
    Two-Electron Energy =                 495.0896392762388700
    Total Energy =                       -361.8743261995476246
  Basis Set: (AUG-CC-PVTZ AUX)
    Blend: AUG-CC-PVTZ-RI
    Molecular point group: c1

    Geometry (in Angstrom), charge = 0, multiplicity = 1:

       Center              X                  Y                   Z               Mass
    ------------   -----------------  -----------------  -----------------  -----------------
         O            0.889535527210    -1.002307586680    -0.421793966033    15.994914619570
         N            0.693851527210     1.108091413320     0.313421033967    14.003074004430
         C           -1.398492472790    -0.144470586680    -0.363754966033    12.000000000000
         C            0.063968527210     0.057430413320    -0.145772966033    12.000000000000
         C           -2.141555472790     1.181021413320    -0.221106966033    12.000000000000
         C           -1.938960472790    -1.207120586680     0.600515033967    12.000000000000
         C            2.144597527210    -0.553170586680    -0.102627966033    12.000000000000
         C            2.029972527210     0.727317413320     0.343248033967    12.000000000000
         H           -1.525925472790    -0.517596586680    -1.389117966033     1.007825032230
         H           -2.020139472790     1.577878413320     0.789617033967     1.007825032230
         H           -3.207829472790     1.031226413320    -0.414867966033     1.007825032230
         H           -1.757821472790     1.926595413320    -0.921033966033     1.007825032230
         H           -1.821909472790    -0.869752586680     1.635036033967     1.007825032230
         H           -1.416005872790    -2.136898386680     0.484770433967     1.007825032230
         H           -3.002882472790    -1.382033586680     0.413536033967     1.007825032230
         H            2.958608527210    -1.244637586680    -0.254415966033     1.007825032230
         H            2.805776527210     1.399951413320     0.680164033967     1.007825032230

  Basis Set: AUG-CC-PVTZ
    Blend: AUG-CC-PVTZ
  Basis Set: (AUG-CC-PVTZ AUX)
    Blend: AUG-CC-PVTZ-JKFIT
	 Reference Energy          =    -361.8743261995476246 [Eh]
	 Singles Energy            =      -0.0000000000000000 [Eh]
	 Same-Spin Energy          =      -0.3799805195336902 [Eh]
	 Opposite-Spin Energy      =      -1.2183015080314283 [Eh]
	 Correlation Energy        =      -1.5982820275651186 [Eh]
	 Total Energy              =    -363.4726082271127439 [Eh]

	 ================> DF-SCS-MP2 Energies <==================
	-----------------------------------------------------------
	 SCS Same-Spin Scale       =       0.3333333333333333 [-]
	 SCS Opposite-Spin Scale   =       1.2000000000000000 [-]
	 SCS Same-Spin Energy      =      -0.1266601731778967 [Eh]
	 SCS Opposite-Spin Energy  =      -1.4619618096377140 [Eh]
	 SCS Correlation Energy    =      -1.5886219828156107 [Eh]
	 SCS Total Energy          =    -363.4629481823632204 [Eh]
	-----------------------------------------------------------

  Dipole Moment: [D]
     X:     0.1779      Y:    -1.2675      Z:    -0.3711     Total:     1.3326

*** Psi4 exiting successfully. Buy a developer a beer!
