                               Psi4 1.4a3.dev225

  ==> Input File <==

--------------------------------------------------------------------------
#psi4
#
memory 32 gb

molecule  {
0 1
  O        0.9636680    -1.0001680    -0.4301960
  N        0.7679840     1.1102310     0.3050190
  C       -1.3243600    -0.1423310    -0.3721570
  C        0.1381010     0.0595700    -0.1541750
  C       -2.0674230     1.1831610    -0.2295090
  C       -1.8648280    -1.2049810     0.5921130
  C        2.2187300    -0.5510310    -0.1110300
  C        2.1041050     0.7294570     0.3348460
  H       -1.4517930    -0.5154570    -1.3975200
  H       -1.9460070     1.5800180     0.7812150
  H       -3.3286212     1.0059822    -0.4586912
  H       -1.6836890     1.9287350    -0.9294360
  H       -1.7477770    -0.8676130     1.6266340
  H       -1.3321260    -2.1520890     0.4742110
  H       -2.9287500    -1.3798940     0.4051340
  H        3.0327410    -1.2424980    -0.2628180
  H        2.8799090     1.4020910     0.6717620
units angstrom
no_reorient  #important for SAPT in psi4, default
symmetry c1  #important for SAPT in psi4, default
}

set PROPERTIES_ORIGIN ["COM"]
properties('MP2/aug-cc-pvtz', properties = ['dipole'])
--------------------------------------------------------------------------

    Molecular point group: c1
  Charge       = 0
  Multiplicity = 1
  Basis Set: AUG-CC-PVTZ
    Blend: AUG-CC-PVTZ
  Basis Set: (AUG-CC-PVTZ AUX)
    Blend: AUG-CC-PVTZ-JKFIT

    Orbital Energies [Eh]
    ---------------------

    Doubly Occupied:

       1A    -20.635142     2A    -15.562018     3A    -11.336964
       4A    -11.291776     5A    -11.261454     6A    -11.254042
       7A    -11.240757     8A    -11.225666     9A     -1.477270
      10A     -1.227304    11A     -1.103984    12A     -1.005937
      13A     -0.932729    14A     -0.856812    15A     -0.825546
      16A     -0.772242    17A     -0.714964    18A     -0.663137
      19A     -0.633927    20A     -0.608455    21A     -0.600335
      22A     -0.573134    23A     -0.557280    24A     -0.529969
      25A     -0.494114    26A     -0.492797    27A     -0.481770
      28A     -0.456926    29A     -0.449859    30A     -0.332586

  @DF-RHF Final Energy:  -361.85427536144488

   => Energetics <=

    Nuclear Repulsion Energy =            371.5060446728152783
    One-Electron Energy =               -1227.5228484471042520
    Two-Electron Energy =                 494.1625284128440967
    Total Energy =                       -361.8542753614448770
  Basis Set: (AUG-CC-PVTZ AUX)
    Blend: AUG-CC-PVTZ-RI
    Molecular point group: c1

    Geometry (in Angstrom), charge = 0, multiplicity = 1:

       Center              X                  Y                   Z               Mass
    ------------   -----------------  -----------------  -----------------  -----------------
         O            0.891215805228    -1.001901855771    -0.421452981118    15.994914619570
         N            0.695531805228     1.108497144229     0.313762018882    14.003074004430
         C           -1.396812194772    -0.144064855771    -0.363413981118    12.000000000000
         C            0.065648805228     0.057836144229    -0.145431981118    12.000000000000
         C           -2.139875194772     1.181427144229    -0.220765981118    12.000000000000
         C           -1.937280194772    -1.206714855771     0.600856018882    12.000000000000
         C            2.146277805228    -0.552764855771    -0.102286981118    12.000000000000
         C            2.031652805228     0.727723144229     0.343589018882    12.000000000000
         H           -1.524245194772    -0.517190855771    -1.388776981118     1.007825032230
         H           -2.018459194772     1.578284144229     0.789958018882     1.007825032230
         H           -3.401073394772     1.004248344229    -0.449948181118     1.007825032230
         H           -1.756141194772     1.927001144229    -0.920692981118     1.007825032230
         H           -1.820229194772    -0.869346855771     1.635377018882     1.007825032230
         H           -1.404578194772    -2.153822855771     0.482954018882     1.007825032230
         H           -3.001202194772    -1.381627855771     0.413877018882     1.007825032230
         H            2.960288805228    -1.244231855771    -0.254074981118     1.007825032230
         H            2.807456805228     1.400357144229     0.680505018882     1.007825032230

  Basis Set: AUG-CC-PVTZ
    Blend: AUG-CC-PVTZ
  Basis Set: (AUG-CC-PVTZ AUX)
    Blend: AUG-CC-PVTZ-JKFIT
	 Reference Energy          =    -361.8542753614448770 [Eh]
	 Singles Energy            =      -0.0000000000000000 [Eh]
	 Same-Spin Energy          =      -0.3799398828496270 [Eh]
	 Opposite-Spin Energy      =      -1.2200225168239873 [Eh]
	 Correlation Energy        =      -1.5999623996736143 [Eh]
	 Total Energy              =    -363.4542377611184634 [Eh]

	 ================> DF-SCS-MP2 Energies <==================
	-----------------------------------------------------------
	 SCS Same-Spin Scale       =       0.3333333333333333 [-]
	 SCS Opposite-Spin Scale   =       1.2000000000000000 [-]
	 SCS Same-Spin Energy      =      -0.1266466276165423 [Eh]
	 SCS Opposite-Spin Energy  =      -1.4640270201887848 [Eh]
	 SCS Correlation Energy    =      -1.5906736478053272 [Eh]
	 SCS Total Energy          =    -363.4449490092501946 [Eh]
	-----------------------------------------------------------

  Dipole Moment: [D]
     X:     0.3626      Y:    -1.2721      Z:    -0.3469     Total:     1.3675

*** Psi4 exiting successfully. Buy a developer a beer!
