                               Psi4 1.4a3.dev225

  ==> Input File <==

--------------------------------------------------------------------------
#psi4
#
memory 32 gb

molecule  {
0 1
  O        0.9636680    -1.0001680    -0.4301960
  N        0.7679840     1.1102310     0.3050190
  C       -1.3243600    -0.1423310    -0.3721570
  C        0.1381010     0.0595700    -0.1541750
  C       -2.0674230     1.1831610    -0.2295090
  C       -1.8648280    -1.2049810     0.5921130
  C        2.2187300    -0.5510310    -0.1110300
  C        2.1041050     0.7294570     0.3348460
  H       -1.4517930    -0.5154570    -1.3975200
  H       -1.9460070     1.5800180     0.7812150
  H       -3.1336970     1.0333660    -0.4232700
  H       -1.6485569     1.9969948    -0.9935167
  H       -1.7477770    -0.8676130     1.6266340
  H       -1.3321260    -2.1520890     0.4742110
  H       -2.9287500    -1.3798940     0.4051340
  H        3.0327410    -1.2424980    -0.2628180
  H        2.8799090     1.4020910     0.6717620
units angstrom
no_reorient  #important for SAPT in psi4, default
symmetry c1  #important for SAPT in psi4, default
}

set PROPERTIES_ORIGIN ["COM"]
properties('MP2/aug-cc-pvtz', properties = ['dipole'])
--------------------------------------------------------------------------

    Molecular point group: c1
  Charge       = 0
  Multiplicity = 1
  Basis Set: AUG-CC-PVTZ
    Blend: AUG-CC-PVTZ
  Basis Set: (AUG-CC-PVTZ AUX)
    Blend: AUG-CC-PVTZ-JKFIT

    Orbital Energies [Eh]
    ---------------------

    Doubly Occupied:

       1A    -20.633579     2A    -15.560035     3A    -11.334810
       4A    -11.290316     5A    -11.260043     6A    -11.252628
       7A    -11.228927     8A    -11.226467     9A     -1.475723
      10A     -1.225437    11A     -1.103490    12A     -1.005770
      13A     -0.934112    14A     -0.858497    15A     -0.825816
      16A     -0.771535    17A     -0.713298    18A     -0.661532
      19A     -0.636328    20A     -0.601197    21A     -0.598676
      22A     -0.571430    23A     -0.555746    24A     -0.543069
      25A     -0.506769    26A     -0.490543    27A     -0.480579
      28A     -0.454890    29A     -0.448197    30A     -0.331152

  @DF-RHF Final Energy:  -361.86768362412442

   => Energetics <=

    Nuclear Repulsion Energy =            371.9255063928483196
    One-Electron Energy =               -1228.4252038337367594
    Two-Electron Energy =                 494.6320138167640152
    Total Energy =                       -361.8676836241244246
  Basis Set: (AUG-CC-PVTZ AUX)
    Blend: AUG-CC-PVTZ-RI
    Molecular point group: c1

    Geometry (in Angstrom), charge = 0, multiplicity = 1:

       Center              X                  Y                   Z               Mass
    ------------   -----------------  -----------------  -----------------  -----------------
         O            0.889128294569    -1.002769717397    -0.421192927332    15.994914619570
         N            0.693444294569     1.107629282603     0.314022072668    14.003074004430
         C           -1.398899705431    -0.144932717397    -0.363153927332    12.000000000000
         C            0.063561294569     0.056968282603    -0.145171927332    12.000000000000
         C           -2.141962705431     1.180559282603    -0.220505927332    12.000000000000
         C           -1.939367705431    -1.207582717397     0.601116072668    12.000000000000
         C            2.144190294569    -0.553632717397    -0.102026927332    12.000000000000
         C            2.029565294569     0.726855282603     0.343849072668    12.000000000000
         H           -1.526332705431    -0.518058717397    -1.388516927332     1.007825032230
         H           -2.020546705431     1.577416282603     0.790218072668     1.007825032230
         H           -3.208236705431     1.030764282603    -0.414266927332     1.007825032230
         H           -1.723096605431     1.994393082603    -0.984513627332     1.007825032230
         H           -1.822316705431    -0.870214717397     1.635637072668     1.007825032230
         H           -1.406665705431    -2.154690717397     0.483214072668     1.007825032230
         H           -3.003289705431    -1.382495717397     0.414137072668     1.007825032230
         H            2.958201294569    -1.245099717397    -0.253814927332     1.007825032230
         H            2.805369294569     1.399489282603     0.680765072668     1.007825032230

  Basis Set: AUG-CC-PVTZ
    Blend: AUG-CC-PVTZ
  Basis Set: (AUG-CC-PVTZ AUX)
    Blend: AUG-CC-PVTZ-JKFIT
	 Reference Energy          =    -361.8676836241244246 [Eh]
	 Singles Energy            =      -0.0000000000000000 [Eh]
	 Same-Spin Energy          =      -0.3800127113938368 [Eh]
	 Opposite-Spin Energy      =      -1.2191832658810189 [Eh]
	 Correlation Energy        =      -1.5991959772748556 [Eh]
	 Total Energy              =    -363.4668796013992846 [Eh]

	 ================> DF-SCS-MP2 Energies <==================
	-----------------------------------------------------------
	 SCS Same-Spin Scale       =       0.3333333333333333 [-]
	 SCS Opposite-Spin Scale   =       1.2000000000000000 [-]
	 SCS Same-Spin Energy      =      -0.1266709037979456 [Eh]
	 SCS Opposite-Spin Energy  =      -1.4630199190572226 [Eh]
	 SCS Correlation Energy    =      -1.5896908228551683 [Eh]
	 SCS Total Energy          =    -363.4573744469795997 [Eh]
	-----------------------------------------------------------

  Dipole Moment: [D]
     X:     0.1715      Y:    -1.3075      Z:    -0.3360     Total:     1.3608

*** Psi4 exiting successfully. Buy a developer a beer!
