                               Psi4 1.4a3.dev225

  ==> Input File <==

--------------------------------------------------------------------------
#psi4
#
memory 32 gb

molecule  {
0 1
  O        0.9636680    -1.0001680    -0.4301960
  N        0.7679840     1.1102310     0.3050190
  C       -1.3243600    -0.1423310    -0.3721570
  C        0.1381010     0.0595700    -0.1541750
  C       -2.0674230     1.1831610    -0.2295090
  C       -1.8648280    -1.2049810     0.5921130
  C        2.2004171    -0.5575845    -0.1156870
  C        2.1041050     0.7294570     0.3348460
  H       -1.4517930    -0.5154570    -1.3975200
  H       -1.9460070     1.5800180     0.7812150
  H       -3.1336970     1.0333660    -0.4232700
  H       -1.6836890     1.9287350    -0.9294360
  H       -1.7477770    -0.8676130     1.6266340
  H       -1.3321260    -2.1520890     0.4742110
  H       -2.9287500    -1.3798940     0.4051340
  H        3.0327410    -1.2424980    -0.2628180
  H        2.8799090     1.4020910     0.6717620
units angstrom
no_reorient  #important for SAPT in psi4, default
symmetry c1  #important for SAPT in psi4, default
}

set PROPERTIES_ORIGIN ["COM"]
properties('MP2/aug-cc-pvtz', properties = ['dipole'])
--------------------------------------------------------------------------

    Molecular point group: c1
  Charge       = 0
  Multiplicity = 1
  Basis Set: AUG-CC-PVTZ
    Blend: AUG-CC-PVTZ
  Basis Set: (AUG-CC-PVTZ AUX)
    Blend: AUG-CC-PVTZ-JKFIT

    Orbital Energies [Eh]
    ---------------------

    Doubly Occupied:

       1A    -20.636301     2A    -15.560732     3A    -11.333829
       4A    -11.291223     5A    -11.259008     6A    -11.251451
       7A    -11.225420     8A    -11.217189     9A     -1.483559
      10A     -1.226815    11A     -1.103706    12A     -1.004819
      13A     -0.939060    14A     -0.859545    15A     -0.827376
      16A     -0.774010    17A     -0.714420    18A     -0.664889
      19A     -0.637283    20A     -0.607541    21A     -0.599386
      22A     -0.571560    23A     -0.558159    24A     -0.541814
      25A     -0.506422    26A     -0.491250    27A     -0.489255
      28A     -0.455346    29A     -0.448758    30A     -0.328547

  @DF-RHF Final Energy:  -361.87390104753189

   => Energetics <=

    Nuclear Repulsion Energy =            372.6676118047351451
    One-Electron Energy =               -1229.8656842392026647
    Two-Electron Energy =                 495.3241713869356886
    Total Energy =                       -361.8739010475318878
  Basis Set: (AUG-CC-PVTZ AUX)
    Blend: AUG-CC-PVTZ-RI
    Molecular point group: c1

    Geometry (in Angstrom), charge = 0, multiplicity = 1:

       Center              X                  Y                   Z               Mass
    ------------   -----------------  -----------------  -----------------  -----------------
         O            0.891425633667    -1.001442283881    -0.421271240628    15.994914619570
         N            0.695741633667     1.108956716119     0.313943759372    14.003074004430
         C           -1.396602366333    -0.143605283881    -0.363232240628    12.000000000000
         C            0.065858633667     0.058295716119    -0.145250240628    12.000000000000
         C           -2.139665366333     1.181886716119    -0.220584240628    12.000000000000
         C           -1.937070366333    -1.206255283881     0.601037759372    12.000000000000
         C            2.128174733667    -0.558858783881    -0.106762240628    12.000000000000
         C            2.031862633667     0.728182716119     0.343770759372    12.000000000000
         H           -1.524035366333    -0.516731283881    -1.388595240628     1.007825032230
         H           -2.018249366333     1.578743716119     0.790139759372     1.007825032230
         H           -3.205939366333     1.032091716119    -0.414345240628     1.007825032230
         H           -1.755931366333     1.927460716119    -0.920511240628     1.007825032230
         H           -1.820019366333    -0.868887283881     1.635558759372     1.007825032230
         H           -1.404368366333    -2.153363283881     0.483135759372     1.007825032230
         H           -3.000992366333    -1.381168283881     0.414058759372     1.007825032230
         H            2.960498633667    -1.243772283881    -0.253893240628     1.007825032230
         H            2.807666633667     1.400816716119     0.680686759372     1.007825032230

  Basis Set: AUG-CC-PVTZ
    Blend: AUG-CC-PVTZ
  Basis Set: (AUG-CC-PVTZ AUX)
    Blend: AUG-CC-PVTZ-JKFIT
	 Reference Energy          =    -361.8739010475318878 [Eh]
	 Singles Energy            =      -0.0000000000000000 [Eh]
	 Same-Spin Energy          =      -0.3801852203074778 [Eh]
	 Opposite-Spin Energy      =      -1.2183958956500478 [Eh]
	 Correlation Energy        =      -1.5985811159575256 [Eh]
	 Total Energy              =    -363.4724821634894170 [Eh]

	 ================> DF-SCS-MP2 Energies <==================
	-----------------------------------------------------------
	 SCS Same-Spin Scale       =       0.3333333333333333 [-]
	 SCS Opposite-Spin Scale   =       1.2000000000000000 [-]
	 SCS Same-Spin Energy      =      -0.1267284067691593 [Eh]
	 SCS Opposite-Spin Energy  =      -1.4620750747800573 [Eh]
	 SCS Correlation Energy    =      -1.5888034815492165 [Eh]
	 SCS Total Energy          =    -363.4627045290811225 [Eh]
	-----------------------------------------------------------

  Dipole Moment: [D]
     X:     0.1532      Y:    -1.2737      Z:    -0.3827     Total:     1.3387

*** Psi4 exiting successfully. Buy a developer a beer!
