                               Psi4 1.4a3.dev225

  ==> Input File <==

--------------------------------------------------------------------------
#psi4
#
memory 32 gb

molecule  {
0 1
  O        0.9636680    -1.0001680    -0.4301960
  N        0.7679840     1.1102310     0.3050190
  C       -1.3243600    -0.1423310    -0.3721570
  C        0.1381010     0.0595700    -0.1541750
  C       -2.0674230     1.1831610    -0.2295090
  C       -1.8648280    -1.2049810     0.5921130
  C        2.2187300    -0.5510310    -0.1110300
  C        2.1041050     0.7294570     0.3348460
  H       -1.4494730    -0.5086640    -1.3788526
  H       -1.9460070     1.5800180     0.7812150
  H       -3.1336970     1.0333660    -0.4232700
  H       -1.6836890     1.9287350    -0.9294360
  H       -1.7477770    -0.8676130     1.6266340
  H       -1.3321260    -2.1520890     0.4742110
  H       -2.9287500    -1.3798940     0.4051340
  H        3.0327410    -1.2424980    -0.2628180
  H        2.8799090     1.4020910     0.6717620
units angstrom
no_reorient  #important for SAPT in psi4, default
symmetry c1  #important for SAPT in psi4, default
}

set PROPERTIES_ORIGIN ["COM"]
properties('MP2/aug-cc-pvtz', properties = ['dipole'])
--------------------------------------------------------------------------

    Molecular point group: c1
  Charge       = 0
  Multiplicity = 1
  Basis Set: AUG-CC-PVTZ
    Blend: AUG-CC-PVTZ
  Basis Set: (AUG-CC-PVTZ AUX)
    Blend: AUG-CC-PVTZ-JKFIT

    Orbital Energies [Eh]
    ---------------------

    Doubly Occupied:

       1A    -20.633499     2A    -15.560003     3A    -11.334596
       4A    -11.290255     5A    -11.260020     6A    -11.249125
       7A    -11.225317     8A    -11.217078     9A     -1.475655
      10A     -1.225427    11A     -1.104449    12A     -1.006090
      13A     -0.938903    14A     -0.860099    15A     -0.826329
      16A     -0.772669    17A     -0.714914    18A     -0.661994
      19A     -0.636552    20A     -0.607426    21A     -0.599535
      22A     -0.571641    23A     -0.557758    24A     -0.541724
      25A     -0.506365    26A     -0.492240    27A     -0.490042
      28A     -0.455148    29A     -0.448196    30A     -0.331140

  @DF-RHF Final Energy:  -361.87436584023271

   => Energetics <=

    Nuclear Repulsion Energy =            372.4267790755346823
    One-Electron Energy =               -1229.4139101434125223
    Two-Electron Energy =                 495.1127652276451272
    Total Energy =                       -361.8743658402327128
  Basis Set: (AUG-CC-PVTZ AUX)
    Blend: AUG-CC-PVTZ-RI
    Molecular point group: c1

    Geometry (in Angstrom), charge = 0, multiplicity = 1:

       Center              X                  Y                   Z               Mass
    ------------   -----------------  -----------------  -----------------  -----------------
         O            0.889426028682    -1.002211973053    -0.421943776323    15.994914619570
         N            0.693742028682     1.108187026947     0.313271223677    14.003074004430
         C           -1.398601971318    -0.144374973053    -0.363904776323    12.000000000000
         C            0.063859028682     0.057526026947    -0.145922776323    12.000000000000
         C           -2.141664971318     1.181117026947    -0.221256776323    12.000000000000
         C           -1.939069971318    -1.207024973053     0.600365223677    12.000000000000
         C            2.144488028682    -0.553074973053    -0.102777776323    12.000000000000
         C            2.029863028682     0.727413026947     0.343098223677    12.000000000000
         H           -1.523714971318    -0.510707973053    -1.370600376323     1.007825032230
         H           -2.020248971318     1.577974026947     0.789467223677     1.007825032230
         H           -3.207938971318     1.031322026947    -0.415017776323     1.007825032230
         H           -1.757930971318     1.926691026947    -0.921183776323     1.007825032230
         H           -1.822018971318    -0.869656973053     1.634886223677     1.007825032230
         H           -1.406367971318    -2.154132973053     0.482463223677     1.007825032230
         H           -3.002991971318    -1.381937973053     0.413386223677     1.007825032230
         H            2.958499028682    -1.244541973053    -0.254565776323     1.007825032230
         H            2.805667028682     1.400047026947     0.680014223677     1.007825032230

  Basis Set: AUG-CC-PVTZ
    Blend: AUG-CC-PVTZ
  Basis Set: (AUG-CC-PVTZ AUX)
    Blend: AUG-CC-PVTZ-JKFIT
	 Reference Energy          =    -361.8743658402327128 [Eh]
	 Singles Energy            =      -0.0000000000000000 [Eh]
	 Same-Spin Energy          =      -0.3799705207998962 [Eh]
	 Opposite-Spin Energy      =      -1.2182936863678935 [Eh]
	 Correlation Energy        =      -1.5982642071677897 [Eh]
	 Total Energy              =    -363.4726300474005143 [Eh]

	 ================> DF-SCS-MP2 Energies <==================
	-----------------------------------------------------------
	 SCS Same-Spin Scale       =       0.3333333333333333 [-]
	 SCS Opposite-Spin Scale   =       1.2000000000000000 [-]
	 SCS Same-Spin Energy      =      -0.1266568402666320 [Eh]
	 SCS Opposite-Spin Energy  =      -1.4619524236414720 [Eh]
	 SCS Correlation Energy    =      -1.5886092639081042 [Eh]
	 SCS Total Energy          =    -363.4629751041408099 [Eh]
	-----------------------------------------------------------

  Dipole Moment: [D]
     X:     0.1733      Y:    -1.2603      Z:    -0.3818     Total:     1.3282

*** Psi4 exiting successfully. Buy a developer a beer!
