                               Psi4 1.4a3.dev225

  ==> Input File <==

--------------------------------------------------------------------------
#psi4
#
memory 32 gb

molecule  {
0 1
  O        0.9636680    -1.0001680    -0.4301960
  N        0.7679840     1.1102310     0.3050190
  C       -1.3243600    -0.1423310    -0.3721570
  C        0.1381010     0.0595700    -0.1541750
  C       -2.0674230     1.1831610    -0.2295090
  C       -1.8648280    -1.2049810     0.5921130
  C        2.2187300    -0.5510310    -0.1110300
  C        2.1041050     0.7294570     0.3348460
  H       -1.4517930    -0.5154570    -1.3975200
  H       -1.9460070     1.5800180     0.7812150
  H       -3.1336970     1.0333660    -0.4232700
  H       -1.6836890     1.9287350    -0.9294360
  H       -1.7477770    -0.8676130     1.6266340
  H       -1.2833891    -2.2387398     0.4634242
  H       -2.9287500    -1.3798940     0.4051340
  H        3.0327410    -1.2424980    -0.2628180
  H        2.8799090     1.4020910     0.6717620
units angstrom
no_reorient  #important for SAPT in psi4, default
symmetry c1  #important for SAPT in psi4, default
}

set PROPERTIES_ORIGIN ["COM"]
properties('MP2/aug-cc-pvtz', properties = ['dipole'])
--------------------------------------------------------------------------

    Molecular point group: c1
  Charge       = 0
  Multiplicity = 1
  Basis Set: AUG-CC-PVTZ
    Blend: AUG-CC-PVTZ
  Basis Set: (AUG-CC-PVTZ AUX)
    Blend: AUG-CC-PVTZ-JKFIT

    Orbital Energies [Eh]
    ---------------------

    Doubly Occupied:

       1A    -20.633281     2A    -15.560267     3A    -11.334869
       4A    -11.290321     5A    -11.260014     6A    -11.252629
       7A    -11.237044     8A    -11.218228     9A     -1.475500
      10A     -1.225564    11A     -1.103309    12A     -1.005626
      13A     -0.933968    14A     -0.858010    15A     -0.826381
      16A     -0.771641    17A     -0.713267    18A     -0.661398
      19A     -0.636110    20A     -0.601847    21A     -0.597257
      22A     -0.571552    23A     -0.554382    24A     -0.542927
      25A     -0.506452    26A     -0.491684    27A     -0.481813
      28A     -0.455239    29A     -0.448043    30A     -0.331171

  @DF-RHF Final Energy:  -361.86766311376380

   => Energetics <=

    Nuclear Repulsion Energy =            371.9402367488473828
    One-Electron Energy =               -1228.4562112774553952
    Two-Electron Energy =                 494.6483114148442155
    Total Energy =                       -361.8676631137637969
  Basis Set: (AUG-CC-PVTZ AUX)
    Blend: AUG-CC-PVTZ-RI
    Molecular point group: c1

    Geometry (in Angstrom), charge = 0, multiplicity = 1:

       Center              X                  Y                   Z               Mass
    ------------   -----------------  -----------------  -----------------  -----------------
         O            0.889004845809    -1.001364072219    -0.421676511500    15.994914619570
         N            0.693320845809     1.109034927781     0.313538488500    14.003074004430
         C           -1.399023154191    -0.143527072219    -0.363637511500    12.000000000000
         C            0.063437845809     0.058373927781    -0.145655511500    12.000000000000
         C           -2.142086154191     1.181964927781    -0.220989511500    12.000000000000
         C           -1.939491154191    -1.206177072219     0.600632488500    12.000000000000
         C            2.144066845809    -0.552227072219    -0.102510511500    12.000000000000
         C            2.029441845809     0.728260927781     0.343365488500    12.000000000000
         H           -1.526456154191    -0.516653072219    -1.389000511500     1.007825032230
         H           -2.020670154191     1.578821927781     0.789734488500     1.007825032230
         H           -3.208360154191     1.032169927781    -0.414750511500     1.007825032230
         H           -1.758352154191     1.927538927781    -0.920916511500     1.007825032230
         H           -1.822440154191    -0.868809072219     1.635153488500     1.007825032230
         H           -1.358052254191    -2.239935872219     0.471943688500     1.007825032230
         H           -3.003413154191    -1.381090072219     0.413653488500     1.007825032230
         H            2.958077845809    -1.243694072219    -0.254298511500     1.007825032230
         H            2.805245845809     1.400894927781     0.680281488500     1.007825032230

  Basis Set: AUG-CC-PVTZ
    Blend: AUG-CC-PVTZ
  Basis Set: (AUG-CC-PVTZ AUX)
    Blend: AUG-CC-PVTZ-JKFIT
	 Reference Energy          =    -361.8676631137637969 [Eh]
	 Singles Energy            =      -0.0000000000000000 [Eh]
	 Same-Spin Energy          =      -0.3800324696341970 [Eh]
	 Opposite-Spin Energy      =      -1.2191997286846317 [Eh]
	 Correlation Energy        =      -1.5992321983188287 [Eh]
	 Total Energy              =    -363.4668953120826131 [Eh]

	 ================> DF-SCS-MP2 Energies <==================
	-----------------------------------------------------------
	 SCS Same-Spin Scale       =       0.3333333333333333 [-]
	 SCS Opposite-Spin Scale   =       1.2000000000000000 [-]
	 SCS Same-Spin Energy      =      -0.1266774898780657 [Eh]
	 SCS Opposite-Spin Energy  =      -1.4630396744215579 [Eh]
	 SCS Correlation Energy    =      -1.5897171642996235 [Eh]
	 SCS Total Energy          =    -363.4573802780633969 [Eh]
	-----------------------------------------------------------

  Dipole Moment: [D]
     X:     0.1601      Y:    -1.1962      Z:    -0.3805     Total:     1.2654

*** Psi4 exiting successfully. Buy a developer a beer!
