                               Psi4 1.4a3.dev225

  ==> Input File <==

--------------------------------------------------------------------------
#psi4
#
memory 32 gb

molecule  {
0 1
  O        0.9636680    -1.0001680    -0.4301960
  N        0.7679840     1.1102310     0.3050190
  C       -1.3243600    -0.1423310    -0.3721570
  C        0.1501406     0.0441154    -0.1582003
  C       -2.0674230     1.1831610    -0.2295090
  C       -1.8648280    -1.2049810     0.5921130
  C        2.2187300    -0.5510310    -0.1110300
  C        2.1041050     0.7294570     0.3348460
  H       -1.4517930    -0.5154570    -1.3975200
  H       -1.9460070     1.5800180     0.7812150
  H       -3.1336970     1.0333660    -0.4232700
  H       -1.6836890     1.9287350    -0.9294360
  H       -1.7477770    -0.8676130     1.6266340
  H       -1.3321260    -2.1520890     0.4742110
  H       -2.9287500    -1.3798940     0.4051340
  H        3.0327410    -1.2424980    -0.2628180
  H        2.8799090     1.4020910     0.6717620
units angstrom
no_reorient  #important for SAPT in psi4, default
symmetry c1  #important for SAPT in psi4, default
}

set PROPERTIES_ORIGIN ["COM"]
properties('MP2/aug-cc-pvtz', properties = ['dipole'])
--------------------------------------------------------------------------

    Molecular point group: c1
  Charge       = 0
  Multiplicity = 1
  Basis Set: AUG-CC-PVTZ
    Blend: AUG-CC-PVTZ
  Basis Set: (AUG-CC-PVTZ AUX)
    Blend: AUG-CC-PVTZ-JKFIT

    Orbital Energies [Eh]
    ---------------------

    Doubly Occupied:

       1A    -20.637308     2A    -15.559262     3A    -11.335115
       4A    -11.289618     5A    -11.260746     6A    -11.251588
       7A    -11.225153     8A    -11.216869     9A     -1.484365
      10A     -1.223773    11A     -1.102389    12A     -1.006920
      13A     -0.938556    14A     -0.858489    15A     -0.827839
      16A     -0.774716    17A     -0.714136    18A     -0.664962
      19A     -0.636788    20A     -0.607675    21A     -0.597663
      22A     -0.574694    23A     -0.557548    24A     -0.541438
      25A     -0.504772    26A     -0.490504    27A     -0.488248
      28A     -0.455896    29A     -0.447449    30A     -0.331034

  @DF-RHF Final Energy:  -361.87443730316022

   => Energetics <=

    Nuclear Repulsion Energy =            372.4186974713479117
    One-Electron Energy =               -1229.3752371968405441
    Two-Electron Energy =                 495.0821024223323548
    Total Energy =                       -361.8744373031602208
  Basis Set: (AUG-CC-PVTZ AUX)
    Blend: AUG-CC-PVTZ-RI
    Molecular point group: c1

    Geometry (in Angstrom), charge = 0, multiplicity = 1:

       Center              X                  Y                   Z               Mass
    ------------   -----------------  -----------------  -----------------  -----------------
         O            0.888146303503    -1.000480595529    -0.421339490454    15.994914619570
         N            0.692462303503     1.109918404471     0.313875509546    14.003074004430
         C           -1.399881696497    -0.142643595529    -0.363300490454    12.000000000000
         C            0.074618903503     0.043802804471    -0.149343790454    12.000000000000
         C           -2.142944696497     1.182848404471    -0.220652490454    12.000000000000
         C           -1.940349696497    -1.205293595529     0.600969509546    12.000000000000
         C            2.143208303503    -0.551343595529    -0.102173490454    12.000000000000
         C            2.028583303503     0.729144404471     0.343702509546    12.000000000000
         H           -1.527314696497    -0.515769595529    -1.388663490454     1.007825032230
         H           -2.021528696497     1.579705404471     0.790071509546     1.007825032230
         H           -3.209218696497     1.033053404471    -0.414413490454     1.007825032230
         H           -1.759210696497     1.928422404471    -0.920579490454     1.007825032230
         H           -1.823298696497    -0.867925595529     1.635490509546     1.007825032230
         H           -1.407647696497    -2.152401595529     0.483067509546     1.007825032230
         H           -3.004271696497    -1.380206595529     0.413990509546     1.007825032230
         H            2.957219303503    -1.242810595529    -0.253961490454     1.007825032230
         H            2.804387303503     1.401778404471     0.680618509546     1.007825032230

  Basis Set: AUG-CC-PVTZ
    Blend: AUG-CC-PVTZ
  Basis Set: (AUG-CC-PVTZ AUX)
    Blend: AUG-CC-PVTZ-JKFIT
	 Reference Energy          =    -361.8744373031602208 [Eh]
	 Singles Energy            =      -0.0000000000000000 [Eh]
	 Same-Spin Energy          =      -0.3798676216084097 [Eh]
	 Opposite-Spin Energy      =      -1.2180432898847113 [Eh]
	 Correlation Energy        =      -1.5979109114931211 [Eh]
	 Total Energy              =    -363.4723482146533229 [Eh]

	 ================> DF-SCS-MP2 Energies <==================
	-----------------------------------------------------------
	 SCS Same-Spin Scale       =       0.3333333333333333 [-]
	 SCS Opposite-Spin Scale   =       1.2000000000000000 [-]
	 SCS Same-Spin Energy      =      -0.1266225405361366 [Eh]
	 SCS Opposite-Spin Energy  =      -1.4616519478616536 [Eh]
	 SCS Correlation Energy    =      -1.5882744883977902 [Eh]
	 SCS Total Energy          =    -363.4627117915580357 [Eh]
	-----------------------------------------------------------

  Dipole Moment: [D]
     X:     0.2211      Y:    -1.2972      Z:    -0.3860     Total:     1.3713

*** Psi4 exiting successfully. Buy a developer a beer!
