                               Psi4 1.4a3.dev225

  ==> Input File <==

--------------------------------------------------------------------------
#psi4
#
memory 32 gb

molecule  {
0 1
  O        0.9636680    -1.0001680    -0.4301960
  N        0.6868886     1.1514754     0.3128100
  C       -1.3243600    -0.1423310    -0.3721570
  C        0.1381010     0.0595700    -0.1541750
  C       -2.0674230     1.1831610    -0.2295090
  C       -1.8648280    -1.2049810     0.5921130
  C        2.2187300    -0.5510310    -0.1110300
  C        2.1041050     0.7294570     0.3348460
  H       -1.4517930    -0.5154570    -1.3975200
  H       -1.9460070     1.5800180     0.7812150
  H       -3.1336970     1.0333660    -0.4232700
  H       -1.6836890     1.9287350    -0.9294360
  H       -1.7477770    -0.8676130     1.6266340
  H       -1.3321260    -2.1520890     0.4742110
  H       -2.9287500    -1.3798940     0.4051340
  H        3.0327410    -1.2424980    -0.2628180
  H        2.8799090     1.4020910     0.6717620
units angstrom
no_reorient  #important for SAPT in psi4, default
symmetry c1  #important for SAPT in psi4, default
}

set PROPERTIES_ORIGIN ["COM"]
properties('MP2/aug-cc-pvtz', properties = ['dipole'])
--------------------------------------------------------------------------

    Molecular point group: c1
  Charge       = 0
  Multiplicity = 1
  Basis Set: AUG-CC-PVTZ
    Blend: AUG-CC-PVTZ
  Basis Set: (AUG-CC-PVTZ AUX)
    Blend: AUG-CC-PVTZ-JKFIT

    Orbital Energies [Eh]
    ---------------------

    Doubly Occupied:

       1A    -20.634455     2A    -15.569861     3A    -11.337019
       4A    -11.296027     5A    -11.268011     6A    -11.248504
       7A    -11.224389     8A    -11.215144     9A     -1.474735
      10A     -1.213165    11A     -1.099688    12A     -1.007655
      13A     -0.937487    14A     -0.860748    15A     -0.824286
      16A     -0.762518    17A     -0.712187    18A     -0.661379
      19A     -0.636440    20A     -0.606736    21A     -0.588631
      22A     -0.572508    23A     -0.555130    24A     -0.540790
      25A     -0.502870    26A     -0.489635    27A     -0.485981
      28A     -0.463184    29A     -0.439638    30A     -0.339828

  @DF-RHF Final Energy:  -361.86614750802215

   => Energetics <=

    Nuclear Repulsion Energy =            371.1857206355142580
    One-Electron Energy =               -1226.9664761964559148
    Two-Electron Energy =                 493.9146080529195046
    Total Energy =                       -361.8661475080221521
  Basis Set: (AUG-CC-PVTZ AUX)
    Blend: AUG-CC-PVTZ-RI
    Molecular point group: c1

    Geometry (in Angstrom), charge = 0, multiplicity = 1:

       Center              X                  Y                   Z               Mass
    ------------   -----------------  -----------------  -----------------  -----------------
         O            0.899671273047    -1.007350267640    -0.422756648979    15.994914619570
         N            0.622891873047     1.144293132360     0.320249351021    14.003074004430
         C           -1.388356726953    -0.149513267640    -0.364717648979    12.000000000000
         C            0.074104273047     0.052387732360    -0.146735648979    12.000000000000
         C           -2.131419726953     1.175978732360    -0.222069648979    12.000000000000
         C           -1.928824726953    -1.212163267640     0.599552351021    12.000000000000
         C            2.154733273047    -0.558213267640    -0.103590648979    12.000000000000
         C            2.040108273047     0.722274732360     0.342285351021    12.000000000000
         H           -1.515789726953    -0.522639267640    -1.390080648979     1.007825032230
         H           -2.010003726953     1.572835732360     0.788654351021     1.007825032230
         H           -3.197693726953     1.026183732360    -0.415830648979     1.007825032230
         H           -1.747685726953     1.921552732360    -0.921996648979     1.007825032230
         H           -1.811773726953    -0.874795267640     1.634073351021     1.007825032230
         H           -1.396122726953    -2.159271267640     0.481650351021     1.007825032230
         H           -2.992746726953    -1.387076267640     0.412573351021     1.007825032230
         H            2.968744273047    -1.249680267640    -0.255378648979     1.007825032230
         H            2.815912273047     1.394908732360     0.679201351021     1.007825032230

  Basis Set: AUG-CC-PVTZ
    Blend: AUG-CC-PVTZ
  Basis Set: (AUG-CC-PVTZ AUX)
    Blend: AUG-CC-PVTZ-JKFIT
	 Reference Energy          =    -361.8661475080221521 [Eh]
	 Singles Energy            =      -0.0000000000000000 [Eh]
	 Same-Spin Energy          =      -0.3794405756653917 [Eh]
	 Opposite-Spin Energy      =      -1.2200823080010401 [Eh]
	 Correlation Energy        =      -1.5995228836664319 [Eh]
	 Total Energy              =    -363.4656703916886045 [Eh]

	 ================> DF-SCS-MP2 Energies <==================
	-----------------------------------------------------------
	 SCS Same-Spin Scale       =       0.3333333333333333 [-]
	 SCS Opposite-Spin Scale   =       1.2000000000000000 [-]
	 SCS Same-Spin Energy      =      -0.1264801918884639 [Eh]
	 SCS Opposite-Spin Energy  =      -1.4640987696012482 [Eh]
	 SCS Correlation Energy    =      -1.5905789614897121 [Eh]
	 SCS Total Energy          =    -363.4567264695118638 [Eh]
	-----------------------------------------------------------

  Dipole Moment: [D]
     X:     0.3220      Y:    -1.3269      Z:    -0.3870     Total:     1.4192

*** Psi4 exiting successfully. Buy a developer a beer!
