                               Psi4 1.4a3.dev225

  ==> Input File <==

--------------------------------------------------------------------------
#psi4
#
memory 32 gb

molecule  {
0 1
  O        0.9636680    -1.0001680    -0.4301960
  N        0.7679840     1.1102310     0.3050190
  C       -1.3243600    -0.1423310    -0.3721570
  C        0.1381010     0.0595700    -0.1541750
  C       -2.0674230     1.1831610    -0.2295090
  C       -1.8648280    -1.2049810     0.5921130
  C        2.2187300    -0.5510310    -0.1110300
  C        2.1041050     0.7294570     0.3348460
  H       -1.4517930    -0.5154570    -1.3975200
  H       -1.9460070     1.5800180     0.7812150
  H       -3.1336970     1.0333660    -0.4232700
  H       -1.6836890     1.9287350    -0.9294360
  H       -1.7477770    -0.8676130     1.6266340
  H       -1.3564944    -2.1087636     0.4796044
  H       -2.9287500    -1.3798940     0.4051340
  H        3.0327410    -1.2424980    -0.2628180
  H        2.8799090     1.4020910     0.6717620
units angstrom
no_reorient  #important for SAPT in psi4, default
symmetry c1  #important for SAPT in psi4, default
}

set PROPERTIES_ORIGIN ["COM"]
properties('MP2/aug-cc-pvtz', properties = ['dipole'])
--------------------------------------------------------------------------

    Molecular point group: c1
  Charge       = 0
  Multiplicity = 1
  Basis Set: AUG-CC-PVTZ
    Blend: AUG-CC-PVTZ
  Basis Set: (AUG-CC-PVTZ AUX)
    Blend: AUG-CC-PVTZ-JKFIT

    Orbital Energies [Eh]
    ---------------------

    Doubly Occupied:

       1A    -20.633591     2A    -15.560066     3A    -11.334698
       4A    -11.290321     5A    -11.260096     6A    -11.251096
       7A    -11.219444     8A    -11.216821     9A     -1.475741
      10A     -1.225485    11A     -1.104150    12A     -1.006441
      13A     -0.942438    14A     -0.860341    15A     -0.826381
      16A     -0.772138    17A     -0.713627    18A     -0.662228
      19A     -0.636139    20A     -0.612257    21A     -0.599623
      22A     -0.571704    23A     -0.559383    24A     -0.541359
      25A     -0.506742    26A     -0.492977    27A     -0.489958
      28A     -0.455228    29A     -0.448298    30A     -0.331103

  @DF-RHF Final Energy:  -361.87332661826235

   => Energetics <=

    Nuclear Repulsion Energy =            372.5319539047899866
    One-Electron Energy =               -1229.6108165576840747
    Two-Electron Energy =                 495.2055360346316775
    Total Energy =                       -361.8733266182623538
  Basis Set: (AUG-CC-PVTZ AUX)
    Blend: AUG-CC-PVTZ-RI
    Molecular point group: c1

    Geometry (in Angstrom), charge = 0, multiplicity = 1:

       Center              X                  Y                   Z               Mass
    ------------   -----------------  -----------------  -----------------  -----------------
         O            0.889668196880    -1.002543464841    -0.421823329213    15.994914619570
         N            0.693984196880     1.107855535159     0.313391670787    14.003074004430
         C           -1.398359803120    -0.144706464841    -0.363784329213    12.000000000000
         C            0.064101196880     0.057194535159    -0.145802329213    12.000000000000
         C           -2.141422803120     1.180785535159    -0.221136329213    12.000000000000
         C           -1.938827803120    -1.207356464841     0.600485670787    12.000000000000
         C            2.144730196880    -0.553406464841    -0.102657329213    12.000000000000
         C            2.030105196880     0.727081535159     0.343218670787    12.000000000000
         H           -1.525792803120    -0.517832464841    -1.389147329213     1.007825032230
         H           -2.020006803120     1.577642535159     0.789587670787     1.007825032230
         H           -3.207696803120     1.030990535159    -0.414897329213     1.007825032230
         H           -1.757688803120     1.926359535159    -0.921063329213     1.007825032230
         H           -1.821776803120    -0.869988464841     1.635006670787     1.007825032230
         H           -1.430494203120    -2.111139064841     0.487977070787     1.007825032230
         H           -3.002749803120    -1.382269464841     0.413506670787     1.007825032230
         H            2.958741196880    -1.244873464841    -0.254445329213     1.007825032230
         H            2.805909196880     1.399715535159     0.680134670787     1.007825032230

  Basis Set: AUG-CC-PVTZ
    Blend: AUG-CC-PVTZ
  Basis Set: (AUG-CC-PVTZ AUX)
    Blend: AUG-CC-PVTZ-JKFIT
	 Reference Energy          =    -361.8733266182623538 [Eh]
	 Singles Energy            =      -0.0000000000000000 [Eh]
	 Same-Spin Energy          =      -0.3799742964206926 [Eh]
	 Opposite-Spin Energy      =      -1.2181300205354175 [Eh]
	 Correlation Energy        =      -1.5981043169561102 [Eh]
	 Total Energy              =    -363.4714309352184500 [Eh]

	 ================> DF-SCS-MP2 Energies <==================
	-----------------------------------------------------------
	 SCS Same-Spin Scale       =       0.3333333333333333 [-]
	 SCS Opposite-Spin Scale   =       1.2000000000000000 [-]
	 SCS Same-Spin Energy      =      -0.1266580988068975 [Eh]
	 SCS Opposite-Spin Energy  =      -1.4617560246425010 [Eh]
	 SCS Correlation Energy    =      -1.5884141234493985 [Eh]
	 SCS Total Energy          =    -363.4617407417117647 [Eh]
	-----------------------------------------------------------

  Dipole Moment: [D]
     X:     0.1816      Y:    -1.2820      Z:    -0.3690     Total:     1.3463

*** Psi4 exiting successfully. Buy a developer a beer!
