                               Psi4 1.4a3.dev225

  ==> Input File <==

--------------------------------------------------------------------------
#psi4
#
memory 32 gb

molecule  {
0 1
  O        0.9636680    -1.0001680    -0.4301960
  N        0.7679840     1.1102310     0.3050190
  C       -1.3243600    -0.1423310    -0.3721570
  C        0.1381010     0.0595700    -0.1541750
  C       -2.0674230     1.1831610    -0.2295090
  C       -1.8648280    -1.2049810     0.5921130
  C        2.2187300    -0.5510310    -0.1110300
  C        2.1041050     0.7294570     0.3348460
  H       -1.4517930    -0.5154570    -1.3975200
  H       -1.9460070     1.5800180     0.7812150
  H       -3.1336970     1.0333660    -0.4232700
  H       -1.7539533     1.7922154    -0.8012747
  H       -1.7477770    -0.8676130     1.6266340
  H       -1.3321260    -2.1520890     0.4742110
  H       -2.9287500    -1.3798940     0.4051340
  H        3.0327410    -1.2424980    -0.2628180
  H        2.8799090     1.4020910     0.6717620
units angstrom
no_reorient  #important for SAPT in psi4, default
symmetry c1  #important for SAPT in psi4, default
}

set PROPERTIES_ORIGIN ["COM"]
properties('MP2/aug-cc-pvtz', properties = ['dipole'])
--------------------------------------------------------------------------

    Molecular point group: c1
  Charge       = 0
  Multiplicity = 1
  Basis Set: AUG-CC-PVTZ
    Blend: AUG-CC-PVTZ
  Basis Set: (AUG-CC-PVTZ AUX)
    Blend: AUG-CC-PVTZ-JKFIT

    Orbital Energies [Eh]
    ---------------------

    Doubly Occupied:

       1A    -20.633444     2A    -15.560346     3A    -11.334769
       4A    -11.290388     5A    -11.260165     6A    -11.250133
       7A    -11.224185     8A    -11.192825     9A     -1.475656
      10A     -1.225720    11A     -1.106324    12A     -1.008457
      13A     -0.956487    14A     -0.862607    15A     -0.828001
      16A     -0.773459    17A     -0.714711    18A     -0.663920
      19A     -0.637128    20A     -0.627405    21A     -0.599371
      22A     -0.572272    23A     -0.561256    24A     -0.540380
      25A     -0.510640    26A     -0.500754    27A     -0.488072
      28A     -0.455605    29A     -0.448339    30A     -0.331127

  @DF-RHF Final Energy:  -361.83994074561457

   => Energetics <=

    Nuclear Repulsion Energy =            373.2869282135795856
    One-Electron Energy =               -1230.9858445542261052
    Two-Electron Energy =                 495.8589755950319500
    Total Energy =                       -361.8399407456145696
  Basis Set: (AUG-CC-PVTZ AUX)
    Blend: AUG-CC-PVTZ-RI
    Molecular point group: c1

    Geometry (in Angstrom), charge = 0, multiplicity = 1:

       Center              X                  Y                   Z               Mass
    ------------   -----------------  -----------------  -----------------  -----------------
         O            0.890084652245    -1.000911567108    -0.422937314355    15.994914619570
         N            0.694400652245     1.109487432892     0.312277685645    14.003074004430
         C           -1.397943347755    -0.143074567108    -0.364898314355    12.000000000000
         C            0.064517652245     0.058826432892    -0.146916314355    12.000000000000
         C           -2.141006347755     1.182417432892    -0.222250314355    12.000000000000
         C           -1.938411347755    -1.205724567108     0.599371685645    12.000000000000
         C            2.145146652245    -0.551774567108    -0.103771314355    12.000000000000
         C            2.030521652245     0.728713432892     0.342104685645    12.000000000000
         H           -1.525376347755    -0.516200567108    -1.390261314355     1.007825032230
         H           -2.019590347755     1.579274432892     0.788473685645     1.007825032230
         H           -3.207280347755     1.032622432892    -0.416011314355     1.007825032230
         H           -1.827536647755     1.791471832892    -0.794016014355     1.007825032230
         H           -1.821360347755    -0.868356567108     1.633892685645     1.007825032230
         H           -1.405709347755    -2.152832567108     0.481469685645     1.007825032230
         H           -3.002333347755    -1.380637567108     0.412392685645     1.007825032230
         H            2.959157652245    -1.243241567108    -0.255559314355     1.007825032230
         H            2.806325652245     1.401347432892     0.679020685645     1.007825032230

  Basis Set: AUG-CC-PVTZ
    Blend: AUG-CC-PVTZ
  Basis Set: (AUG-CC-PVTZ AUX)
    Blend: AUG-CC-PVTZ-JKFIT
	 Reference Energy          =    -361.8399407456145696 [Eh]
	 Singles Energy            =      -0.0000000000000000 [Eh]
	 Same-Spin Energy          =      -0.3800535759967405 [Eh]
	 Opposite-Spin Energy      =      -1.2177688083550553 [Eh]
	 Correlation Energy        =      -1.5978223843517958 [Eh]
	 Total Energy              =    -363.4377631299663562 [Eh]

	 ================> DF-SCS-MP2 Energies <==================
	-----------------------------------------------------------
	 SCS Same-Spin Scale       =       0.3333333333333333 [-]
	 SCS Opposite-Spin Scale   =       1.2000000000000000 [-]
	 SCS Same-Spin Energy      =      -0.1266845253322468 [Eh]
	 SCS Opposite-Spin Energy  =      -1.4613225700260664 [Eh]
	 SCS Correlation Energy    =      -1.5880070953583132 [Eh]
	 SCS Total Energy          =    -363.4279478409728767 [Eh]
	-----------------------------------------------------------

  Dipole Moment: [D]
     X:     0.1769      Y:    -1.1932      Z:    -0.4169     Total:     1.2762

*** Psi4 exiting successfully. Buy a developer a beer!
