                               Psi4 1.4a3.dev225

  ==> Input File <==

--------------------------------------------------------------------------
#psi4
#
memory 32 gb

molecule  {
0 1
  O        0.9636680    -1.0001680    -0.4301960
  N        0.7679840     1.1102310     0.3050190
  C       -1.3243600    -0.1423310    -0.3721570
  C        0.1381010     0.0595700    -0.1541750
  C       -2.0674230     1.1831610    -0.2295090
  C       -1.8648280    -1.2049810     0.5921130
  C        2.2187300    -0.5510310    -0.1110300
  C        2.1041050     0.7294570     0.3348460
  H       -1.4633930    -0.5494220    -1.4908571
  H       -1.9460070     1.5800180     0.7812150
  H       -3.1336970     1.0333660    -0.4232700
  H       -1.6836890     1.9287350    -0.9294360
  H       -1.7477770    -0.8676130     1.6266340
  H       -1.3321260    -2.1520890     0.4742110
  H       -2.9287500    -1.3798940     0.4051340
  H        3.0327410    -1.2424980    -0.2628180
  H        2.8799090     1.4020910     0.6717620
units angstrom
no_reorient  #important for SAPT in psi4, default
symmetry c1  #important for SAPT in psi4, default
}

set PROPERTIES_ORIGIN ["COM"]
properties('MP2/aug-cc-pvtz', properties = ['dipole'])
--------------------------------------------------------------------------

    Molecular point group: c1
  Charge       = 0
  Multiplicity = 1
  Basis Set: AUG-CC-PVTZ
    Blend: AUG-CC-PVTZ
  Basis Set: (AUG-CC-PVTZ AUX)
    Blend: AUG-CC-PVTZ-JKFIT

    Orbital Energies [Eh]
    ---------------------

    Doubly Occupied:

       1A    -20.633519     2A    -15.560826     3A    -11.335570
       4A    -11.290716     5A    -11.263179     6A    -11.260368
       7A    -11.226410     8A    -11.218139     9A     -1.475764
      10A     -1.225977    11A     -1.100900    12A     -1.006001
      13A     -0.939743    14A     -0.857017    15A     -0.826693
      16A     -0.769189    17A     -0.706972    18A     -0.661064
      19A     -0.633545    20A     -0.606828    21A     -0.599501
      22A     -0.571760    23A     -0.558394    24A     -0.542326
      25A     -0.507118    26A     -0.491718    27A     -0.478923
      28A     -0.455794    29A     -0.448434    30A     -0.331047

  @DF-RHF Final Energy:  -361.86776864821741

   => Energetics <=

    Nuclear Repulsion Energy =            371.8322806041622925
    One-Electron Energy =               -1228.2332257082900924
    Two-Electron Energy =                 494.5331764559103931
    Total Energy =                       -361.8677686482174067
  Basis Set: (AUG-CC-PVTZ AUX)
    Blend: AUG-CC-PVTZ-RI
    Molecular point group: c1

    Geometry (in Angstrom), charge = 0, multiplicity = 1:

       Center              X                  Y                   Z               Mass
    ------------   -----------------  -----------------  -----------------  -----------------
         O            0.889552337540    -1.001842138540    -0.420927457328    15.994914619570
         N            0.693868337540     1.108556861460     0.314287542672    14.003074004430
         C           -1.398475662460    -0.144005138540    -0.362888457328    12.000000000000
         C            0.063985337540     0.057895861460    -0.144906457328    12.000000000000
         C           -2.141538662460     1.181486861460    -0.220240457328    12.000000000000
         C           -1.938943662460    -1.206655138540     0.601381542672    12.000000000000
         C            2.144614337540    -0.552705138540    -0.101761457328    12.000000000000
         C            2.029989337540     0.727782861460     0.344114542672    12.000000000000
         H           -1.537508662460    -0.551096138540    -1.481588557328     1.007825032230
         H           -2.020122662460     1.578343861460     0.790483542672     1.007825032230
         H           -3.207812662460     1.031691861460    -0.414001457328     1.007825032230
         H           -1.757804662460     1.927060861460    -0.920167457328     1.007825032230
         H           -1.821892662460    -0.869287138540     1.635902542672     1.007825032230
         H           -1.406241662460    -2.153763138540     0.483479542672     1.007825032230
         H           -3.002865662460    -1.381568138540     0.414402542672     1.007825032230
         H            2.958625337540    -1.244172138540    -0.253549457328     1.007825032230
         H            2.805793337540     1.400416861460     0.681030542672     1.007825032230

  Basis Set: AUG-CC-PVTZ
    Blend: AUG-CC-PVTZ
  Basis Set: (AUG-CC-PVTZ AUX)
    Blend: AUG-CC-PVTZ-JKFIT
	 Reference Energy          =    -361.8677686482174067 [Eh]
	 Singles Energy            =      -0.0000000000000000 [Eh]
	 Same-Spin Energy          =      -0.3800870426786601 [Eh]
	 Opposite-Spin Energy      =      -1.2192444837146832 [Eh]
	 Correlation Energy        =      -1.5993315263933432 [Eh]
	 Total Energy              =    -363.4671001746107777 [Eh]

	 ================> DF-SCS-MP2 Energies <==================
	-----------------------------------------------------------
	 SCS Same-Spin Scale       =       0.3333333333333333 [-]
	 SCS Opposite-Spin Scale   =       1.2000000000000000 [-]
	 SCS Same-Spin Energy      =      -0.1266956808928867 [Eh]
	 SCS Opposite-Spin Energy  =      -1.4630933804576198 [Eh]
	 SCS Correlation Energy    =      -1.5897890613505066 [Eh]
	 SCS Total Energy          =    -363.4575577095679364 [Eh]
	-----------------------------------------------------------

  Dipole Moment: [D]
     X:     0.1903      Y:    -1.2363      Z:    -0.3145     Total:     1.2898

*** Psi4 exiting successfully. Buy a developer a beer!
