                               Psi4 1.4a3.dev225

  ==> Input File <==

--------------------------------------------------------------------------
#psi4
#
memory 32 gb

molecule  {
0 1
  O        0.9636680    -1.0001680    -0.4301960
  N        0.7679840     1.1102310     0.3050190
  C       -1.3243600    -0.1423310    -0.3721570
  C        0.1381010     0.0595700    -0.1541750
  C       -2.0674230     1.1831610    -0.2295090
  C       -1.8648280    -1.2049810     0.5921130
  C        2.1952066    -0.5518125    -0.1142004
  C        2.1041050     0.7294570     0.3348460
  H       -1.4517930    -0.5154570    -1.3975200
  H       -1.9460070     1.5800180     0.7812150
  H       -3.1336970     1.0333660    -0.4232700
  H       -1.6836890     1.9287350    -0.9294360
  H       -1.7477770    -0.8676130     1.6266340
  H       -1.3321260    -2.1520890     0.4742110
  H       -2.9287500    -1.3798940     0.4051340
  H        3.0327410    -1.2424980    -0.2628180
  H        2.8799090     1.4020910     0.6717620
units angstrom
no_reorient  #important for SAPT in psi4, default
symmetry c1  #important for SAPT in psi4, default
}

set PROPERTIES_ORIGIN ["COM"]
properties('MP2/aug-cc-pvtz', properties = ['dipole'])
--------------------------------------------------------------------------

    Molecular point group: c1
  Charge       = 0
  Multiplicity = 1
  Basis Set: AUG-CC-PVTZ
    Blend: AUG-CC-PVTZ
  Basis Set: (AUG-CC-PVTZ AUX)
    Blend: AUG-CC-PVTZ-JKFIT

    Orbital Energies [Eh]
    ---------------------

    Doubly Occupied:

       1A    -20.636542     2A    -15.560556     3A    -11.333637
       4A    -11.290959     5A    -11.257863     6A    -11.251376
       7A    -11.225405     8A    -11.217122     9A     -1.484914
      10A     -1.227151    11A     -1.103876    12A     -1.005319
      13A     -0.939027    14A     -0.860102    15A     -0.826689
      16A     -0.774656    17A     -0.714131    18A     -0.665297
      19A     -0.636317    20A     -0.607138    21A     -0.599234
      22A     -0.572784    23A     -0.558055    24A     -0.541775
      25A     -0.506272    26A     -0.491229    27A     -0.489191
      28A     -0.455134    29A     -0.449031    30A     -0.329342

  @DF-RHF Final Energy:  -361.87397148108494

   => Energetics <=

    Nuclear Repulsion Energy =            372.8365537356294226
    One-Electron Energy =               -1230.2008054596265083
    Two-Electron Energy =                 495.4902802429121493
    Total Energy =                       -361.8739714810849364
  Basis Set: (AUG-CC-PVTZ AUX)
    Blend: AUG-CC-PVTZ-RI
    Molecular point group: c1

    Geometry (in Angstrom), charge = 0, multiplicity = 1:

       Center              X                  Y                   Z               Mass
    ------------   -----------------  -----------------  -----------------  -----------------
         O            0.891988583994    -1.002065899521    -0.421431855148    15.994914619570
         N            0.696304583994     1.108333100479     0.313783144852    14.003074004430
         C           -1.396039416006    -0.144228899521    -0.363392855148    12.000000000000
         C            0.066421583994     0.057672100479    -0.145410855148    12.000000000000
         C           -2.139102416006     1.181263100479    -0.220744855148    12.000000000000
         C           -1.936507416006    -1.206878899521     0.600877144852    12.000000000000
         C            2.123527183994    -0.553710399521    -0.105436255148    12.000000000000
         C            2.032425583994     0.727559100479     0.343610144852    12.000000000000
         H           -1.523472416006    -0.517354899521    -1.388755855148     1.007825032230
         H           -2.017686416006     1.578120100479     0.789979144852     1.007825032230
         H           -3.205376416006     1.031468100479    -0.414505855148     1.007825032230
         H           -1.755368416006     1.926837100479    -0.920671855148     1.007825032230
         H           -1.819456416006    -0.869510899521     1.635398144852     1.007825032230
         H           -1.403805416006    -2.153986899521     0.482975144852     1.007825032230
         H           -3.000429416006    -1.381791899521     0.413898144852     1.007825032230
         H            2.961061583994    -1.244395899521    -0.254053855148     1.007825032230
         H            2.808229583994     1.400193100479     0.680526144852     1.007825032230

  Basis Set: AUG-CC-PVTZ
    Blend: AUG-CC-PVTZ
  Basis Set: (AUG-CC-PVTZ AUX)
    Blend: AUG-CC-PVTZ-JKFIT
	 Reference Energy          =    -361.8739714810849364 [Eh]
	 Singles Energy            =      -0.0000000000000000 [Eh]
	 Same-Spin Energy          =      -0.3801127944886062 [Eh]
	 Opposite-Spin Energy      =      -1.2182244848965371 [Eh]
	 Correlation Energy        =      -1.5983372793851434 [Eh]
	 Total Energy              =    -363.4723087604700709 [Eh]

	 ================> DF-SCS-MP2 Energies <==================
	-----------------------------------------------------------
	 SCS Same-Spin Scale       =       0.3333333333333333 [-]
	 SCS Opposite-Spin Scale   =       1.2000000000000000 [-]
	 SCS Same-Spin Energy      =      -0.1267042648295354 [Eh]
	 SCS Opposite-Spin Energy  =      -1.4618693818758446 [Eh]
	 SCS Correlation Energy    =      -1.5885736467053799 [Eh]
	 SCS Total Energy          =    -363.4625451277902926 [Eh]
	-----------------------------------------------------------

  Dipole Moment: [D]
     X:     0.1517      Y:    -1.2686      Z:    -0.3811     Total:     1.3332

*** Psi4 exiting successfully. Buy a developer a beer!
