                               Psi4 1.4a3.dev225

  ==> Input File <==

--------------------------------------------------------------------------
#psi4
#
memory 32 gb

molecule  {
0 1
  O        0.9636680    -1.0001680    -0.4301960
  N        0.7679840     1.1102310     0.3050190
  C       -1.3243600    -0.1423310    -0.3721570
  C        0.1426237     0.0513700    -0.1784792
  C       -2.0674230     1.1831610    -0.2295090
  C       -1.8648280    -1.2049810     0.5921130
  C        2.2187300    -0.5510310    -0.1110300
  C        2.1041050     0.7294570     0.3348460
  H       -1.4517930    -0.5154570    -1.3975200
  H       -1.9460070     1.5800180     0.7812150
  H       -3.1336970     1.0333660    -0.4232700
  H       -1.6836890     1.9287350    -0.9294360
  H       -1.7477770    -0.8676130     1.6266340
  H       -1.3321260    -2.1520890     0.4742110
  H       -2.9287500    -1.3798940     0.4051340
  H        3.0327410    -1.2424980    -0.2628180
  H        2.8799090     1.4020910     0.6717620
units angstrom
no_reorient  #important for SAPT in psi4, default
symmetry c1  #important for SAPT in psi4, default
}

set PROPERTIES_ORIGIN ["COM"]
properties('MP2/aug-cc-pvtz', properties = ['dipole'])
--------------------------------------------------------------------------

    Molecular point group: c1
  Charge       = 0
  Multiplicity = 1
  Basis Set: AUG-CC-PVTZ
    Blend: AUG-CC-PVTZ
  Basis Set: (AUG-CC-PVTZ AUX)
    Blend: AUG-CC-PVTZ-JKFIT

    Orbital Energies [Eh]
    ---------------------

    Doubly Occupied:

       1A    -20.636352     2A    -15.559815     3A    -11.335715
       4A    -11.289662     5A    -11.260361     6A    -11.251555
       7A    -11.225744     8A    -11.217212     9A     -1.481153
      10A     -1.221469    11A     -1.103840    12A     -1.006465
      13A     -0.938960    14A     -0.860132    15A     -0.826851
      16A     -0.773647    17A     -0.713431    18A     -0.664108
      19A     -0.636251    20A     -0.608432    21A     -0.597704
      22A     -0.573239    23A     -0.557761    24A     -0.541643
      25A     -0.506982    26A     -0.490934    27A     -0.488674
      28A     -0.454844    29A     -0.446246    30A     -0.330241

  @DF-RHF Final Energy:  -361.87353750115295

   => Energetics <=

    Nuclear Repulsion Energy =            372.2981588001450746
    One-Electron Energy =               -1229.1445506701334125
    Two-Electron Energy =                 494.9728543688353852
    Total Energy =                       -361.8735375011529527
  Basis Set: (AUG-CC-PVTZ AUX)
    Blend: AUG-CC-PVTZ-RI
    Molecular point group: c1

    Geometry (in Angstrom), charge = 0, multiplicity = 1:

       Center              X                  Y                   Z               Mass
    ------------   -----------------  -----------------  -----------------  -----------------
         O            0.888958440787    -1.001264393523    -0.419148527323    15.994914619570
         N            0.693274440787     1.109134606477     0.316066472677    14.003074004430
         C           -1.399069559213    -0.143427393523    -0.361109527323    12.000000000000
         C            0.067914140787     0.050273606477    -0.167431727323    12.000000000000
         C           -2.142132559213     1.182064606477    -0.218461527323    12.000000000000
         C           -1.939537559213    -1.206077393523     0.603160472677    12.000000000000
         C            2.144020440787    -0.552127393523    -0.099982527323    12.000000000000
         C            2.029395440787     0.728360606477     0.345893472677    12.000000000000
         H           -1.526502559213    -0.516553393523    -1.386472527323     1.007825032230
         H           -2.020716559213     1.578921606477     0.792262472677     1.007825032230
         H           -3.208406559213     1.032269606477    -0.412222527323     1.007825032230
         H           -1.758398559213     1.927638606477    -0.918388527323     1.007825032230
         H           -1.822486559213    -0.868709393523     1.637681472677     1.007825032230
         H           -1.406835559213    -2.153185393523     0.485258472677     1.007825032230
         H           -3.003459559213    -1.380990393523     0.416181472677     1.007825032230
         H            2.958031440787    -1.243594393523    -0.251770527323     1.007825032230
         H            2.805199440787     1.400994606477     0.682809472677     1.007825032230

  Basis Set: AUG-CC-PVTZ
    Blend: AUG-CC-PVTZ
  Basis Set: (AUG-CC-PVTZ AUX)
    Blend: AUG-CC-PVTZ-JKFIT
	 Reference Energy          =    -361.8735375011529527 [Eh]
	 Singles Energy            =      -0.0000000000000000 [Eh]
	 Same-Spin Energy          =      -0.3801492279081121 [Eh]
	 Opposite-Spin Energy      =      -1.2185275227412331 [Eh]
	 Correlation Energy        =      -1.5986767506493451 [Eh]
	 Total Energy              =    -363.4722142518023134 [Eh]

	 ================> DF-SCS-MP2 Energies <==================
	-----------------------------------------------------------
	 SCS Same-Spin Scale       =       0.3333333333333333 [-]
	 SCS Opposite-Spin Scale   =       1.2000000000000000 [-]
	 SCS Same-Spin Energy      =      -0.1267164093027040 [Eh]
	 SCS Opposite-Spin Energy  =      -1.4622330272894797 [Eh]
	 SCS Correlation Energy    =      -1.5889494365921837 [Eh]
	 SCS Total Energy          =    -363.4624869377451546 [Eh]
	-----------------------------------------------------------

  Dipole Moment: [D]
     X:     0.1966      Y:    -1.2968      Z:    -0.3893     Total:     1.3681

*** Psi4 exiting successfully. Buy a developer a beer!
