                               Psi4 1.4a3.dev225

  ==> Input File <==

--------------------------------------------------------------------------
#psi4
#
memory 32 gb

molecule  {
0 1
  O        0.9636680    -1.0001680    -0.4301960
  N        0.7679840     1.1102310     0.3050190
  C       -1.3243600    -0.1423310    -0.3721570
  C        0.1381010     0.0595700    -0.1541750
  C       -2.0674230     1.1831610    -0.2295090
  C       -1.8648280    -1.2049810     0.5921130
  C        2.2187300    -0.5510310    -0.1110300
  C        2.1041050     0.7294570     0.3348460
  H       -1.4517930    -0.5154570    -1.3975200
  H       -1.9460070     1.5800180     0.7812150
  H       -3.1824281     1.0265200    -0.4321253
  H       -1.6836890     1.9287350    -0.9294360
  H       -1.7477770    -0.8676130     1.6266340
  H       -1.3321260    -2.1520890     0.4742110
  H       -2.9287500    -1.3798940     0.4051340
  H        3.0327410    -1.2424980    -0.2628180
  H        2.8799090     1.4020910     0.6717620
units angstrom
no_reorient  #important for SAPT in psi4, default
symmetry c1  #important for SAPT in psi4, default
}

set PROPERTIES_ORIGIN ["COM"]
properties('MP2/aug-cc-pvtz', properties = ['dipole'])
--------------------------------------------------------------------------

    Molecular point group: c1
  Charge       = 0
  Multiplicity = 1
  Basis Set: AUG-CC-PVTZ
    Blend: AUG-CC-PVTZ
  Basis Set: (AUG-CC-PVTZ AUX)
    Blend: AUG-CC-PVTZ-JKFIT

    Orbital Energies [Eh]
    ---------------------

    Doubly Occupied:

       1A    -20.633844     2A    -15.560527     3A    -11.335215
       4A    -11.290629     5A    -11.260365     6A    -11.252074
       7A    -11.225495     8A    -11.223384     9A     -1.476006
      10A     -1.225889    11A     -1.103565    12A     -1.005832
      13A     -0.936767    14A     -0.858473    15A     -0.826040
      16A     -0.771889    17A     -0.713757    18A     -0.662069
      19A     -0.635175    20A     -0.607466    21A     -0.599672
      22A     -0.571967    23A     -0.556991    24A     -0.537816
      25A     -0.502672    26A     -0.491623    27A     -0.489647
      28A     -0.455619    29A     -0.448587    30A     -0.331432

  @DF-RHF Final Energy:  -361.87218883337056

   => Energetics <=

    Nuclear Repulsion Energy =            372.1015019584965557
    One-Electron Energy =               -1228.7664110379757858
    Two-Electron Energy =                 494.7927202461086722
    Total Energy =                       -361.8721888333705579
  Basis Set: (AUG-CC-PVTZ AUX)
    Blend: AUG-CC-PVTZ-RI
    Molecular point group: c1

    Geometry (in Angstrom), charge = 0, multiplicity = 1:

       Center              X                  Y                   Z               Mass
    ------------   -----------------  -----------------  -----------------  -----------------
         O            0.889889261880    -1.002088213965    -0.421694037761    15.994914619570
         N            0.694205261880     1.108310786035     0.313520962239    14.003074004430
         C           -1.398138738120    -0.144251213965    -0.363655037761    12.000000000000
         C            0.064322261880     0.057649786035    -0.145673037761    12.000000000000
         C           -2.141201738120     1.181240786035    -0.221007037761    12.000000000000
         C           -1.938606738120    -1.206901213965     0.600614962239    12.000000000000
         C            2.144951261880    -0.552951213965    -0.102528037761    12.000000000000
         C            2.030326261880     0.727536786035     0.343347962239    12.000000000000
         H           -1.525571738120    -0.517377213965    -1.389018037761     1.007825032230
         H           -2.019785738120     1.578097786035     0.789716962239     1.007825032230
         H           -3.256206838120     1.024599786035    -0.423623337761     1.007825032230
         H           -1.757467738120     1.926814786035    -0.920934037761     1.007825032230
         H           -1.821555738120    -0.869533213965     1.635135962239     1.007825032230
         H           -1.405904738120    -2.154009213965     0.482712962239     1.007825032230
         H           -3.002528738120    -1.381814213965     0.413635962239     1.007825032230
         H            2.958962261880    -1.244418213965    -0.254316037761     1.007825032230
         H            2.806130261880     1.400170786035     0.680263962239     1.007825032230

  Basis Set: AUG-CC-PVTZ
    Blend: AUG-CC-PVTZ
  Basis Set: (AUG-CC-PVTZ AUX)
    Blend: AUG-CC-PVTZ-JKFIT
	 Reference Energy          =    -361.8721888333705579 [Eh]
	 Singles Energy            =      -0.0000000000000000 [Eh]
	 Same-Spin Energy          =      -0.3799767966312700 [Eh]
	 Opposite-Spin Energy      =      -1.2187728024246052 [Eh]
	 Correlation Energy        =      -1.5987495990558753 [Eh]
	 Total Energy              =    -363.4709384324264079 [Eh]

	 ================> DF-SCS-MP2 Energies <==================
	-----------------------------------------------------------
	 SCS Same-Spin Scale       =       0.3333333333333333 [-]
	 SCS Opposite-Spin Scale   =       1.2000000000000000 [-]
	 SCS Same-Spin Energy      =      -0.1266589322104233 [Eh]
	 SCS Opposite-Spin Energy  =      -1.4625273629095261 [Eh]
	 SCS Correlation Energy    =      -1.5891862951199494 [Eh]
	 SCS Total Energy          =    -363.4613751284904879 [Eh]
	-----------------------------------------------------------

  Dipole Moment: [D]
     X:     0.2160      Y:    -1.2603      Z:    -0.3672     Total:     1.3303

*** Psi4 exiting successfully. Buy a developer a beer!
