                               Psi4 1.4a3.dev225

  ==> Input File <==

--------------------------------------------------------------------------
#psi4
#
memory 32 gb

molecule  {
0 1
  O        0.9636680    -1.0001680    -0.4301960
  N        0.7679840     1.1102310     0.3050190
  C       -1.3243600    -0.1423310    -0.3721570
  C        0.1381010     0.0595700    -0.1541750
  C       -2.0674230     1.1831610    -0.2295090
  C       -1.8648280    -1.2049810     0.5921130
  C        2.0773168    -0.5498653    -0.1279830
  C        2.1041050     0.7294570     0.3348460
  H       -1.4517930    -0.5154570    -1.3975200
  H       -1.9460070     1.5800180     0.7812150
  H       -3.1336970     1.0333660    -0.4232700
  H       -1.6836890     1.9287350    -0.9294360
  H       -1.7477770    -0.8676130     1.6266340
  H       -1.3321260    -2.1520890     0.4742110
  H       -2.9287500    -1.3798940     0.4051340
  H        3.0327410    -1.2424980    -0.2628180
  H        2.8799090     1.4020910     0.6717620
units angstrom
no_reorient  #important for SAPT in psi4, default
symmetry c1  #important for SAPT in psi4, default
}

set PROPERTIES_ORIGIN ["COM"]
properties('MP2/aug-cc-pvtz', properties = ['dipole'])
--------------------------------------------------------------------------

    Molecular point group: c1
  Charge       = 0
  Multiplicity = 1
  Basis Set: AUG-CC-PVTZ
    Blend: AUG-CC-PVTZ
  Basis Set: (AUG-CC-PVTZ AUX)
    Blend: AUG-CC-PVTZ-JKFIT

    Orbital Energies [Eh]
    ---------------------

    Doubly Occupied:

       1A    -20.652119     2A    -15.563814     3A    -11.328053
       4A    -11.297354     5A    -11.250667     6A    -11.247897
       7A    -11.225120     8A    -11.216688     9A     -1.540353
      10A     -1.237215    11A     -1.104970    12A     -1.002891
      13A     -0.939328    14A     -0.869387    15A     -0.829550
      16A     -0.789833    17A     -0.718492    18A     -0.691227
      19A     -0.643564    20A     -0.611769    21A     -0.600632
      22A     -0.565106    23A     -0.550448    24A     -0.541620
      25A     -0.503906    26A     -0.491998    27A     -0.488305
      28A     -0.453940    29A     -0.453159    30A     -0.320729

  @DF-RHF Final Energy:  -361.84922976521852

   => Energetics <=

    Nuclear Repulsion Energy =            375.6111638643453716
    One-Electron Energy =               -1235.4605312151049930
    Two-Electron Energy =                 498.0001375855410970
    Total Energy =                       -361.8492297652185243
  Basis Set: (AUG-CC-PVTZ AUX)
    Blend: AUG-CC-PVTZ-RI
    Molecular point group: c1

    Geometry (in Angstrom), charge = 0, multiplicity = 1:

       Center              X                  Y                   Z               Mass
    ------------   -----------------  -----------------  -----------------  -----------------
         O            0.904725576899    -1.002276277964    -0.419942762127    15.994914619570
         N            0.709041576899     1.108122722036     0.315272237873    14.003074004430
         C           -1.383302423101    -0.144439277964    -0.361903762127    12.000000000000
         C            0.079158576899     0.057461722036    -0.143921762127    12.000000000000
         C           -2.126365423101     1.181052722036    -0.219255762127    12.000000000000
         C           -1.923770423101    -1.207089277964     0.602366237873    12.000000000000
         C            2.018374376899    -0.551973577964    -0.117729762127    12.000000000000
         C            2.045162576899     0.727348722036     0.345099237873    12.000000000000
         H           -1.510735423101    -0.517565277964    -1.387266762127     1.007825032230
         H           -2.004949423101     1.577909722036     0.791468237873     1.007825032230
         H           -3.192639423101     1.031257722036    -0.413016762127     1.007825032230
         H           -1.742631423101     1.926626722036    -0.919182762127     1.007825032230
         H           -1.806719423101    -0.869721277964     1.636887237873     1.007825032230
         H           -1.391068423101    -2.154197277964     0.484464237873     1.007825032230
         H           -2.987692423101    -1.382002277964     0.415387237873     1.007825032230
         H            2.973798576899    -1.244606277964    -0.252564762127     1.007825032230
         H            2.820966576899     1.399982722036     0.682015237873     1.007825032230

  Basis Set: AUG-CC-PVTZ
    Blend: AUG-CC-PVTZ
  Basis Set: (AUG-CC-PVTZ AUX)
    Blend: AUG-CC-PVTZ-JKFIT
	 Reference Energy          =    -361.8492297652185243 [Eh]
	 Singles Energy            =      -0.0000000000000000 [Eh]
	 Same-Spin Energy          =      -0.3809964872089576 [Eh]
	 Opposite-Spin Energy      =      -1.2179088516218242 [Eh]
	 Correlation Energy        =      -1.5989053388307819 [Eh]
	 Total Energy              =    -363.4481351040492996 [Eh]

	 ================> DF-SCS-MP2 Energies <==================
	-----------------------------------------------------------
	 SCS Same-Spin Scale       =       0.3333333333333333 [-]
	 SCS Opposite-Spin Scale   =       1.2000000000000000 [-]
	 SCS Same-Spin Energy      =      -0.1269988290696525 [Eh]
	 SCS Opposite-Spin Energy  =      -1.4614906219461890 [Eh]
	 SCS Correlation Energy    =      -1.5884894510158414 [Eh]
	 SCS Total Energy          =    -363.4377192162343704 [Eh]
	-----------------------------------------------------------

  Dipole Moment: [D]
     X:    -0.0162      Y:    -1.3087      Z:    -0.4224     Total:     1.3753

*** Psi4 exiting successfully. Buy a developer a beer!
