                               Psi4 1.4a3.dev225

  ==> Input File <==

--------------------------------------------------------------------------
#psi4
#
memory 32 gb

molecule  {
0 1
  O        0.9636680    -1.0001680    -0.4301960
  N        0.7679840     1.1102310     0.3050190
  C       -1.3243600    -0.1423310    -0.3721570
  C        0.1381010     0.0595700    -0.1541750
  C       -2.0674230     1.1831610    -0.2295090
  C       -1.8648280    -1.2049810     0.5921130
  C        2.2187300    -0.5510310    -0.1110300
  C        2.1041050     0.7294570     0.3348460
  H       -1.4517930    -0.5154570    -1.3975200
  H       -1.9571195     1.5436961     0.6887097
  H       -3.1336970     1.0333660    -0.4232700
  H       -1.6836890     1.9287350    -0.9294360
  H       -1.7477770    -0.8676130     1.6266340
  H       -1.3321260    -2.1520890     0.4742110
  H       -2.9287500    -1.3798940     0.4051340
  H        3.0327410    -1.2424980    -0.2628180
  H        2.8799090     1.4020910     0.6717620
units angstrom
no_reorient  #important for SAPT in psi4, default
symmetry c1  #important for SAPT in psi4, default
}

set PROPERTIES_ORIGIN ["COM"]
properties('MP2/aug-cc-pvtz', properties = ['dipole'])
--------------------------------------------------------------------------

    Molecular point group: c1
  Charge       = 0
  Multiplicity = 1
  Basis Set: AUG-CC-PVTZ
    Blend: AUG-CC-PVTZ
  Basis Set: (AUG-CC-PVTZ AUX)
    Blend: AUG-CC-PVTZ-JKFIT

    Orbital Energies [Eh]
    ---------------------

    Doubly Occupied:

       1A    -20.633412     2A    -15.560194     3A    -11.334695
       4A    -11.290296     5A    -11.260097     6A    -11.250591
       7A    -11.225432     8A    -11.205054     9A     -1.475604
      10A     -1.225572    11A     -1.104840    12A     -1.007043
      13A     -0.945433    14A     -0.861879    15A     -0.827109
      16A     -0.773095    17A     -0.715123    18A     -0.662014
      19A     -0.636537    20A     -0.607479    21A     -0.601713
      22A     -0.571692    23A     -0.563428    24A     -0.547620
      25A     -0.506035    26A     -0.495105    27A     -0.489288
      28A     -0.455623    29A     -0.448283    30A     -0.331076

  @DF-RHF Final Energy:  -361.86816087627744

   => Energetics <=

    Nuclear Repulsion Energy =            372.7591155613479259
    One-Electron Energy =               -1230.0318297698381684
    Two-Electron Energy =                 495.4045533322127994
    Total Energy =                       -361.8681608762774431
  Basis Set: (AUG-CC-PVTZ AUX)
    Blend: AUG-CC-PVTZ-RI
    Molecular point group: c1

    Geometry (in Angstrom), charge = 0, multiplicity = 1:

       Center              X                  Y                   Z               Mass
    ------------   -----------------  -----------------  -----------------  -----------------
         O            0.889547914007    -1.001820752237    -0.420935005008    15.994914619570
         N            0.693863914007     1.108578247763     0.314279994992    14.003074004430
         C           -1.398480085993    -0.143983752237    -0.362896005008    12.000000000000
         C            0.063980914007     0.057917247763    -0.144914005008    12.000000000000
         C           -2.141543085993     1.181508247763    -0.220248005008    12.000000000000
         C           -1.938948085993    -1.206633752237     0.601373994992    12.000000000000
         C            2.144609914007    -0.552683752237    -0.101769005008    12.000000000000
         C            2.029984914007     0.727804247763     0.344106994992    12.000000000000
         H           -1.525913085993    -0.517109752237    -1.388259005008     1.007825032230
         H           -2.031239585993     1.542043347763     0.697970694992     1.007825032230
         H           -3.207817085993     1.031713247763    -0.414009005008     1.007825032230
         H           -1.757809085993     1.927082247763    -0.920175005008     1.007825032230
         H           -1.821897085993    -0.869265752237     1.635894994992     1.007825032230
         H           -1.406246085993    -2.153741752237     0.483471994992     1.007825032230
         H           -3.002870085993    -1.381546752237     0.414394994992     1.007825032230
         H            2.958620914007    -1.244150752237    -0.253557005008     1.007825032230
         H            2.805788914007     1.400438247763     0.681022994992     1.007825032230

  Basis Set: AUG-CC-PVTZ
    Blend: AUG-CC-PVTZ
  Basis Set: (AUG-CC-PVTZ AUX)
    Blend: AUG-CC-PVTZ-JKFIT
	 Reference Energy          =    -361.8681608762774431 [Eh]
	 Singles Energy            =      -0.0000000000000000 [Eh]
	 Same-Spin Energy          =      -0.3799656168125830 [Eh]
	 Opposite-Spin Energy      =      -1.2179217957386828 [Eh]
	 Correlation Energy        =      -1.5978874125512657 [Eh]
	 Total Energy              =    -363.4660482888286879 [Eh]

	 ================> DF-SCS-MP2 Energies <==================
	-----------------------------------------------------------
	 SCS Same-Spin Scale       =       0.3333333333333333 [-]
	 SCS Opposite-Spin Scale   =       1.2000000000000000 [-]
	 SCS Same-Spin Energy      =      -0.1266552056041943 [Eh]
	 SCS Opposite-Spin Energy  =      -1.4615061548864192 [Eh]
	 SCS Correlation Energy    =      -1.5881613604906135 [Eh]
	 SCS Total Energy          =    -363.4563222367680737 [Eh]
	-----------------------------------------------------------

  Dipole Moment: [D]
     X:     0.1663      Y:    -1.2402      Z:    -0.3418     Total:     1.2972

*** Psi4 exiting successfully. Buy a developer a beer!
