                               Psi4 1.4a3.dev225

  ==> Input File <==

--------------------------------------------------------------------------
#psi4
#
memory 32 gb

molecule  {
0 1
  O        0.9636680    -1.0001680    -0.4301960
  N        0.7679840     1.1102310     0.3050190
  C       -1.3243600    -0.1423310    -0.3721570
  C        0.2584969    -0.0949761    -0.1944283
  C       -2.0674230     1.1831610    -0.2295090
  C       -1.8648280    -1.2049810     0.5921130
  C        2.2187300    -0.5510310    -0.1110300
  C        2.1041050     0.7294570     0.3348460
  H       -1.4517930    -0.5154570    -1.3975200
  H       -1.9460070     1.5800180     0.7812150
  H       -3.1336970     1.0333660    -0.4232700
  H       -1.6836890     1.9287350    -0.9294360
  H       -1.7477770    -0.8676130     1.6266340
  H       -1.3321260    -2.1520890     0.4742110
  H       -2.9287500    -1.3798940     0.4051340
  H        3.0327410    -1.2424980    -0.2628180
  H        2.8799090     1.4020910     0.6717620
units angstrom
no_reorient  #important for SAPT in psi4, default
symmetry c1  #important for SAPT in psi4, default
}

set PROPERTIES_ORIGIN ["COM"]
properties('MP2/aug-cc-pvtz', properties = ['dipole'])
--------------------------------------------------------------------------

    Molecular point group: c1
  Charge       = 0
  Multiplicity = 1
  Basis Set: AUG-CC-PVTZ
    Blend: AUG-CC-PVTZ
  Basis Set: (AUG-CC-PVTZ AUX)
    Blend: AUG-CC-PVTZ-JKFIT

    Orbital Energies [Eh]
    ---------------------

    Doubly Occupied:

       1A    -20.669905     2A    -15.549674     3A    -11.340358
       4A    -11.281133     5A    -11.267139     6A    -11.253059
       7A    -11.222978     8A    -11.214732     9A     -1.584832
      10A     -1.208248    11A     -1.093691    12A     -1.020070
      13A     -0.935304    14A     -0.866520    15A     -0.831101
      16A     -0.801374    17A     -0.723627    18A     -0.710320
      19A     -0.637312    20A     -0.613806    21A     -0.601585
      22A     -0.577563    23A     -0.555229    24A     -0.538976
      25A     -0.494423    26A     -0.485664    27A     -0.464139
      28A     -0.451665    29A     -0.443802    30A     -0.325957

  @DF-RHF Final Energy:  -361.82671906499149

   => Energetics <=

    Nuclear Repulsion Energy =            373.6174837859159652
    One-Electron Energy =               -1231.3600328922600511
    Two-Electron Energy =                 495.9158300413525922
    Total Energy =                       -361.8267190649914937
  Basis Set: (AUG-CC-PVTZ AUX)
    Blend: AUG-CC-PVTZ-RI
    Molecular point group: c1

    Geometry (in Angstrom), charge = 0, multiplicity = 1:

       Center              X                  Y                   Z               Mass
    ------------   -----------------  -----------------  -----------------  -----------------
         O            0.876439324406    -0.985452938779    -0.417425362354    15.994914619570
         N            0.680755324406     1.124946061221     0.317789637646    14.003074004430
         C           -1.411588675594    -0.127615938779    -0.359386362354    12.000000000000
         C            0.171268224406    -0.080261038779    -0.181657662354    12.000000000000
         C           -2.154651675594     1.197876061221    -0.216738362354    12.000000000000
         C           -1.952056675594    -1.190265938779     0.604883637646    12.000000000000
         C            2.131501324406    -0.536315938779    -0.098259362354    12.000000000000
         C            2.016876324406     0.744172061221     0.347616637646    12.000000000000
         H           -1.539021675594    -0.500741938779    -1.384749362354     1.007825032230
         H           -2.033235675594     1.594733061221     0.793985637646     1.007825032230
         H           -3.220925675594     1.048081061221    -0.410499362354     1.007825032230
         H           -1.770917675594     1.943450061221    -0.916665362354     1.007825032230
         H           -1.835005675594    -0.852897938779     1.639404637646     1.007825032230
         H           -1.419354675594    -2.137373938779     0.486981637646     1.007825032230
         H           -3.015978675594    -1.365178938779     0.417904637646     1.007825032230
         H            2.945512324406    -1.227782938779    -0.250047362354     1.007825032230
         H            2.792680324406     1.416806061221     0.684532637646     1.007825032230

  Basis Set: AUG-CC-PVTZ
    Blend: AUG-CC-PVTZ
  Basis Set: (AUG-CC-PVTZ AUX)
    Blend: AUG-CC-PVTZ-JKFIT
	 Reference Energy          =    -361.8267190649914937 [Eh]
	 Singles Energy            =      -0.0000000000000000 [Eh]
	 Same-Spin Energy          =      -0.3792530278705702 [Eh]
	 Opposite-Spin Energy      =      -1.2155479471732717 [Eh]
	 Correlation Energy        =      -1.5948009750438419 [Eh]
	 Total Energy              =    -363.4215200400353183 [Eh]

	 ================> DF-SCS-MP2 Energies <==================
	-----------------------------------------------------------
	 SCS Same-Spin Scale       =       0.3333333333333333 [-]
	 SCS Opposite-Spin Scale   =       1.2000000000000000 [-]
	 SCS Same-Spin Energy      =      -0.1264176759568567 [Eh]
	 SCS Opposite-Spin Energy  =      -1.4586575366079260 [Eh]
	 SCS Correlation Energy    =      -1.5850752125647827 [Eh]
	 SCS Total Energy          =    -363.4117942775562824 [Eh]
	-----------------------------------------------------------

  Dipole Moment: [D]
     X:     0.4755      Y:    -1.6466      Z:    -0.5172     Total:     1.7902

*** Psi4 exiting successfully. Buy a developer a beer!
