                               Psi4 1.4a3.dev225

  ==> Input File <==

--------------------------------------------------------------------------
#psi4
#
memory 32 gb

molecule  {
0 1
  O        0.9636680    -1.0001680    -0.4301960
  N        0.7679840     1.1102310     0.3050190
  C       -1.3243600    -0.1423310    -0.3721570
  C        0.0177051     0.2141161    -0.1139217
  C       -2.0674230     1.1831610    -0.2295090
  C       -1.8648280    -1.2049810     0.5921130
  C        2.2187300    -0.5510310    -0.1110300
  C        2.1041050     0.7294570     0.3348460
  H       -1.4517930    -0.5154570    -1.3975200
  H       -1.9460070     1.5800180     0.7812150
  H       -3.1336970     1.0333660    -0.4232700
  H       -1.6836890     1.9287350    -0.9294360
  H       -1.7477770    -0.8676130     1.6266340
  H       -1.3321260    -2.1520890     0.4742110
  H       -2.9287500    -1.3798940     0.4051340
  H        3.0327410    -1.2424980    -0.2628180
  H        2.8799090     1.4020910     0.6717620
units angstrom
no_reorient  #important for SAPT in psi4, default
symmetry c1  #important for SAPT in psi4, default
}

set PROPERTIES_ORIGIN ["COM"]
properties('MP2/aug-cc-pvtz', properties = ['dipole'])
--------------------------------------------------------------------------

    Molecular point group: c1
  Charge       = 0
  Multiplicity = 1
  Basis Set: AUG-CC-PVTZ
    Blend: AUG-CC-PVTZ
  Basis Set: (AUG-CC-PVTZ AUX)
    Blend: AUG-CC-PVTZ-JKFIT

    Orbital Energies [Eh]
    ---------------------

    Doubly Occupied:

       1A    -20.589465     2A    -15.569413     3A    -11.335645
       4A    -11.293693     5A    -11.254302     6A    -11.253070
       7A    -11.229669     8A    -11.223691     9A     -1.407112
      10A     -1.239678    11A     -1.120527    12A     -1.001526
      13A     -0.945722    14A     -0.873509    15A     -0.818569
      16A     -0.742981    17A     -0.708587    18A     -0.656783
      19A     -0.622948    20A     -0.617903    21A     -0.595552
      22A     -0.560375    23A     -0.548083    24A     -0.542389
      25A     -0.516358    26A     -0.498680    27A     -0.492180
      28A     -0.455562    29A     -0.438695    30A     -0.327326

  @DF-RHF Final Energy:  -361.83794818323321

   => Energetics <=

    Nuclear Repulsion Energy =            371.5593150159113520
    One-Electron Energy =               -1227.8345396240188165
    Two-Electron Energy =                 494.4372764248742556
    Total Energy =                       -361.8379481832332090
  Basis Set: (AUG-CC-PVTZ AUX)
    Blend: AUG-CC-PVTZ-RI
    Molecular point group: c1

    Geometry (in Angstrom), charge = 0, multiplicity = 1:

       Center              X                  Y                   Z               Mass
    ------------   -----------------  -----------------  -----------------  -----------------
         O            0.902454835911    -1.018847729155    -0.426123417597    15.994914619570
         N            0.706770835911     1.091551270845     0.309091582403    14.003074004430
         C           -1.385573164089    -0.161010729155    -0.368084417597    12.000000000000
         C           -0.043508064089     0.195436370845    -0.109849117597    12.000000000000
         C           -2.128636164089     1.164481270845    -0.225436417597    12.000000000000
         C           -1.926041164089    -1.223660729155     0.596185582403    12.000000000000
         C            2.157516835911    -0.569710729155    -0.106957417597    12.000000000000
         C            2.042891835911     0.710777270845     0.338918582403    12.000000000000
         H           -1.513006164089    -0.534136729155    -1.393447417597     1.007825032230
         H           -2.007220164089     1.561338270845     0.785287582403     1.007825032230
         H           -3.194910164089     1.014686270845    -0.419197417597     1.007825032230
         H           -1.744902164089     1.910055270845    -0.925363417597     1.007825032230
         H           -1.808990164089    -0.886292729155     1.630706582403     1.007825032230
         H           -1.393339164089    -2.170768729155     0.478283582403     1.007825032230
         H           -2.989963164089    -1.398573729155     0.409206582403     1.007825032230
         H            2.971527835911    -1.261177729155    -0.258745417597     1.007825032230
         H            2.818695835911     1.383411270845     0.675834582403     1.007825032230

  Basis Set: AUG-CC-PVTZ
    Blend: AUG-CC-PVTZ
  Basis Set: (AUG-CC-PVTZ AUX)
    Blend: AUG-CC-PVTZ-JKFIT
	 Reference Energy          =    -361.8379481832332090 [Eh]
	 Singles Energy            =      -0.0000000000000000 [Eh]
	 Same-Spin Energy          =      -0.3826143456025302 [Eh]
	 Opposite-Spin Energy      =      -1.2238863812557164 [Eh]
	 Correlation Energy        =      -1.6065007268582465 [Eh]
	 Total Energy              =    -363.4444489100914666 [Eh]

	 ================> DF-SCS-MP2 Energies <==================
	-----------------------------------------------------------
	 SCS Same-Spin Scale       =       0.3333333333333333 [-]
	 SCS Opposite-Spin Scale   =       1.2000000000000000 [-]
	 SCS Same-Spin Energy      =      -0.1275381152008434 [Eh]
	 SCS Opposite-Spin Energy  =      -1.4686636575068597 [Eh]
	 SCS Correlation Energy    =      -1.5962017727077031 [Eh]
	 SCS Total Energy          =    -363.4341499559409385 [Eh]
	-----------------------------------------------------------

  Dipole Moment: [D]
     X:    -0.4492      Y:    -0.7654      Z:    -0.2261     Total:     0.9158

*** Psi4 exiting successfully. Buy a developer a beer!
