                               Psi4 1.4a3.dev225

  ==> Input File <==

--------------------------------------------------------------------------
#psi4
#
memory 32 gb

molecule  {
0 1
  O        0.9636680    -1.0001680    -0.4301960
  N        0.7679840     1.1102310     0.3050190
  C       -1.3243600    -0.1423310    -0.3721570
  C        0.1381010     0.0595700    -0.1541750
  C       -2.0674230     1.1831610    -0.2295090
  C       -1.8648280    -1.2049810     0.5921130
  C        2.2187300    -0.5510310    -0.1110300
  C        2.1041050     0.7294570     0.3348460
  H       -1.4749930    -0.5833871    -1.5841942
  H       -1.9460070     1.5800180     0.7812150
  H       -3.1336970     1.0333660    -0.4232700
  H       -1.6836890     1.9287350    -0.9294360
  H       -1.7477770    -0.8676130     1.6266340
  H       -1.3321260    -2.1520890     0.4742110
  H       -2.9287500    -1.3798940     0.4051340
  H        3.0327410    -1.2424980    -0.2628180
  H        2.8799090     1.4020910     0.6717620
units angstrom
no_reorient  #important for SAPT in psi4, default
symmetry c1  #important for SAPT in psi4, default
}

set PROPERTIES_ORIGIN ["COM"]
properties('MP2/aug-cc-pvtz', properties = ['dipole'])
--------------------------------------------------------------------------

    Molecular point group: c1
  Charge       = 0
  Multiplicity = 1
  Basis Set: AUG-CC-PVTZ
    Blend: AUG-CC-PVTZ
  Basis Set: (AUG-CC-PVTZ AUX)
    Blend: AUG-CC-PVTZ-JKFIT

    Orbital Energies [Eh]
    ---------------------

    Doubly Occupied:

       1A    -20.633694     2A    -15.561774     3A    -11.336581
       4A    -11.291293     5A    -11.273943     6A    -11.260807
       7A    -11.227566     8A    -11.219268     9A     -1.476002
      10A     -1.226639    11A     -1.099399    12A     -1.006273
      13A     -0.940671    14A     -0.855769    15A     -0.827202
      16A     -0.767698    17A     -0.702352    18A     -0.660415
      19A     -0.631333    20A     -0.606476    21A     -0.599365
      22A     -0.572000    23A     -0.559176    24A     -0.543008
      25A     -0.508138    26A     -0.493024    27A     -0.466976
      28A     -0.456549    29A     -0.448493    30A     -0.331038

  @DF-RHF Final Energy:  -361.85455037749313

   => Energetics <=

    Nuclear Repulsion Energy =            371.3850770058783723
    One-Electron Energy =               -1227.3134056423889433
    Two-Electron Energy =                 494.0737782590173879
    Total Energy =                       -361.8545503774931262
  Basis Set: (AUG-CC-PVTZ AUX)
    Blend: AUG-CC-PVTZ-RI
    Molecular point group: c1

    Geometry (in Angstrom), charge = 0, multiplicity = 1:

       Center              X                  Y                   Z               Mass
    ------------   -----------------  -----------------  -----------------  -----------------
         O            0.889657594921    -1.001533942206    -0.420080524681    15.994914619570
         N            0.693973594921     1.108865057794     0.315134475319    14.003074004430
         C           -1.398370405079    -0.143696942206    -0.362041524681    12.000000000000
         C            0.064090594921     0.058204057794    -0.144059524681    12.000000000000
         C           -2.141433405079     1.181795057794    -0.219393524681    12.000000000000
         C           -1.938838405079    -1.206346942206     0.602228475319    12.000000000000
         C            2.144719594921    -0.552396942206    -0.100914524681    12.000000000000
         C            2.030094594921     0.728091057794     0.344961475319    12.000000000000
         H           -1.549003405079    -0.584753042206    -1.574078724681     1.007825032230
         H           -2.020017405079     1.578652057794     0.791330475319     1.007825032230
         H           -3.207707405079     1.032000057794    -0.413154524681     1.007825032230
         H           -1.757699405079     1.927369057794    -0.919320524681     1.007825032230
         H           -1.821787405079    -0.868978942206     1.636749475319     1.007825032230
         H           -1.406136405079    -2.153454942206     0.484326475319     1.007825032230
         H           -3.002760405079    -1.381259942206     0.415249475319     1.007825032230
         H            2.958730594921    -1.243863942206    -0.252702524681     1.007825032230
         H            2.805898594921     1.400725057794     0.681877475319     1.007825032230

  Basis Set: AUG-CC-PVTZ
    Blend: AUG-CC-PVTZ
  Basis Set: (AUG-CC-PVTZ AUX)
    Blend: AUG-CC-PVTZ-JKFIT
	 Reference Energy          =    -361.8545503774931262 [Eh]
	 Singles Energy            =      -0.0000000000000000 [Eh]
	 Same-Spin Energy          =      -0.3802049383441968 [Eh]
	 Opposite-Spin Energy      =      -1.2202238946290245 [Eh]
	 Correlation Energy        =      -1.6004288329732212 [Eh]
	 Total Energy              =    -363.4549792104663197 [Eh]

	 ================> DF-SCS-MP2 Energies <==================
	-----------------------------------------------------------
	 SCS Same-Spin Scale       =       0.3333333333333333 [-]
	 SCS Opposite-Spin Scale   =       1.2000000000000000 [-]
	 SCS Same-Spin Energy      =      -0.1267349794480656 [Eh]
	 SCS Opposite-Spin Energy  =      -1.4642686735548294 [Eh]
	 SCS Correlation Energy    =      -1.5910036530028950 [Eh]
	 SCS Total Energy          =    -363.4455540304959982 [Eh]
	-----------------------------------------------------------

  Dipole Moment: [D]
     X:     0.2134      Y:    -1.2088      Z:    -0.2363     Total:     1.2500

*** Psi4 exiting successfully. Buy a developer a beer!
