                               Psi4 1.4a3.dev225

  ==> Input File <==

--------------------------------------------------------------------------
#psi4
#
memory 32 gb

molecule  {
0 1
  O        0.9636680    -1.0001680    -0.4301960
  N        0.7679840     1.1102310     0.3050190
  C       -1.3243600    -0.1423310    -0.3721570
  C        0.1381010     0.0595700    -0.1541750
  C       -2.0674230     1.1831610    -0.2295090
  C       -1.8648280    -1.2049810     0.5921130
  C        2.2187300    -0.5510310    -0.1110300
  C        2.1041050     0.7294570     0.3348460
  H       -1.4517930    -0.5154570    -1.3975200
  H       -1.9460070     1.5800180     0.7812150
  H       -3.0849659     1.0402120    -0.4144147
  H       -1.6836890     1.9287350    -0.9294360
  H       -1.7477770    -0.8676130     1.6266340
  H       -1.3321260    -2.1520890     0.4742110
  H       -2.9287500    -1.3798940     0.4051340
  H        3.0327410    -1.2424980    -0.2628180
  H        2.8799090     1.4020910     0.6717620
units angstrom
no_reorient  #important for SAPT in psi4, default
symmetry c1  #important for SAPT in psi4, default
}

set PROPERTIES_ORIGIN ["COM"]
properties('MP2/aug-cc-pvtz', properties = ['dipole'])
--------------------------------------------------------------------------

    Molecular point group: c1
  Charge       = 0
  Multiplicity = 1
  Basis Set: AUG-CC-PVTZ
    Blend: AUG-CC-PVTZ
  Basis Set: (AUG-CC-PVTZ AUX)
    Blend: AUG-CC-PVTZ-JKFIT

    Orbital Energies [Eh]
    ---------------------

    Doubly Occupied:

       1A    -20.633175     2A    -15.559751     3A    -11.334320
       4A    -11.290037     5A    -11.259799     6A    -11.251080
       7A    -11.225476     8A    -11.210940     9A     -1.475355
      10A     -1.225156    11A     -1.104004    12A     -1.006420
      13A     -0.941841    14A     -0.860604    15A     -0.826763
      16A     -0.772038    17A     -0.713160    18A     -0.661681
      19A     -0.637220    20A     -0.607284    21A     -0.599435
      22A     -0.571368    23A     -0.559858    24A     -0.545515
      25A     -0.509185    26A     -0.490699    27A     -0.489000
      28A     -0.454893    29A     -0.447917    30A     -0.330838

  @DF-RHF Final Energy:  -361.87331152430369

   => Energetics <=

    Nuclear Repulsion Energy =            372.5575163345538954
    One-Electron Energy =               -1229.6720264799748747
    Two-Electron Energy =                 495.2411986211173485
    Total Energy =                       -361.8733115243036877
  Basis Set: (AUG-CC-PVTZ AUX)
    Blend: AUG-CC-PVTZ-RI
    Molecular point group: c1

    Geometry (in Angstrom), charge = 0, multiplicity = 1:

       Center              X                  Y                   Z               Mass
    ------------   -----------------  -----------------  -----------------  -----------------
         O            0.889004898437    -1.002212453970    -0.421854742190    15.994914619570
         N            0.693320898437     1.108186546030     0.313360257810    14.003074004430
         C           -1.399023101563    -0.144375453970    -0.363815742190    12.000000000000
         C            0.063437898437     0.057525546030    -0.145833742190    12.000000000000
         C           -2.142086101563     1.181116546030    -0.221167742190    12.000000000000
         C           -1.939491101563    -1.207025453970     0.600454257810    12.000000000000
         C            2.144066898437    -0.553075453970    -0.102688742190    12.000000000000
         C            2.029441898437     0.727412546030     0.343187257810    12.000000000000
         H           -1.526456101563    -0.517501453970    -1.389178742190     1.007825032230
         H           -2.020670101563     1.577973546030     0.789556257810     1.007825032230
         H           -3.159629001563     1.038167546030    -0.406073442190     1.007825032230
         H           -1.758352101563     1.926690546030    -0.921094742190     1.007825032230
         H           -1.822440101563    -0.869657453970     1.634975257810     1.007825032230
         H           -1.406789101563    -2.154133453970     0.482552257810     1.007825032230
         H           -3.003413101563    -1.381938453970     0.413475257810     1.007825032230
         H            2.958077898437    -1.244542453970    -0.254476742190     1.007825032230
         H            2.805245898437     1.400046546030     0.680103257810     1.007825032230

  Basis Set: AUG-CC-PVTZ
    Blend: AUG-CC-PVTZ
  Basis Set: (AUG-CC-PVTZ AUX)
    Blend: AUG-CC-PVTZ-JKFIT
	 Reference Energy          =    -361.8733115243036877 [Eh]
	 Singles Energy            =      -0.0000000000000000 [Eh]
	 Same-Spin Energy          =      -0.3800014794176577 [Eh]
	 Opposite-Spin Energy      =      -1.2181424035743436 [Eh]
	 Correlation Energy        =      -1.5981438829920012 [Eh]
	 Total Energy              =    -363.4714554072957071 [Eh]

	 ================> DF-SCS-MP2 Energies <==================
	-----------------------------------------------------------
	 SCS Same-Spin Scale       =       0.3333333333333333 [-]
	 SCS Opposite-Spin Scale   =       1.2000000000000000 [-]
	 SCS Same-Spin Energy      =      -0.1266671598058859 [Eh]
	 SCS Opposite-Spin Energy  =      -1.4617708842892123 [Eh]
	 SCS Correlation Energy    =      -1.5884380440950983 [Eh]
	 SCS Total Energy          =    -363.4617495683987727 [Eh]
	-----------------------------------------------------------

  Dipole Moment: [D]
     X:     0.1392      Y:    -1.2541      Z:    -0.3772     Total:     1.3170

*** Psi4 exiting successfully. Buy a developer a beer!
