                               Psi4 1.4a3.dev225

  ==> Input File <==

--------------------------------------------------------------------------
#psi4
#
memory 32 gb

molecule  {
0 1
  O        0.9636680    -1.0001680    -0.4301960
  N        0.7679840     1.1102310     0.3050190
  C       -1.3243600    -0.1423310    -0.3721570
  C        0.1381010     0.0595700    -0.1541750
  C       -2.0674230     1.1831610    -0.2295090
  C       -1.8648280    -1.2049810     0.5921130
  C        2.2187300    -0.5510310    -0.1110300
  C        2.1041050     0.7294570     0.3348460
  H       -1.4517930    -0.5154570    -1.3975200
  H       -1.9460070     1.5800180     0.7812150
  H       -2.9387728     1.0607498    -0.3878488
  H       -1.6836890     1.9287350    -0.9294360
  H       -1.7477770    -0.8676130     1.6266340
  H       -1.3321260    -2.1520890     0.4742110
  H       -2.9287500    -1.3798940     0.4051340
  H        3.0327410    -1.2424980    -0.2628180
  H        2.8799090     1.4020910     0.6717620
units angstrom
no_reorient  #important for SAPT in psi4, default
symmetry c1  #important for SAPT in psi4, default
}

set PROPERTIES_ORIGIN ["COM"]
properties('MP2/aug-cc-pvtz', properties = ['dipole'])
--------------------------------------------------------------------------

    Molecular point group: c1
  Charge       = 0
  Multiplicity = 1
  Basis Set: AUG-CC-PVTZ
    Blend: AUG-CC-PVTZ
  Basis Set: (AUG-CC-PVTZ AUX)
    Blend: AUG-CC-PVTZ-JKFIT

    Orbital Energies [Eh]
    ---------------------

    Doubly Occupied:

       1A    -20.632471     2A    -15.558920     3A    -11.333389
       4A    -11.289412     5A    -11.259195     6A    -11.250071
       7A    -11.225545     8A    -11.192007     9A     -1.474670
      10A     -1.224380    11A     -1.106246    12A     -1.009118
      13A     -0.954044    14A     -0.865131    15A     -0.828143
      16A     -0.772766    17A     -0.712556    18A     -0.661839
      19A     -0.642795    20A     -0.607870    21A     -0.599401
      22A     -0.573307    23A     -0.570742    24A     -0.550181
      25A     -0.513502    26A     -0.489868    27A     -0.488199
      28A     -0.454111    29A     -0.447198    30A     -0.330213

  @DF-RHF Final Energy:  -361.84035839562830

   => Energetics <=

    Nuclear Repulsion Energy =            373.3645605706288961
    One-Electron Energy =               -1231.1752645679378020
    Two-Electron Energy =                 495.9703456016806058
    Total Energy =                       -361.8403583956283001
  Basis Set: (AUG-CC-PVTZ AUX)
    Blend: AUG-CC-PVTZ-RI
    Molecular point group: c1

    Geometry (in Angstrom), charge = 0, multiplicity = 1:

       Center              X                  Y                   Z               Mass
    ------------   -----------------  -----------------  -----------------  -----------------
         O            0.887678355089    -1.002398812163    -0.422095798833    15.994914619570
         N            0.691994355089     1.108000187837     0.313119201167    14.003074004430
         C           -1.400349644911    -0.144561812163    -0.364056798833    12.000000000000
         C            0.062111355089     0.057339187837    -0.146074798833    12.000000000000
         C           -2.143412644911     1.180930187837    -0.221408798833    12.000000000000
         C           -1.940817644911    -1.207211812163     0.600213201167    12.000000000000
         C            2.142740355089    -0.553261812163    -0.102929798833    12.000000000000
         C            2.028115355089     0.727226187837     0.342946201167    12.000000000000
         H           -1.527782644911    -0.517687812163    -1.389419798833     1.007825032230
         H           -2.021996644911     1.577787187837     0.789315201167     1.007825032230
         H           -3.014762444911     1.058518987837    -0.379748598833     1.007825032230
         H           -1.759678644911     1.926504187837    -0.921335798833     1.007825032230
         H           -1.823766644911    -0.869843812163     1.634734201167     1.007825032230
         H           -1.408115644911    -2.154319812163     0.482311201167     1.007825032230
         H           -3.004739644911    -1.382124812163     0.413234201167     1.007825032230
         H            2.956751355089    -1.244728812163    -0.254717798833     1.007825032230
         H            2.803919355089     1.399860187837     0.679862201167     1.007825032230

  Basis Set: AUG-CC-PVTZ
    Blend: AUG-CC-PVTZ
  Basis Set: (AUG-CC-PVTZ AUX)
    Blend: AUG-CC-PVTZ-JKFIT
	 Reference Energy          =    -361.8403583956283001 [Eh]
	 Singles Energy            =      -0.0000000000000000 [Eh]
	 Same-Spin Energy          =      -0.3801206657968604 [Eh]
	 Opposite-Spin Energy      =      -1.2177817807745592 [Eh]
	 Correlation Energy        =      -1.5979024465714196 [Eh]
	 Total Energy              =    -363.4382608421997247 [Eh]

	 ================> DF-SCS-MP2 Energies <==================
	-----------------------------------------------------------
	 SCS Same-Spin Scale       =       0.3333333333333333 [-]
	 SCS Opposite-Spin Scale   =       1.2000000000000000 [-]
	 SCS Same-Spin Energy      =      -0.1267068885989535 [Eh]
	 SCS Opposite-Spin Energy  =      -1.4613381369294711 [Eh]
	 SCS Correlation Energy    =      -1.5880450255284246 [Eh]
	 SCS Total Energy          =    -363.4284034211567018 [Eh]
	-----------------------------------------------------------

  Dipole Moment: [D]
     X:     0.0590      Y:    -1.2471      Z:    -0.3866     Total:     1.3070

*** Psi4 exiting successfully. Buy a developer a beer!
