                               Psi4 1.4a3.dev225

  ==> Input File <==

--------------------------------------------------------------------------
#psi4
#
memory 32 gb

molecule  {
0 1
  O        0.9636680    -1.0001680    -0.4301960
  N        0.7679840     1.1102310     0.3050190
  C       -1.3243600    -0.1423310    -0.3721570
  C        0.1381010     0.0595700    -0.1541750
  C       -2.0674230     1.1831610    -0.2295090
  C       -1.8648280    -1.2049810     0.5921130
  C        2.2187300    -0.5510310    -0.1110300
  C        2.1041050     0.7294570     0.3348460
  H       -1.4517930    -0.5154570    -1.3975200
  H       -1.9460070     1.5800180     0.7812150
  H       -3.1336970     1.0333660    -0.4232700
  H       -1.6661229     1.9628649    -0.9614763
  H       -1.7477770    -0.8676130     1.6266340
  H       -1.3321260    -2.1520890     0.4742110
  H       -2.9287500    -1.3798940     0.4051340
  H        3.0327410    -1.2424980    -0.2628180
  H        2.8799090     1.4020910     0.6717620
units angstrom
no_reorient  #important for SAPT in psi4, default
symmetry c1  #important for SAPT in psi4, default
}

set PROPERTIES_ORIGIN ["COM"]
properties('MP2/aug-cc-pvtz', properties = ['dipole'])
--------------------------------------------------------------------------

    Molecular point group: c1
  Charge       = 0
  Multiplicity = 1
  Basis Set: AUG-CC-PVTZ
    Blend: AUG-CC-PVTZ
  Basis Set: (AUG-CC-PVTZ AUX)
    Blend: AUG-CC-PVTZ-JKFIT

    Orbital Energies [Eh]
    ---------------------

    Doubly Occupied:

       1A    -20.633527     2A    -15.560071     3A    -11.334766
       4A    -11.290311     5A    -11.260051     6A    -11.252055
       7A    -11.225943     8A    -11.223168     9A     -1.475686
      10A     -1.225463    11A     -1.103524    12A     -1.005858
      13A     -0.936289    14A     -0.858906    15A     -0.826066
      16A     -0.771699    17A     -0.713331    18A     -0.661646
      19A     -0.636160    20A     -0.603544    21A     -0.599449
      22A     -0.571526    23A     -0.556799    24A     -0.542394
      25A     -0.506493    26A     -0.489980    27A     -0.486148
      28A     -0.455091    29A     -0.448213    30A     -0.331130

  @DF-RHF Final Energy:  -361.87215759555676

   => Energetics <=

    Nuclear Repulsion Energy =            372.1184753516757269
    One-Electron Energy =               -1228.8106912411587928
    Two-Electron Energy =                 494.8200582939263654
    Total Energy =                       -361.8721575955567573
  Basis Set: (AUG-CC-PVTZ AUX)
    Blend: AUG-CC-PVTZ-RI
    Molecular point group: c1

    Geometry (in Angstrom), charge = 0, multiplicity = 1:

       Center              X                  Y                   Z               Mass
    ------------   -----------------  -----------------  -----------------  -----------------
         O            0.889287686910    -1.002460025682    -0.421483659107    15.994914619570
         N            0.693603686910     1.107938974318     0.313731340893    14.003074004430
         C           -1.398740313090    -0.144623025682    -0.363444659107    12.000000000000
         C            0.063720686910     0.057277974318    -0.145462659107    12.000000000000
         C           -2.141803313090     1.180868974318    -0.220796659107    12.000000000000
         C           -1.939208313090    -1.207273025682     0.600825340893    12.000000000000
         C            2.144349686910    -0.553323025682    -0.102317659107    12.000000000000
         C            2.029724686910     0.727164974318     0.343558340893    12.000000000000
         H           -1.526173313090    -0.517749025682    -1.388807659107     1.007825032230
         H           -2.020387313090     1.577725974318     0.789927340893     1.007825032230
         H           -3.208077313090     1.031073974318    -0.414557659107     1.007825032230
         H           -1.740503213090     1.960572874318    -0.952763959107     1.007825032230
         H           -1.822157313090    -0.869905025682     1.635346340893     1.007825032230
         H           -1.406506313090    -2.154381025682     0.482923340893     1.007825032230
         H           -3.003130313090    -1.382186025682     0.413846340893     1.007825032230
         H            2.958360686910    -1.244790025682    -0.254105659107     1.007825032230
         H            2.805528686910     1.399798974318     0.680474340893     1.007825032230

  Basis Set: AUG-CC-PVTZ
    Blend: AUG-CC-PVTZ
  Basis Set: (AUG-CC-PVTZ AUX)
    Blend: AUG-CC-PVTZ-JKFIT
	 Reference Energy          =    -361.8721575955567573 [Eh]
	 Singles Energy            =      -0.0000000000000000 [Eh]
	 Same-Spin Energy          =      -0.3799985178630343 [Eh]
	 Opposite-Spin Energy      =      -1.2187828838551598 [Eh]
	 Correlation Energy        =      -1.5987814017181941 [Eh]
	 Total Energy              =    -363.4709389972749705 [Eh]

	 ================> DF-SCS-MP2 Energies <==================
	-----------------------------------------------------------
	 SCS Same-Spin Scale       =       0.3333333333333333 [-]
	 SCS Opposite-Spin Scale   =       1.2000000000000000 [-]
	 SCS Same-Spin Energy      =      -0.1266661726210114 [Eh]
	 SCS Opposite-Spin Energy  =      -1.4625394606261917 [Eh]
	 SCS Correlation Energy    =      -1.5892056332472031 [Eh]
	 SCS Total Energy          =    -363.4613632288039753 [Eh]
	-----------------------------------------------------------

  Dipole Moment: [D]
     X:     0.1736      Y:    -1.2808      Z:    -0.3554     Total:     1.3405

*** Psi4 exiting successfully. Buy a developer a beer!
