                               Psi4 1.4a3.dev225

  ==> Input File <==

--------------------------------------------------------------------------
#psi4
#
memory 32 gb

molecule  {
0 1
  O        0.9636680    -1.0001680    -0.4301960
  N        0.7679840     1.1102310     0.3050190
  C       -1.3243600    -0.1423310    -0.3721570
  C        0.1381010     0.0595700    -0.1541750
  C       -2.0674230     1.1831610    -0.2295090
  C       -1.8648280    -1.2049810     0.5921130
  C        2.0356006    -0.6165658    -0.1576004
  C        2.1041050     0.7294570     0.3348460
  H       -1.4517930    -0.5154570    -1.3975200
  H       -1.9460070     1.5800180     0.7812150
  H       -3.1336970     1.0333660    -0.4232700
  H       -1.6836890     1.9287350    -0.9294360
  H       -1.7477770    -0.8676130     1.6266340
  H       -1.3321260    -2.1520890     0.4742110
  H       -2.9287500    -1.3798940     0.4051340
  H        3.0327410    -1.2424980    -0.2628180
  H        2.8799090     1.4020910     0.6717620
units angstrom
no_reorient  #important for SAPT in psi4, default
symmetry c1  #important for SAPT in psi4, default
}

set PROPERTIES_ORIGIN ["COM"]
properties('MP2/aug-cc-pvtz', properties = ['dipole'])
--------------------------------------------------------------------------

    Molecular point group: c1
  Charge       = 0
  Multiplicity = 1
  Basis Set: AUG-CC-PVTZ
    Blend: AUG-CC-PVTZ
  Basis Set: (AUG-CC-PVTZ AUX)
    Blend: AUG-CC-PVTZ-JKFIT

    Orbital Energies [Eh]
    ---------------------

    Doubly Occupied:

       1A    -20.663843     2A    -15.568255     3A    -11.322757
       4A    -11.307395     5A    -11.250225     6A    -11.248993
       7A    -11.224473     8A    -11.216521     9A     -1.579570
      10A     -1.240259    11A     -1.103735    12A     -1.000721
      13A     -0.939270    14A     -0.871272    15A     -0.833829
      16A     -0.797971    17A     -0.727114    18A     -0.711105
      19A     -0.654352    20A     -0.613981    21A     -0.598485
      22A     -0.562299    23A     -0.542080    24A     -0.541189
      25A     -0.502586    26A     -0.492581    27A     -0.487889
      28A     -0.454853    29A     -0.452478    30A     -0.303349

  @DF-RHF Final Energy:  -361.81938344595579

   => Energetics <=

    Nuclear Repulsion Energy =            376.1307586985192302
    One-Electron Energy =               -1236.2734212340758404
    Two-Electron Energy =                 498.3232790896008169
    Total Energy =                       -361.8193834459557934
  Basis Set: (AUG-CC-PVTZ AUX)
    Blend: AUG-CC-PVTZ-RI
    Molecular point group: c1

    Geometry (in Angstrom), charge = 0, multiplicity = 1:

       Center              X                  Y                   Z               Mass
    ------------   -----------------  -----------------  -----------------  -----------------
         O            0.909232658457    -0.995069854718    -0.416742853283    15.994914619570
         N            0.713548658457     1.115329145282     0.318472146717    14.003074004430
         C           -1.378795341543    -0.137232854718    -0.358703853283    12.000000000000
         C            0.083665658457     0.064668145282    -0.140721853283    12.000000000000
         C           -2.121858341543     1.188259145282    -0.216055853283    12.000000000000
         C           -1.919263341543    -1.199882854718     0.605566146717    12.000000000000
         C            1.981165258457    -0.611467654718    -0.144147253283    12.000000000000
         C            2.049669658457     0.734555145282     0.348299146717    12.000000000000
         H           -1.506228341543    -0.510358854718    -1.384066853283     1.007825032230
         H           -2.000442341543     1.585116145282     0.794668146717     1.007825032230
         H           -3.188132341543     1.038464145282    -0.409816853283     1.007825032230
         H           -1.738124341543     1.933833145282    -0.915982853283     1.007825032230
         H           -1.802212341543    -0.862514854718     1.640087146717     1.007825032230
         H           -1.386561341543    -2.146990854718     0.487664146717     1.007825032230
         H           -2.983185341543    -1.374795854718     0.418587146717     1.007825032230
         H            2.978305658457    -1.237399854718    -0.249364853283     1.007825032230
         H            2.825473658457     1.407189145282     0.685215146717     1.007825032230

  Basis Set: AUG-CC-PVTZ
    Blend: AUG-CC-PVTZ
  Basis Set: (AUG-CC-PVTZ AUX)
    Blend: AUG-CC-PVTZ-JKFIT
	 Reference Energy          =    -361.8193834459557934 [Eh]
	 Singles Energy            =      -0.0000000000000000 [Eh]
	 Same-Spin Energy          =      -0.3824991112331192 [Eh]
	 Opposite-Spin Energy      =      -1.2190057671725536 [Eh]
	 Correlation Energy        =      -1.6015048784056729 [Eh]
	 Total Energy              =    -363.4208883243614423 [Eh]

	 ================> DF-SCS-MP2 Energies <==================
	-----------------------------------------------------------
	 SCS Same-Spin Scale       =       0.3333333333333333 [-]
	 SCS Opposite-Spin Scale   =       1.2000000000000000 [-]
	 SCS Same-Spin Energy      =      -0.1274997037443731 [Eh]
	 SCS Opposite-Spin Energy  =      -1.4628069206070642 [Eh]
	 SCS Correlation Energy    =      -1.5903066243514372 [Eh]
	 SCS Total Energy          =    -363.4096900703072492 [Eh]
	-----------------------------------------------------------

  Dipole Moment: [D]
     X:    -0.1027      Y:    -1.4629      Z:    -0.4952     Total:     1.5478

*** Psi4 exiting successfully. Buy a developer a beer!
