                               Psi4 1.4a3.dev225

  ==> Input File <==

--------------------------------------------------------------------------
#psi4
#
memory 32 gb

molecule  {
0 1
  O        0.9636680    -1.0001680    -0.4301960
  N        0.7679840     1.1102310     0.3050190
  C       -1.3243600    -0.1423310    -0.3721570
  C        0.1381010     0.0595700    -0.1541750
  C       -2.0674230     1.1831610    -0.2295090
  C       -1.8648280    -1.2049810     0.5921130
  C        2.2187300    -0.5510310    -0.1110300
  C        2.1041050     0.7294570     0.3348460
  H       -1.4517930    -0.5154570    -1.3975200
  H       -1.9460070     1.5800180     0.7812150
  H       -3.1336970     1.0333660    -0.4232700
  H       -1.6134247     2.0652546    -1.0575973
  H       -1.7477770    -0.8676130     1.6266340
  H       -1.3321260    -2.1520890     0.4742110
  H       -2.9287500    -1.3798940     0.4051340
  H        3.0327410    -1.2424980    -0.2628180
  H        2.8799090     1.4020910     0.6717620
units angstrom
no_reorient  #important for SAPT in psi4, default
symmetry c1  #important for SAPT in psi4, default
}

set PROPERTIES_ORIGIN ["COM"]
properties('MP2/aug-cc-pvtz', properties = ['dipole'])
--------------------------------------------------------------------------

    Molecular point group: c1
  Charge       = 0
  Multiplicity = 1
  Basis Set: AUG-CC-PVTZ
    Blend: AUG-CC-PVTZ
  Basis Set: (AUG-CC-PVTZ AUX)
    Blend: AUG-CC-PVTZ-JKFIT

    Orbital Energies [Eh]
    ---------------------

    Doubly Occupied:

       1A    -20.633727     2A    -15.559998     3A    -11.334955
       4A    -11.290358     5A    -11.260054     6A    -11.253959
       7A    -11.239864     8A    -11.227682     9A     -1.475839
      10A     -1.225422    11A     -1.103785    12A     -1.005818
      13A     -0.931166    14A     -0.858031    15A     -0.825490
      16A     -0.771389    17A     -0.713435    18A     -0.661486
      19A     -0.636815    20A     -0.600743    21A     -0.595001
      22A     -0.571342    23A     -0.553823    24A     -0.544677
      25A     -0.507755    26A     -0.491907    27A     -0.468114
      28A     -0.453945    29A     -0.448171    30A     -0.331230

  @DF-RHF Final Energy:  -361.85396450170282

   => Energetics <=

    Nuclear Repulsion Energy =            371.5683488398446457
    One-Electron Energy =               -1227.6926703560538954
    Two-Electron Energy =                 494.2703570145063736
    Total Energy =                       -361.8539645017028192
  Basis Set: (AUG-CC-PVTZ AUX)
    Blend: AUG-CC-PVTZ-RI
    Molecular point group: c1

    Geometry (in Angstrom), charge = 0, multiplicity = 1:

       Center              X                  Y                   Z               Mass
    ------------   -----------------  -----------------  -----------------  -----------------
         O            0.888809508072    -1.003389100826    -0.420611465596    15.994914619570
         N            0.693125508072     1.107009899174     0.314603534404    14.003074004430
         C           -1.399218491928    -0.145552100826    -0.362572465596    12.000000000000
         C            0.063242508072     0.056348899174    -0.144590465596    12.000000000000
         C           -2.142281491928     1.179939899174    -0.219924465596    12.000000000000
         C           -1.939686491928    -1.208202100826     0.601697534404    12.000000000000
         C            2.143871508072    -0.554252100826    -0.101445465596    12.000000000000
         C            2.029246508072     0.726235899174     0.344430534404    12.000000000000
         H           -1.526651491928    -0.518678100826    -1.387935465596     1.007825032230
         H           -2.020865491928     1.576796899174     0.790799534404     1.007825032230
         H           -3.208555491928     1.030144899174    -0.413685465596     1.007825032230
         H           -1.688283191928     2.062033499174    -1.048012765596     1.007825032230
         H           -1.822635491928    -0.870834100826     1.636218534404     1.007825032230
         H           -1.406984491928    -2.155310100826     0.483795534404     1.007825032230
         H           -3.003608491928    -1.383115100826     0.414718534404     1.007825032230
         H            2.957882508072    -1.245719100826    -0.253233465596     1.007825032230
         H            2.805050508072     1.398869899174     0.681346534404     1.007825032230

  Basis Set: AUG-CC-PVTZ
    Blend: AUG-CC-PVTZ
  Basis Set: (AUG-CC-PVTZ AUX)
    Blend: AUG-CC-PVTZ-JKFIT
	 Reference Energy          =    -361.8539645017028192 [Eh]
	 Singles Energy            =      -0.0000000000000000 [Eh]
	 Same-Spin Energy          =      -0.3800377880534639 [Eh]
	 Opposite-Spin Energy      =      -1.2200941826678813 [Eh]
	 Correlation Energy        =      -1.6001319707213453 [Eh]
	 Total Energy              =    -363.4540964724241690 [Eh]

	 ================> DF-SCS-MP2 Energies <==================
	-----------------------------------------------------------
	 SCS Same-Spin Scale       =       0.3333333333333333 [-]
	 SCS Opposite-Spin Scale   =       1.2000000000000000 [-]
	 SCS Same-Spin Energy      =      -0.1266792626844880 [Eh]
	 SCS Opposite-Spin Energy  =      -1.4641130192014575 [Eh]
	 SCS Correlation Energy    =      -1.5907922818859455 [Eh]
	 SCS Total Energy          =    -363.4447567835887867 [Eh]
	-----------------------------------------------------------

  Dipole Moment: [D]
     X:     0.1662      Y:    -1.3694      Z:    -0.2906     Total:     1.4097

*** Psi4 exiting successfully. Buy a developer a beer!
