                               Psi4 1.4a3.dev225

  ==> Input File <==

--------------------------------------------------------------------------
#psi4
#
memory 32 gb

molecule  {
0 1
  O        1.0727798    -0.9158164    -0.3903741
  N        0.7679840     1.1102310     0.3050190
  C       -1.3243600    -0.1423310    -0.3721570
  C        0.1381010     0.0595700    -0.1541750
  C       -2.0674230     1.1831610    -0.2295090
  C       -1.8648280    -1.2049810     0.5921130
  C        2.2187300    -0.5510310    -0.1110300
  C        2.1041050     0.7294570     0.3348460
  H       -1.4517930    -0.5154570    -1.3975200
  H       -1.9460070     1.5800180     0.7812150
  H       -3.1336970     1.0333660    -0.4232700
  H       -1.6836890     1.9287350    -0.9294360
  H       -1.7477770    -0.8676130     1.6266340
  H       -1.3321260    -2.1520890     0.4742110
  H       -2.9287500    -1.3798940     0.4051340
  H        3.0327410    -1.2424980    -0.2628180
  H        2.8799090     1.4020910     0.6717620
units angstrom
no_reorient  #important for SAPT in psi4, default
symmetry c1  #important for SAPT in psi4, default
}

set PROPERTIES_ORIGIN ["COM"]
properties('MP2/aug-cc-pvtz', properties = ['dipole'])
--------------------------------------------------------------------------

    Molecular point group: c1
  Charge       = 0
  Multiplicity = 1
  Basis Set: AUG-CC-PVTZ
    Blend: AUG-CC-PVTZ
  Basis Set: (AUG-CC-PVTZ AUX)
    Blend: AUG-CC-PVTZ-JKFIT

    Orbital Energies [Eh]
    ---------------------

    Doubly Occupied:

       1A    -20.633567     2A    -15.559201     3A    -11.327660
       4A    -11.283058     5A    -11.256103     6A    -11.241951
       7A    -11.226890     8A    -11.219723     9A     -1.528394
      10A     -1.224993    11A     -1.105709    12A     -1.015268
      13A     -0.941134    14A     -0.861994    15A     -0.840325
      16A     -0.776702    17A     -0.730255    18A     -0.685382
      19A     -0.651680    20A     -0.614473    21A     -0.594815
      22A     -0.561252    23A     -0.548097    24A     -0.542248
      25A     -0.512388    26A     -0.494264    27A     -0.490932
      28A     -0.454108    29A     -0.442490    30A     -0.320485

  @DF-RHF Final Energy:  -361.85793764917844

   => Energetics <=

    Nuclear Repulsion Energy =            374.9295377981648585
    One-Electron Energy =               -1234.2038691657678555
    Two-Electron Energy =                 497.4163937184246151
    Total Energy =                       -361.8579376491784387
  Basis Set: (AUG-CC-PVTZ AUX)
    Blend: AUG-CC-PVTZ-RI
    Molecular point group: c1

    Geometry (in Angstrom), charge = 0, multiplicity = 1:

       Center              X                  Y                   Z               Mass
    ------------   -----------------  -----------------  -----------------  -----------------
         O            0.982845736669    -0.929946171681    -0.387687224704    15.994914619570
         N            0.678049936669     1.096101228319     0.307705875296    14.003074004430
         C           -1.414294063331    -0.156460771681    -0.369470124704    12.000000000000
         C            0.048166936669     0.045440228319    -0.151488124704    12.000000000000
         C           -2.157357063331     1.169031228319    -0.226822124704    12.000000000000
         C           -1.954762063331    -1.219110771681     0.594799875296    12.000000000000
         C            2.128795936669    -0.565160771681    -0.108343124704    12.000000000000
         C            2.014170936669     0.715327228319     0.337532875296    12.000000000000
         H           -1.541727063331    -0.529586771681    -1.394833124704     1.007825032230
         H           -2.035941063331     1.565888228319     0.783901875296     1.007825032230
         H           -3.223631063331     1.019236228319    -0.420583124704     1.007825032230
         H           -1.773623063331     1.914605228319    -0.926749124704     1.007825032230
         H           -1.837711063331    -0.881742771681     1.629320875296     1.007825032230
         H           -1.422060063331    -2.166218771681     0.476897875296     1.007825032230
         H           -3.018684063331    -1.394023771681     0.407820875296     1.007825032230
         H            2.942806936669    -1.256627771681    -0.260131124704     1.007825032230
         H            2.789974936669     1.387961228319     0.674448875296     1.007825032230

  Basis Set: AUG-CC-PVTZ
    Blend: AUG-CC-PVTZ
  Basis Set: (AUG-CC-PVTZ AUX)
    Blend: AUG-CC-PVTZ-JKFIT
	 Reference Energy          =    -361.8579376491784387 [Eh]
	 Singles Energy            =      -0.0000000000000000 [Eh]
	 Same-Spin Energy          =      -0.3805350415224278 [Eh]
	 Opposite-Spin Energy      =      -1.2153787016976123 [Eh]
	 Correlation Energy        =      -1.5959137432200401 [Eh]
	 Total Energy              =    -363.4538513923984624 [Eh]

	 ================> DF-SCS-MP2 Energies <==================
	-----------------------------------------------------------
	 SCS Same-Spin Scale       =       0.3333333333333333 [-]
	 SCS Opposite-Spin Scale   =       1.2000000000000000 [-]
	 SCS Same-Spin Energy      =      -0.1268450138408093 [Eh]
	 SCS Opposite-Spin Energy  =      -1.4584544420371348 [Eh]
	 SCS Correlation Energy    =      -1.5852994558779441 [Eh]
	 SCS Total Energy          =    -363.4432371050563688 [Eh]
	-----------------------------------------------------------

  Dipole Moment: [D]
     X:    -0.1331      Y:    -1.6111      Z:    -0.5363     Total:     1.7032

*** Psi4 exiting successfully. Buy a developer a beer!
