                               Psi4 1.4a3.dev225

  ==> Input File <==

--------------------------------------------------------------------------
#psi4
#
memory 32 gb

molecule  {
0 1
  O        0.9636680    -1.0001680    -0.4301960
  N        0.6453131     1.1701143     0.3158543
  C       -1.3243600    -0.1423310    -0.3721570
  C        0.1381010     0.0595700    -0.1541750
  C       -2.0674230     1.1831610    -0.2295090
  C       -1.8648280    -1.2049810     0.5921130
  C        2.2187300    -0.5510310    -0.1110300
  C        2.1041050     0.7294570     0.3348460
  H       -1.4517930    -0.5154570    -1.3975200
  H       -1.9460070     1.5800180     0.7812150
  H       -3.1336970     1.0333660    -0.4232700
  H       -1.6836890     1.9287350    -0.9294360
  H       -1.7477770    -0.8676130     1.6266340
  H       -1.3321260    -2.1520890     0.4742110
  H       -2.9287500    -1.3798940     0.4051340
  H        3.0327410    -1.2424980    -0.2628180
  H        2.8799090     1.4020910     0.6717620
units angstrom
no_reorient  #important for SAPT in psi4, default
symmetry c1  #important for SAPT in psi4, default
}

set PROPERTIES_ORIGIN ["COM"]
properties('MP2/aug-cc-pvtz', properties = ['dipole'])
--------------------------------------------------------------------------

    Molecular point group: c1
  Charge       = 0
  Multiplicity = 1
  Basis Set: AUG-CC-PVTZ
    Blend: AUG-CC-PVTZ
  Basis Set: (AUG-CC-PVTZ AUX)
    Blend: AUG-CC-PVTZ-JKFIT

    Orbital Energies [Eh]
    ---------------------

    Doubly Occupied:

       1A    -20.635061     2A    -15.574403     3A    -11.338131
       4A    -11.298802     5A    -11.271489     6A    -11.246979
       7A    -11.223795     8A    -11.214098     9A     -1.474628
      10A     -1.208671    11A     -1.097381    12A     -1.008533
      13A     -0.936723    14A     -0.861597    15A     -0.823954
      16A     -0.757792    17A     -0.711722    18A     -0.661400
      19A     -0.636617    20A     -0.606409    21A     -0.584268
      22A     -0.573017    23A     -0.553753    24A     -0.540529
      25A     -0.501292    26A     -0.488867    27A     -0.484035
      28A     -0.464380    29A     -0.436170    30A     -0.343838

  @DF-RHF Final Energy:  -361.85807674127761

   => Energetics <=

    Nuclear Repulsion Energy =            370.6988207863495290
    One-Electron Energy =               -1225.9971261362177302
    Two-Electron Energy =                 493.4402286085905871
    Total Energy =                       -361.8580767412776140
  Basis Set: (AUG-CC-PVTZ AUX)
    Blend: AUG-CC-PVTZ-RI
    Molecular point group: c1

    Geometry (in Angstrom), charge = 0, multiplicity = 1:

       Center              X                  Y                   Z               Mass
    ------------   -----------------  -----------------  -----------------  -----------------
         O            0.904912950520    -1.009700187719    -0.423140462492    15.994914619570
         N            0.586558050520     1.160582112281     0.322909837508    14.003074004430
         C           -1.383115049480    -0.151863187719    -0.365101462492    12.000000000000
         C            0.079345950520     0.050037812281    -0.147119462492    12.000000000000
         C           -2.126178049480     1.173628812281    -0.222453462492    12.000000000000
         C           -1.923583049480    -1.214513187719     0.599168537508    12.000000000000
         C            2.159974950520    -0.560563187719    -0.103974462492    12.000000000000
         C            2.045349950520     0.719924812281     0.341901537508    12.000000000000
         H           -1.510548049480    -0.524989187719    -1.390464462492     1.007825032230
         H           -2.004762049480     1.570485812281     0.788270537508     1.007825032230
         H           -3.192452049480     1.023833812281    -0.416214462492     1.007825032230
         H           -1.742444049480     1.919202812281    -0.922380462492     1.007825032230
         H           -1.806532049480    -0.877145187719     1.633689537508     1.007825032230
         H           -1.390881049480    -2.161621187719     0.481266537508     1.007825032230
         H           -2.987505049480    -1.389426187719     0.412189537508     1.007825032230
         H            2.973985950520    -1.252030187719    -0.255762462492     1.007825032230
         H            2.821153950520     1.392558812281     0.678817537508     1.007825032230

  Basis Set: AUG-CC-PVTZ
    Blend: AUG-CC-PVTZ
  Basis Set: (AUG-CC-PVTZ AUX)
    Blend: AUG-CC-PVTZ-JKFIT
	 Reference Energy          =    -361.8580767412776140 [Eh]
	 Singles Energy            =      -0.0000000000000000 [Eh]
	 Same-Spin Energy          =      -0.3794161270107782 [Eh]
	 Opposite-Spin Energy      =      -1.2213148644901719 [Eh]
	 Correlation Energy        =      -1.6007309915009502 [Eh]
	 Total Energy              =    -363.4588077327785527 [Eh]

	 ================> DF-SCS-MP2 Energies <==================
	-----------------------------------------------------------
	 SCS Same-Spin Scale       =       0.3333333333333333 [-]
	 SCS Opposite-Spin Scale   =       1.2000000000000000 [-]
	 SCS Same-Spin Energy      =      -0.1264720423369260 [Eh]
	 SCS Opposite-Spin Energy  =      -1.4655778373882062 [Eh]
	 SCS Correlation Energy    =      -1.5920498797251323 [Eh]
	 SCS Total Energy          =    -363.4501266210027666 [Eh]
	-----------------------------------------------------------

  Dipole Moment: [D]
     X:     0.3959      Y:    -1.3513      Z:    -0.3908     Total:     1.4613

*** Psi4 exiting successfully. Buy a developer a beer!
