                               Psi4 1.4a3.dev225

  ==> Input File <==

--------------------------------------------------------------------------
#psi4
#
memory 32 gb

molecule  {
0 1
  O        0.9636680    -1.0001680    -0.4301960
  N        0.7679840     1.1102310     0.3050190
  C       -1.3243600    -0.1423310    -0.3721570
  C        0.1381010     0.0595700    -0.1541750
  C       -2.0674230     1.1831610    -0.2295090
  C       -1.8648280    -1.2049810     0.5921130
  C        2.2187300    -0.5510310    -0.1110300
  C        2.1041050     0.7294570     0.3348460
  H       -1.4517930    -0.5154570    -1.3975200
  H       -1.9460070     1.5800180     0.7812150
  H       -3.0362349     1.0470579    -0.4055594
  H       -1.6836890     1.9287350    -0.9294360
  H       -1.7477770    -0.8676130     1.6266340
  H       -1.3321260    -2.1520890     0.4742110
  H       -2.9287500    -1.3798940     0.4051340
  H        3.0327410    -1.2424980    -0.2628180
  H        2.8799090     1.4020910     0.6717620
units angstrom
no_reorient  #important for SAPT in psi4, default
symmetry c1  #important for SAPT in psi4, default
}

set PROPERTIES_ORIGIN ["COM"]
properties('MP2/aug-cc-pvtz', properties = ['dipole'])
--------------------------------------------------------------------------

    Molecular point group: c1
  Charge       = 0
  Multiplicity = 1
  Basis Set: AUG-CC-PVTZ
    Blend: AUG-CC-PVTZ
  Basis Set: (AUG-CC-PVTZ AUX)
    Blend: AUG-CC-PVTZ-JKFIT

    Orbital Energies [Eh]
    ---------------------

    Doubly Occupied:

       1A    -20.632901     2A    -15.559430     3A    -11.333955
       4A    -11.289794     5A    -11.259565     6A    -11.250679
       7A    -11.225489     8A    -11.204565     9A     -1.475088
      10A     -1.224854    11A     -1.104505    12A     -1.007011
      13A     -0.945277    14A     -0.861965    15A     -0.827201
      16A     -0.772220    17A     -0.712922    18A     -0.661613
      19A     -0.638720    20A     -0.607357    21A     -0.599379
      22A     -0.571124    23A     -0.563463    24A     -0.548068
      25A     -0.511122    26A     -0.490345    27A     -0.488680
      28A     -0.454590    29A     -0.447639    30A     -0.330594

  @DF-RHF Final Energy:  -361.86826444991419

   => Energetics <=

    Nuclear Repulsion Energy =            372.8078926920741765
    One-Electron Energy =               -1230.1520882542574782
    Two-Electron Energy =                 495.4759311122691656
    Total Energy =                       -361.8682644499141929
  Basis Set: (AUG-CC-PVTZ AUX)
    Blend: AUG-CC-PVTZ-RI
    Molecular point group: c1

    Geometry (in Angstrom), charge = 0, multiplicity = 1:

       Center              X                  Y                   Z               Mass
    ------------   -----------------  -----------------  -----------------  -----------------
         O            0.888562717624    -1.002274573065    -0.421935094404    15.994914619570
         N            0.692878717624     1.108124426935     0.313279905596    14.003074004430
         C           -1.399465282376    -0.144437573065    -0.363896094404    12.000000000000
         C            0.062995717624     0.057463426935    -0.145914094404    12.000000000000
         C           -2.142528282376     1.181054426935    -0.221248094404    12.000000000000
         C           -1.939933282376    -1.207087573065     0.600373905596    12.000000000000
         C            2.143624717624    -0.553137573065    -0.102769094404    12.000000000000
         C            2.028999717624     0.727350426935     0.343106905596    12.000000000000
         H           -1.526898282376    -0.517563573065    -1.389259094404     1.007825032230
         H           -2.021112282376     1.577911426935     0.789475905596     1.007825032230
         H           -3.111340182376     1.044951326935    -0.397298494404     1.007825032230
         H           -1.758794282376     1.926628426935    -0.921175094404     1.007825032230
         H           -1.822882282376    -0.869719573065     1.634894905596     1.007825032230
         H           -1.407231282376    -2.154195573065     0.482471905596     1.007825032230
         H           -3.003855282376    -1.382000573065     0.413394905596     1.007825032230
         H            2.957635717624    -1.244604573065    -0.254557094404     1.007825032230
         H            2.804803717624     1.399984426935     0.680022905596     1.007825032230

  Basis Set: AUG-CC-PVTZ
    Blend: AUG-CC-PVTZ
  Basis Set: (AUG-CC-PVTZ AUX)
    Blend: AUG-CC-PVTZ-JKFIT
	 Reference Energy          =    -361.8682644499141929 [Eh]
	 Singles Energy            =      -0.0000000000000000 [Eh]
	 Same-Spin Energy          =      -0.3800257748109858 [Eh]
	 Opposite-Spin Energy      =      -1.2179282463151169 [Eh]
	 Correlation Energy        =      -1.5979540211261027 [Eh]
	 Total Energy              =    -363.4662184710402926 [Eh]

	 ================> DF-SCS-MP2 Energies <==================
	-----------------------------------------------------------
	 SCS Same-Spin Scale       =       0.3333333333333333 [-]
	 SCS Opposite-Spin Scale   =       1.2000000000000000 [-]
	 SCS Same-Spin Energy      =      -0.1266752582703286 [Eh]
	 SCS Opposite-Spin Energy  =      -1.4615138955781402 [Eh]
	 SCS Correlation Energy    =      -1.5881891538484687 [Eh]
	 SCS Total Energy          =    -363.4564536037626681 [Eh]
	-----------------------------------------------------------

  Dipole Moment: [D]
     X:     0.1077      Y:    -1.2515      Z:    -0.3811     Total:     1.3127

*** Psi4 exiting successfully. Buy a developer a beer!
