                               Psi4 1.4a3.dev225

  ==> Input File <==

--------------------------------------------------------------------------
#psi4
#
memory 32 gb

molecule  {
0 1
  O        0.9730707    -1.0211804    -0.4367046
  N        0.7679840     1.1102310     0.3050190
  C       -1.3243600    -0.1423310    -0.3721570
  C        0.1381010     0.0595700    -0.1541750
  C       -2.0674230     1.1831610    -0.2295090
  C       -1.8648280    -1.2049810     0.5921130
  C        2.2187300    -0.5510310    -0.1110300
  C        2.1041050     0.7294570     0.3348460
  H       -1.4517930    -0.5154570    -1.3975200
  H       -1.9460070     1.5800180     0.7812150
  H       -3.1336970     1.0333660    -0.4232700
  H       -1.6836890     1.9287350    -0.9294360
  H       -1.7477770    -0.8676130     1.6266340
  H       -1.3321260    -2.1520890     0.4742110
  H       -2.9287500    -1.3798940     0.4051340
  H        3.0327410    -1.2424980    -0.2628180
  H        2.8799090     1.4020910     0.6717620
units angstrom
no_reorient  #important for SAPT in psi4, default
symmetry c1  #important for SAPT in psi4, default
}

set PROPERTIES_ORIGIN ["COM"]
properties('MP2/aug-cc-pvtz', properties = ['dipole'])
--------------------------------------------------------------------------

    Molecular point group: c1
  Charge       = 0
  Multiplicity = 1
  Basis Set: AUG-CC-PVTZ
    Blend: AUG-CC-PVTZ
  Basis Set: (AUG-CC-PVTZ AUX)
    Blend: AUG-CC-PVTZ-JKFIT

    Orbital Energies [Eh]
    ---------------------

    Doubly Occupied:

       1A    -20.632985     2A    -15.563120     3A    -11.336871
       4A    -11.290871     5A    -11.259972     6A    -11.252006
       7A    -11.225520     8A    -11.217657     9A     -1.467649
      10A     -1.227820    11A     -1.103207    12A     -1.003709
      13A     -0.939206    14A     -0.859471    15A     -0.824814
      16A     -0.770573    17A     -0.711903    18A     -0.658360
      19A     -0.633621    20A     -0.606412    21A     -0.599881
      22A     -0.572459    23A     -0.557853    24A     -0.542031
      25A     -0.506467    26A     -0.491529    27A     -0.489550
      28A     -0.457159    29A     -0.450197    30A     -0.330282

  @DF-RHF Final Energy:  -361.87207201766984

   => Energetics <=

    Nuclear Repulsion Energy =            371.6545639855316381
    One-Electron Energy =               -1227.8869665273978171
    Two-Electron Energy =                 494.3603305241962858
    Total Energy =                       -361.8720720176698364
  Basis Set: (AUG-CC-PVTZ AUX)
    Blend: AUG-CC-PVTZ-RI
    Molecular point group: c1

    Geometry (in Angstrom), charge = 0, multiplicity = 1:

       Center              X                  Y                   Z               Mass
    ------------   -----------------  -----------------  -----------------  -----------------
         O            0.897495701367    -1.020136747261    -0.427345689283    15.994914619570
         N            0.692409001367     1.111274652739     0.314377910717    14.003074004430
         C           -1.399934998633    -0.141287347261    -0.362798089283    12.000000000000
         C            0.062526001367     0.060613652739    -0.144816089283    12.000000000000
         C           -2.142997998633     1.184204652739    -0.220150089283    12.000000000000
         C           -1.940402998633    -1.203937347261     0.601471910717    12.000000000000
         C            2.143155001367    -0.549987347261    -0.101671089283    12.000000000000
         C            2.028530001367     0.730500652739     0.344204910717    12.000000000000
         H           -1.527367998633    -0.514413347261    -1.388161089283     1.007825032230
         H           -2.021581998633     1.581061652739     0.790573910717     1.007825032230
         H           -3.209271998633     1.034409652739    -0.413911089283     1.007825032230
         H           -1.759263998633     1.929778652739    -0.920077089283     1.007825032230
         H           -1.823351998633    -0.866569347261     1.635992910717     1.007825032230
         H           -1.407700998633    -2.151045347261     0.483569910717     1.007825032230
         H           -3.004324998633    -1.378850347261     0.414492910717     1.007825032230
         H            2.957166001367    -1.241454347261    -0.253459089283     1.007825032230
         H            2.804334001367     1.403134652739     0.681120910717     1.007825032230

  Basis Set: AUG-CC-PVTZ
    Blend: AUG-CC-PVTZ
  Basis Set: (AUG-CC-PVTZ AUX)
    Blend: AUG-CC-PVTZ-JKFIT
	 Reference Energy          =    -361.8720720176698364 [Eh]
	 Singles Energy            =      -0.0000000000000000 [Eh]
	 Same-Spin Energy          =      -0.3802711556892858 [Eh]
	 Opposite-Spin Energy      =      -1.2194804175874461 [Eh]
	 Correlation Energy        =      -1.5997515732767318 [Eh]
	 Total Energy              =    -363.4718235909465420 [Eh]

	 ================> DF-SCS-MP2 Energies <==================
	-----------------------------------------------------------
	 SCS Same-Spin Scale       =       0.3333333333333333 [-]
	 SCS Opposite-Spin Scale   =       1.2000000000000000 [-]
	 SCS Same-Spin Energy      =      -0.1267570518964286 [Eh]
	 SCS Opposite-Spin Energy  =      -1.4633765011049353 [Eh]
	 SCS Correlation Energy    =      -1.5901335530013638 [Eh]
	 SCS Total Energy          =    -363.4622055706711876 [Eh]
	-----------------------------------------------------------

  Dipole Moment: [D]
     X:     0.1402      Y:    -1.1861      Z:    -0.3505     Total:     1.2447

*** Psi4 exiting successfully. Buy a developer a beer!
