                               Psi4 1.4a3.dev225

  ==> Input File <==

--------------------------------------------------------------------------
#psi4
#
memory 32 gb

molecule  {
0 1
  O        0.9636680    -1.0001680    -0.4301960
  N        0.8074050     1.0876757     0.3002818
  C       -1.3243600    -0.1423310    -0.3721570
  C        0.1381010     0.0595700    -0.1541750
  C       -2.0674230     1.1831610    -0.2295090
  C       -1.8648280    -1.2049810     0.5921130
  C        2.2187300    -0.5510310    -0.1110300
  C        2.1041050     0.7294570     0.3348460
  H       -1.4517930    -0.5154570    -1.3975200
  H       -1.9460070     1.5800180     0.7812150
  H       -3.1336970     1.0333660    -0.4232700
  H       -1.6836890     1.9287350    -0.9294360
  H       -1.7477770    -0.8676130     1.6266340
  H       -1.3321260    -2.1520890     0.4742110
  H       -2.9287500    -1.3798940     0.4051340
  H        3.0327410    -1.2424980    -0.2628180
  H        2.8799090     1.4020910     0.6717620
units angstrom
no_reorient  #important for SAPT in psi4, default
symmetry c1  #important for SAPT in psi4, default
}

set PROPERTIES_ORIGIN ["COM"]
properties('MP2/aug-cc-pvtz', properties = ['dipole'])
--------------------------------------------------------------------------

    Molecular point group: c1
  Charge       = 0
  Multiplicity = 1
  Basis Set: AUG-CC-PVTZ
    Blend: AUG-CC-PVTZ
  Basis Set: (AUG-CC-PVTZ AUX)
    Blend: AUG-CC-PVTZ-JKFIT

    Orbital Energies [Eh]
    ---------------------

    Doubly Occupied:

       1A    -20.633144     2A    -15.554899     3A    -11.333502
       4A    -11.287476     5A    -11.255673     6A    -11.253015
       7A    -11.225937     8A    -11.218240     9A     -1.476584
      10A     -1.233395    11A     -1.105338    12A     -1.005359
      13A     -0.939756    14A     -0.858949    15A     -0.828664
      16A     -0.775888    17A     -0.714317    18A     -0.662396
      19A     -0.635866    20A     -0.607569    21A     -0.605600
      22A     -0.571418    23A     -0.559063    24A     -0.542443
      25A     -0.508208    26A     -0.491818    27A     -0.490598
      28A     -0.453391    29A     -0.449070    30A     -0.326486

  @DF-RHF Final Energy:  -361.87315168312631

   => Energetics <=

    Nuclear Repulsion Energy =            372.9751636379496631
    One-Electron Energy =               -1230.4885033920695605
    Two-Electron Energy =                 495.6401880709935881
    Total Energy =                       -361.8731516831263093
  Basis Set: (AUG-CC-PVTZ AUX)
    Blend: AUG-CC-PVTZ-RI
    Molecular point group: c1

    Geometry (in Angstrom), charge = 0, multiplicity = 1:

       Center              X                  Y                   Z               Mass
    ------------   -----------------  -----------------  -----------------  -----------------
         O            0.884477033672    -0.999306649395    -0.421177142209    15.994914619570
         N            0.728214033672     1.088537050605     0.309300657791    14.003074004430
         C           -1.403550966328    -0.141469649395    -0.363138142209    12.000000000000
         C            0.058910033672     0.060431350605    -0.145156142209    12.000000000000
         C           -2.146613966328     1.184022350605    -0.220490142209    12.000000000000
         C           -1.944018966328    -1.204119649395     0.601131857791    12.000000000000
         C            2.139539033672    -0.550169649395    -0.102011142209    12.000000000000
         C            2.024914033672     0.730318350605     0.343864857791    12.000000000000
         H           -1.530983966328    -0.514595649395    -1.388501142209     1.007825032230
         H           -2.025197966328     1.580879350605     0.790233857791     1.007825032230
         H           -3.212887966328     1.034227350605    -0.414251142209     1.007825032230
         H           -1.762879966328     1.929596350605    -0.920417142209     1.007825032230
         H           -1.826967966328    -0.866751649395     1.635652857791     1.007825032230
         H           -1.411316966328    -2.151227649395     0.483229857791     1.007825032230
         H           -3.007940966328    -1.379032649395     0.414152857791     1.007825032230
         H            2.953550033672    -1.241636649395    -0.253799142209     1.007825032230
         H            2.800718033672     1.402952350605     0.680780857791     1.007825032230

  Basis Set: AUG-CC-PVTZ
    Blend: AUG-CC-PVTZ
  Basis Set: (AUG-CC-PVTZ AUX)
    Blend: AUG-CC-PVTZ-JKFIT
	 Reference Energy          =    -361.8731516831263093 [Eh]
	 Singles Energy            =      -0.0000000000000000 [Eh]
	 Same-Spin Energy          =      -0.3805109251073535 [Eh]
	 Opposite-Spin Energy      =      -1.2180376991771302 [Eh]
	 Correlation Energy        =      -1.5985486242844837 [Eh]
	 Total Energy              =    -363.4717003074107993 [Eh]

	 ================> DF-SCS-MP2 Energies <==================
	-----------------------------------------------------------
	 SCS Same-Spin Scale       =       0.3333333333333333 [-]
	 SCS Opposite-Spin Scale   =       1.2000000000000000 [-]
	 SCS Same-Spin Energy      =      -0.1268369750357845 [Eh]
	 SCS Opposite-Spin Energy  =      -1.4616452390125563 [Eh]
	 SCS Correlation Energy    =      -1.5884822140483408 [Eh]
	 SCS Total Energy          =    -363.4616338971746359 [Eh]
	-----------------------------------------------------------

  Dipole Moment: [D]
     X:     0.1034      Y:    -1.2099      Z:    -0.3613     Total:     1.2669

*** Psi4 exiting successfully. Buy a developer a beer!
