                               Psi4 1.4a3.dev225

  ==> Input File <==

--------------------------------------------------------------------------
#psi4
#
memory 32 gb

molecule  {
0 1
  O        0.9460124    -0.9577392    -0.4168891
  N        0.7679840     1.1102310     0.3050190
  C       -1.3243600    -0.1423310    -0.3721570
  C        0.1381010     0.0595700    -0.1541750
  C       -2.0674230     1.1831610    -0.2295090
  C       -1.8648280    -1.2049810     0.5921130
  C        2.2187300    -0.5510310    -0.1110300
  C        2.1041050     0.7294570     0.3348460
  H       -1.4517930    -0.5154570    -1.3975200
  H       -1.9460070     1.5800180     0.7812150
  H       -3.1336970     1.0333660    -0.4232700
  H       -1.6836890     1.9287350    -0.9294360
  H       -1.7477770    -0.8676130     1.6266340
  H       -1.3321260    -2.1520890     0.4742110
  H       -2.9287500    -1.3798940     0.4051340
  H        3.0327410    -1.2424980    -0.2628180
  H        2.8799090     1.4020910     0.6717620
units angstrom
no_reorient  #important for SAPT in psi4, default
symmetry c1  #important for SAPT in psi4, default
}

set PROPERTIES_ORIGIN ["COM"]
properties('MP2/aug-cc-pvtz', properties = ['dipole'])
--------------------------------------------------------------------------

    Molecular point group: c1
  Charge       = 0
  Multiplicity = 1
  Basis Set: AUG-CC-PVTZ
    Blend: AUG-CC-PVTZ
  Basis Set: (AUG-CC-PVTZ AUX)
    Blend: AUG-CC-PVTZ-JKFIT

    Orbital Energies [Eh]
    ---------------------

    Doubly Occupied:

       1A    -20.634272     2A    -15.553894     3A    -11.330419
       4A    -11.289206     5A    -11.260230     6A    -11.250725
       7A    -11.225461     8A    -11.216443     9A     -1.492947
      10A     -1.220793    11A     -1.105001    12A     -1.011291
      13A     -0.938713    14A     -0.859754    15A     -0.829540
      16A     -0.774453    17A     -0.716797    18A     -0.669758
      19A     -0.640881    20A     -0.609114    21A     -0.598793
      22A     -0.569611    23A     -0.557671    24A     -0.541385
      25A     -0.505929    26A     -0.490425    27A     -0.488966
      28A     -0.451088    29A     -0.444212    30A     -0.332789

  @DF-RHF Final Energy:  -361.87593305965225

   => Energetics <=

    Nuclear Repulsion Energy =            373.6926063809846710
    One-Electron Energy =               -1231.9159597965365265
    Two-Electron Energy =                 496.3474203558996010
    Total Energy =                       -361.8759330596522545
  Basis Set: (AUG-CC-PVTZ AUX)
    Blend: AUG-CC-PVTZ-RI
    Molecular point group: c1

    Geometry (in Angstrom), charge = 0, multiplicity = 1:

       Center              X                  Y                   Z               Mass
    ------------   -----------------  -----------------  -----------------  -----------------
         O            0.874334055537    -0.965831687246    -0.410383810933    15.994914619570
         N            0.696305655537     1.102138512754     0.311524289067    14.003074004430
         C           -1.396038344463    -0.150423487246    -0.365651710933    12.000000000000
         C            0.066422655537     0.051477512754    -0.147669710933    12.000000000000
         C           -2.139101344463     1.175068512754    -0.223003710933    12.000000000000
         C           -1.936506344463    -1.213073487246     0.598618289067    12.000000000000
         C            2.147051655537    -0.559123487246    -0.104524710933    12.000000000000
         C            2.032426655537     0.721364512754     0.341351289067    12.000000000000
         H           -1.523471344463    -0.523549487246    -1.391014710933     1.007825032230
         H           -2.017685344463     1.571925512754     0.787720289067     1.007825032230
         H           -3.205375344463     1.025273512754    -0.416764710933     1.007825032230
         H           -1.755367344463     1.920642512754    -0.922930710933     1.007825032230
         H           -1.819455344463    -0.875705487246     1.633139289067     1.007825032230
         H           -1.403804344463    -2.160181487246     0.480716289067     1.007825032230
         H           -3.000428344463    -1.387986487246     0.411639289067     1.007825032230
         H            2.961062655537    -1.250590487246    -0.256312710933     1.007825032230
         H            2.808230655537     1.393998512754     0.678267289067     1.007825032230

  Basis Set: AUG-CC-PVTZ
    Blend: AUG-CC-PVTZ
  Basis Set: (AUG-CC-PVTZ AUX)
    Blend: AUG-CC-PVTZ-JKFIT
	 Reference Energy          =    -361.8759330596522545 [Eh]
	 Singles Energy            =      -0.0000000000000000 [Eh]
	 Same-Spin Energy          =      -0.3794856590439757 [Eh]
	 Opposite-Spin Energy      =      -1.2164553613662366 [Eh]
	 Correlation Energy        =      -1.5959410204102122 [Eh]
	 Total Energy              =    -363.4718740800624914 [Eh]

	 ================> DF-SCS-MP2 Energies <==================
	-----------------------------------------------------------
	 SCS Same-Spin Scale       =       0.3333333333333333 [-]
	 SCS Opposite-Spin Scale   =       1.2000000000000000 [-]
	 SCS Same-Spin Energy      =      -0.1264952196813252 [Eh]
	 SCS Opposite-Spin Energy  =      -1.4597464336394839 [Eh]
	 SCS Correlation Energy    =      -1.5862416533208090 [Eh]
	 SCS Total Energy          =    -363.4621747129730807 [Eh]
	-----------------------------------------------------------

  Dipole Moment: [D]
     X:     0.2357      Y:    -1.4006      Z:    -0.4181     Total:     1.4806

*** Psi4 exiting successfully. Buy a developer a beer!
