                               Psi4 1.4a3.dev225

  ==> Input File <==

--------------------------------------------------------------------------
#psi4
#
memory 32 gb

molecule  {
0 1
  O        0.9636680    -1.0001680    -0.4301960
  N        0.7679840     1.1102310     0.3050190
  C       -1.3243600    -0.1423310    -0.3721570
  C        0.1080020     0.0982065    -0.1441117
  C       -2.0674230     1.1831610    -0.2295090
  C       -1.8648280    -1.2049810     0.5921130
  C        2.2187300    -0.5510310    -0.1110300
  C        2.1041050     0.7294570     0.3348460
  H       -1.4517930    -0.5154570    -1.3975200
  H       -1.9460070     1.5800180     0.7812150
  H       -3.1336970     1.0333660    -0.4232700
  H       -1.6836890     1.9287350    -0.9294360
  H       -1.7477770    -0.8676130     1.6266340
  H       -1.3321260    -2.1520890     0.4742110
  H       -2.9287500    -1.3798940     0.4051340
  H        3.0327410    -1.2424980    -0.2628180
  H        2.8799090     1.4020910     0.6717620
units angstrom
no_reorient  #important for SAPT in psi4, default
symmetry c1  #important for SAPT in psi4, default
}

set PROPERTIES_ORIGIN ["COM"]
properties('MP2/aug-cc-pvtz', properties = ['dipole'])
--------------------------------------------------------------------------

    Molecular point group: c1
  Charge       = 0
  Multiplicity = 1
  Basis Set: AUG-CC-PVTZ
    Blend: AUG-CC-PVTZ
  Basis Set: (AUG-CC-PVTZ AUX)
    Blend: AUG-CC-PVTZ-JKFIT

    Orbital Energies [Eh]
    ---------------------

    Doubly Occupied:

       1A    -20.623598     2A    -15.562197     3A    -11.334127
       4A    -11.291783     5A    -11.258369     6A    -11.251654
       7A    -11.226369     8A    -11.218323     9A     -1.455640
      10A     -1.229655    11A     -1.107271    12A     -1.004267
      13A     -0.940330    14A     -0.862449    15A     -0.823098
      16A     -0.764721    17A     -0.711778    18A     -0.656654
      19A     -0.632986    20A     -0.607361    21A     -0.603248
      22A     -0.563902    23A     -0.558525    24A     -0.542841
      25A     -0.510258    26A     -0.492821    27A     -0.491184
      28A     -0.452863    29A     -0.450277    30A     -0.330931

  @DF-RHF Final Energy:  -361.87053754731949

   => Energetics <=

    Nuclear Repulsion Energy =            372.1040148944463795
    One-Electron Energy =               -1228.8301474855804827
    Two-Electron Energy =                 494.8555950438145601
    Total Energy =                       -361.8705375473194863
  Basis Set: (AUG-CC-PVTZ AUX)
    Blend: AUG-CC-PVTZ-RI
    Molecular point group: c1

    Geometry (in Angstrom), charge = 0, multiplicity = 1:

       Center              X                  Y                   Z               Mass
    ------------   -----------------  -----------------  -----------------  -----------------
         O            0.892699021798    -1.006324680063    -0.422861644180    15.994914619570
         N            0.697015021798     1.104074319937     0.312353355820    14.003074004430
         C           -1.395328978202    -0.148487680063    -0.364822644180    12.000000000000
         C            0.037033021798     0.092049819937    -0.136777344180    12.000000000000
         C           -2.138391978202     1.177004319937    -0.222174644180    12.000000000000
         C           -1.935796978202    -1.211137680063     0.599447355820    12.000000000000
         C            2.147761021798    -0.557187680063    -0.103695644180    12.000000000000
         C            2.033136021798     0.723300319937     0.342180355820    12.000000000000
         H           -1.522761978202    -0.521613680063    -1.390185644180     1.007825032230
         H           -2.016975978202     1.573861319937     0.788549355820     1.007825032230
         H           -3.204665978202     1.027209319937    -0.415935644180     1.007825032230
         H           -1.754657978202     1.922578319937    -0.922101644180     1.007825032230
         H           -1.818745978202    -0.873769680063     1.633968355820     1.007825032230
         H           -1.403094978202    -2.158245680063     0.481545355820     1.007825032230
         H           -2.999718978202    -1.386050680063     0.412468355820     1.007825032230
         H            2.961772021798    -1.248654680063    -0.255483644180     1.007825032230
         H            2.808940021798     1.395934319937     0.679096355820     1.007825032230

  Basis Set: AUG-CC-PVTZ
    Blend: AUG-CC-PVTZ
  Basis Set: (AUG-CC-PVTZ AUX)
    Blend: AUG-CC-PVTZ-JKFIT
	 Reference Energy          =    -361.8705375473194863 [Eh]
	 Singles Energy            =      -0.0000000000000000 [Eh]
	 Same-Spin Energy          =      -0.3803878514339519 [Eh]
	 Opposite-Spin Energy      =      -1.2195365423561140 [Eh]
	 Correlation Energy        =      -1.5999243937900660 [Eh]
	 Total Energy              =    -363.4704619411095337 [Eh]

	 ================> DF-SCS-MP2 Energies <==================
	-----------------------------------------------------------
	 SCS Same-Spin Scale       =       0.3333333333333333 [-]
	 SCS Opposite-Spin Scale   =       1.2000000000000000 [-]
	 SCS Same-Spin Energy      =      -0.1267959504779840 [Eh]
	 SCS Opposite-Spin Energy  =      -1.4634438508273366 [Eh]
	 SCS Correlation Energy    =      -1.5902398013053205 [Eh]
	 SCS Total Energy          =    -363.4607773486247879 [Eh]
	-----------------------------------------------------------

  Dipole Moment: [D]
     X:     0.0470      Y:    -1.1515      Z:    -0.3387     Total:     1.2012

*** Psi4 exiting successfully. Buy a developer a beer!
