                               Psi4 1.4a3.dev225

  ==> Input File <==

--------------------------------------------------------------------------
#psi4
#
memory 32 gb

molecule  {
0 1
  O        0.9636680    -1.0001680    -0.4301960
  N        0.8460106     1.0638679     0.2949909
  C       -1.3243600    -0.1423310    -0.3721570
  C        0.1381010     0.0595700    -0.1541750
  C       -2.0674230     1.1831610    -0.2295090
  C       -1.8648280    -1.2049810     0.5921130
  C        2.2187300    -0.5510310    -0.1110300
  C        2.1041050     0.7294570     0.3348460
  H       -1.4517930    -0.5154570    -1.3975200
  H       -1.9460070     1.5800180     0.7812150
  H       -3.1336970     1.0333660    -0.4232700
  H       -1.6836890     1.9287350    -0.9294360
  H       -1.7477770    -0.8676130     1.6266340
  H       -1.3321260    -2.1520890     0.4742110
  H       -2.9287500    -1.3798940     0.4051340
  H        3.0327410    -1.2424980    -0.2628180
  H        2.8799090     1.4020910     0.6717620
units angstrom
no_reorient  #important for SAPT in psi4, default
symmetry c1  #important for SAPT in psi4, default
}

set PROPERTIES_ORIGIN ["COM"]
properties('MP2/aug-cc-pvtz', properties = ['dipole'])
--------------------------------------------------------------------------

    Molecular point group: c1
  Charge       = 0
  Multiplicity = 1
  Basis Set: AUG-CC-PVTZ
    Blend: AUG-CC-PVTZ
  Basis Set: (AUG-CC-PVTZ AUX)
    Blend: AUG-CC-PVTZ-JKFIT

    Orbital Energies [Eh]
    ---------------------

    Doubly Occupied:

       1A    -20.632895     2A    -15.549462     3A    -11.332154
       4A    -11.284721     5A    -11.254422     6A    -11.251073
       7A    -11.226320     8A    -11.219203     9A     -1.477896
      10A     -1.242414    11A     -1.106701    12A     -1.004793
      13A     -0.940442    14A     -0.858574    15A     -0.832088
      16A     -0.778872    17A     -0.715436    18A     -0.663243
      19A     -0.635709    20A     -0.611844    21A     -0.607730
      22A     -0.571344    23A     -0.560164    24A     -0.543086
      25A     -0.509847    26A     -0.492455    27A     -0.491632
      28A     -0.459096    29A     -0.441669    30A     -0.321732

  @DF-RHF Final Energy:  -361.86757090188939

   => Energetics <=

    Nuclear Repulsion Energy =            373.6851208598217795
    One-Electron Energy =               -1231.8713523788835573
    Two-Electron Energy =                 496.3186606171723270
    Total Energy =                       -361.8675709018893940
  Basis Set: (AUG-CC-PVTZ AUX)
    Blend: AUG-CC-PVTZ-RI
    Molecular point group: c1

    Geometry (in Angstrom), charge = 0, multiplicity = 1:

       Center              X                  Y                   Z               Mass
    ------------   -----------------  -----------------  -----------------  -----------------
         O            0.879609789649    -0.996305054490    -0.420510086097    15.994914619570
         N            0.761952389649     1.067730845510     0.304676813903    14.003074004430
         C           -1.408418210351    -0.138468054490    -0.362471086097    12.000000000000
         C            0.054042789649     0.063432945510    -0.144489086097    12.000000000000
         C           -2.151481210351     1.187023945510    -0.219823086097    12.000000000000
         C           -1.948886210351    -1.201118054490     0.601798913903    12.000000000000
         C            2.134671789649    -0.547168054490    -0.101344086097    12.000000000000
         C            2.020046789649     0.733319945510     0.344531913903    12.000000000000
         H           -1.535851210351    -0.511594054490    -1.387834086097     1.007825032230
         H           -2.030065210351     1.583880945510     0.790900913903     1.007825032230
         H           -3.217755210351     1.037228945510    -0.413584086097     1.007825032230
         H           -1.767747210351     1.932597945510    -0.919750086097     1.007825032230
         H           -1.831835210351    -0.863750054490     1.636319913903     1.007825032230
         H           -1.416184210351    -2.148226054490     0.483896913903     1.007825032230
         H           -3.012808210351    -1.376031054490     0.414819913903     1.007825032230
         H            2.948682789649    -1.238635054490    -0.253132086097     1.007825032230
         H            2.795850789649     1.405953945510     0.681447913903     1.007825032230

  Basis Set: AUG-CC-PVTZ
    Blend: AUG-CC-PVTZ
  Basis Set: (AUG-CC-PVTZ AUX)
    Blend: AUG-CC-PVTZ-JKFIT
	 Reference Energy          =    -361.8675709018893940 [Eh]
	 Singles Energy            =      -0.0000000000000000 [Eh]
	 Same-Spin Energy          =      -0.3811975996989006 [Eh]
	 Opposite-Spin Energy      =      -1.2179521163250948 [Eh]
	 Correlation Energy        =      -1.5991497160239954 [Eh]
	 Total Energy              =    -363.4667206179133814 [Eh]

	 ================> DF-SCS-MP2 Energies <==================
	-----------------------------------------------------------
	 SCS Same-Spin Scale       =       0.3333333333333333 [-]
	 SCS Opposite-Spin Scale   =       1.2000000000000000 [-]
	 SCS Same-Spin Energy      =      -0.1270658665663002 [Eh]
	 SCS Opposite-Spin Energy  =      -1.4615425395901138 [Eh]
	 SCS Correlation Energy    =      -1.5886084061564141 [Eh]
	 SCS Total Energy          =    -363.4561793080458187 [Eh]
	-----------------------------------------------------------

  Dipole Moment: [D]
     X:     0.0322      Y:    -1.1535      Z:    -0.3470     Total:     1.2049

*** Psi4 exiting successfully. Buy a developer a beer!
