                               Psi4 1.4a3.dev225

  ==> Input File <==

--------------------------------------------------------------------------
#psi4
#
memory 32 gb

molecule  {
0 1
  O        0.9636680    -1.0001680    -0.4301960
  N        0.7679840     1.1102310     0.3050190
  C       -1.3243600    -0.1423310    -0.3721570
  C        0.1381010     0.0595700    -0.1541750
  C       -2.0674230     1.1831610    -0.2295090
  C       -1.8648280    -1.2049810     0.5921130
  C        2.1271653    -0.5837984    -0.1343152
  C        2.1041050     0.7294570     0.3348460
  H       -1.4517930    -0.5154570    -1.3975200
  H       -1.9460070     1.5800180     0.7812150
  H       -3.1336970     1.0333660    -0.4232700
  H       -1.6836890     1.9287350    -0.9294360
  H       -1.7477770    -0.8676130     1.6266340
  H       -1.3321260    -2.1520890     0.4742110
  H       -2.9287500    -1.3798940     0.4051340
  H        3.0327410    -1.2424980    -0.2628180
  H        2.8799090     1.4020910     0.6717620
units angstrom
no_reorient  #important for SAPT in psi4, default
symmetry c1  #important for SAPT in psi4, default
}

set PROPERTIES_ORIGIN ["COM"]
properties('MP2/aug-cc-pvtz', properties = ['dipole'])
--------------------------------------------------------------------------

    Molecular point group: c1
  Charge       = 0
  Multiplicity = 1
  Basis Set: AUG-CC-PVTZ
    Blend: AUG-CC-PVTZ
  Basis Set: (AUG-CC-PVTZ AUX)
    Blend: AUG-CC-PVTZ-JKFIT

    Orbital Energies [Eh]
    ---------------------

    Doubly Occupied:

       1A    -20.647868     2A    -15.563599     3A    -11.329544
       4A    -11.296674     5A    -11.254759     6A    -11.250956
       7A    -11.225074     8A    -11.216932     9A     -1.520250
      10A     -1.232426    11A     -1.103685    12A     -1.001134
      13A     -0.939172    14A     -0.861998    15A     -0.831658
      16A     -0.783082    17A     -0.719094    18A     -0.681237
      19A     -0.644154    20A     -0.610261    21A     -0.599332
      22A     -0.565275    23A     -0.556640    24A     -0.541752
      25A     -0.505566    26A     -0.491770    27A     -0.488737
      28A     -0.455254    29A     -0.451122    30A     -0.317722

  @DF-RHF Final Energy:  -361.86260511979702

   => Energetics <=

    Nuclear Repulsion Energy =            374.1174418216190816
    One-Electron Energy =               -1232.5866408280232918
    Two-Electron Energy =                 496.6065938866071861
    Total Energy =                       -361.8626051197970241
  Basis Set: (AUG-CC-PVTZ AUX)
    Blend: AUG-CC-PVTZ-RI
    Molecular point group: c1

    Geometry (in Angstrom), charge = 0, multiplicity = 1:

       Center              X                  Y                   Z               Mass
    ------------   -----------------  -----------------  -----------------  -----------------
         O            0.899339869308    -0.998610094342    -0.419258621629    15.994914619570
         N            0.703655869308     1.111788905658     0.315956378371    14.003074004430
         C           -1.388688130692    -0.140773094342    -0.361219621629    12.000000000000
         C            0.073772869308     0.061127905658    -0.143237621629    12.000000000000
         C           -2.131751130692     1.184718905658    -0.218571621629    12.000000000000
         C           -1.929156130692    -1.203423094342     0.603050378371    12.000000000000
         C            2.062837169308    -0.582240494342    -0.123377821629    12.000000000000
         C            2.039776869308     0.731014905658     0.345783378371    12.000000000000
         H           -1.516121130692    -0.513899094342    -1.386582621629     1.007825032230
         H           -2.010335130692     1.581575905658     0.792152378371     1.007825032230
         H           -3.198025130692     1.034923905658    -0.412332621629     1.007825032230
         H           -1.748017130692     1.930292905658    -0.918498621629     1.007825032230
         H           -1.812105130692    -0.866055094342     1.637571378371     1.007825032230
         H           -1.396454130692    -2.150531094342     0.485148378371     1.007825032230
         H           -2.993078130692    -1.378336094342     0.416071378371     1.007825032230
         H            2.968412869308    -1.240940094342    -0.251880621629     1.007825032230
         H            2.815580869308     1.403648905658     0.682699378371     1.007825032230

  Basis Set: AUG-CC-PVTZ
    Blend: AUG-CC-PVTZ
  Basis Set: (AUG-CC-PVTZ AUX)
    Blend: AUG-CC-PVTZ-JKFIT
	 Reference Energy          =    -361.8626051197970241 [Eh]
	 Singles Energy            =      -0.0000000000000000 [Eh]
	 Same-Spin Energy          =      -0.3811501743779965 [Eh]
	 Opposite-Spin Energy      =      -1.2185229347272402 [Eh]
	 Correlation Energy        =      -1.5996731091052365 [Eh]
	 Total Energy              =    -363.4622782289022780 [Eh]

	 ================> DF-SCS-MP2 Energies <==================
	-----------------------------------------------------------
	 SCS Same-Spin Scale       =       0.3333333333333333 [-]
	 SCS Opposite-Spin Scale   =       1.2000000000000000 [-]
	 SCS Same-Spin Energy      =      -0.1270500581259988 [Eh]
	 SCS Opposite-Spin Energy  =      -1.4622275216726881 [Eh]
	 SCS Correlation Energy    =      -1.5892775797986869 [Eh]
	 SCS Total Energy          =    -363.4518826995957284 [Eh]
	-----------------------------------------------------------

  Dipole Moment: [D]
     X:     0.0547      Y:    -1.3478      Z:    -0.4272     Total:     1.4149

*** Psi4 exiting successfully. Buy a developer a beer!
