                               Psi4 1.4a3.dev225

  ==> Input File <==

--------------------------------------------------------------------------
#psi4
#
memory 32 gb

molecule  {
0 1
  O        0.9636680    -1.0001680    -0.4301960
  N        0.7679840     1.1102310     0.3050190
  C       -1.3243600    -0.1423310    -0.3721570
  C        0.1381010     0.0595700    -0.1541750
  C       -2.0674230     1.1831610    -0.2295090
  C       -1.8648280    -1.2049810     0.5921130
  C        2.2187300    -0.5510310    -0.1110300
  C        2.1041050     0.7294570     0.3348460
  H       -1.4517930    -0.5154570    -1.3975200
  H       -1.9460070     1.5800180     0.7812150
  H       -3.1142046     1.0361044    -0.4197279
  H       -1.6836890     1.9287350    -0.9294360
  H       -1.7477770    -0.8676130     1.6266340
  H       -1.3321260    -2.1520890     0.4742110
  H       -2.9287500    -1.3798940     0.4051340
  H        3.0327410    -1.2424980    -0.2628180
  H        2.8799090     1.4020910     0.6717620
units angstrom
no_reorient  #important for SAPT in psi4, default
symmetry c1  #important for SAPT in psi4, default
}

set PROPERTIES_ORIGIN ["COM"]
properties('MP2/aug-cc-pvtz', properties = ['dipole'])
--------------------------------------------------------------------------

    Molecular point group: c1
  Charge       = 0
  Multiplicity = 1
  Basis Set: AUG-CC-PVTZ
    Blend: AUG-CC-PVTZ
  Basis Set: (AUG-CC-PVTZ AUX)
    Blend: AUG-CC-PVTZ-JKFIT

    Orbital Energies [Eh]
    ---------------------

    Doubly Occupied:

       1A    -20.633359     2A    -15.559966     3A    -11.334565
       4A    -11.290200     5A    -11.259955     6A    -11.251351
       7A    -11.225475     8A    -11.214730     9A     -1.475534
      10A     -1.225358    11A     -1.103800    12A     -1.006171
      13A     -0.940079    14A     -0.859878    15A     -0.826521
      16A     -0.771962    17A     -0.713322    18A     -0.661766
      19A     -0.636481    20A     -0.607295    21A     -0.599489
      22A     -0.571532    23A     -0.558473    24A     -0.543385
      25A     -0.507652    26A     -0.490947    27A     -0.489206
      28A     -0.455094    29A     -0.448102    30A     -0.331001

  @DF-RHF Final Energy:  -361.87431622375783

   => Energetics <=

    Nuclear Repulsion Energy =            372.4148660008882530
    One-Electron Energy =               -1229.3930652578469562
    Two-Electron Energy =                 495.1038830332009297
    Total Energy =                       -361.8743162237578304
  Basis Set: (AUG-CC-PVTZ AUX)
    Blend: AUG-CC-PVTZ-RI
    Molecular point group: c1

    Geometry (in Angstrom), charge = 0, multiplicity = 1:

       Center              X                  Y                   Z               Mass
    ------------   -----------------  -----------------  -----------------  -----------------
         O            0.889270207833    -1.002175181968    -0.421806530680    15.994914619570
         N            0.693586207833     1.108223818032     0.313408469320    14.003074004430
         C           -1.398757792167    -0.144338181968    -0.363767530680    12.000000000000
         C            0.063703207833     0.057562818032    -0.145785530680    12.000000000000
         C           -2.141820792167     1.181153818032    -0.221119530680    12.000000000000
         C           -1.939225792167    -1.206988181968     0.600502469320    12.000000000000
         C            2.144332207833    -0.553038181968    -0.102640530680    12.000000000000
         C            2.029707207833     0.727449818032     0.343235469320    12.000000000000
         H           -1.526190792167    -0.517464181968    -1.389130530680     1.007825032230
         H           -2.020404792167     1.578010818032     0.789604469320     1.007825032230
         H           -3.188602392167     1.034097218032    -0.411338430680     1.007825032230
         H           -1.758086792167     1.926727818032    -0.921046530680     1.007825032230
         H           -1.822174792167    -0.869620181968     1.635023469320     1.007825032230
         H           -1.406523792167    -2.154096181968     0.482600469320     1.007825032230
         H           -3.003147792167    -1.381901181968     0.413523469320     1.007825032230
         H            2.958343207833    -1.244505181968    -0.254428530680     1.007825032230
         H            2.805511207833     1.400083818032     0.680151469320     1.007825032230

  Basis Set: AUG-CC-PVTZ
    Blend: AUG-CC-PVTZ
  Basis Set: (AUG-CC-PVTZ AUX)
    Blend: AUG-CC-PVTZ-JKFIT
	 Reference Energy          =    -361.8743162237578304 [Eh]
	 Singles Energy            =      -0.0000000000000000 [Eh]
	 Same-Spin Energy          =      -0.3799918199355656 [Eh]
	 Opposite-Spin Energy      =      -1.2183070695916280 [Eh]
	 Correlation Energy        =      -1.5982988895271937 [Eh]
	 Total Energy              =    -363.4726151132850305 [Eh]

	 ================> DF-SCS-MP2 Energies <==================
	-----------------------------------------------------------
	 SCS Same-Spin Scale       =       0.3333333333333333 [-]
	 SCS Opposite-Spin Scale   =       1.2000000000000000 [-]
	 SCS Same-Spin Energy      =      -0.1266639399785219 [Eh]
	 SCS Opposite-Spin Energy  =      -1.4619684835099536 [Eh]
	 SCS Correlation Energy    =      -1.5886324234884754 [Eh]
	 SCS Total Energy          =    -363.4629486472463213 [Eh]
	-----------------------------------------------------------

  Dipole Moment: [D]
     X:     0.1603      Y:    -1.2558      Z:    -0.3745     Total:     1.3202

*** Psi4 exiting successfully. Buy a developer a beer!
