                               Psi4 1.4a3.dev225

  ==> Input File <==

--------------------------------------------------------------------------
#psi4
#
memory 32 gb

molecule  {
0 1
  O        0.9636680    -1.0001680    -0.4301960
  N        0.7679840     1.1102310     0.3050190
  C       -1.3243600    -0.1423310    -0.3721570
  C        0.1682000     0.0209335    -0.1642383
  C       -2.0674230     1.1831610    -0.2295090
  C       -1.8648280    -1.2049810     0.5921130
  C        2.2187300    -0.5510310    -0.1110300
  C        2.1041050     0.7294570     0.3348460
  H       -1.4517930    -0.5154570    -1.3975200
  H       -1.9460070     1.5800180     0.7812150
  H       -3.1336970     1.0333660    -0.4232700
  H       -1.6836890     1.9287350    -0.9294360
  H       -1.7477770    -0.8676130     1.6266340
  H       -1.3321260    -2.1520890     0.4742110
  H       -2.9287500    -1.3798940     0.4051340
  H        3.0327410    -1.2424980    -0.2628180
  H        2.8799090     1.4020910     0.6717620
units angstrom
no_reorient  #important for SAPT in psi4, default
symmetry c1  #important for SAPT in psi4, default
}

set PROPERTIES_ORIGIN ["COM"]
properties('MP2/aug-cc-pvtz', properties = ['dipole'])
--------------------------------------------------------------------------

    Molecular point group: c1
  Charge       = 0
  Multiplicity = 1
  Basis Set: AUG-CC-PVTZ
    Blend: AUG-CC-PVTZ
  Basis Set: (AUG-CC-PVTZ AUX)
    Blend: AUG-CC-PVTZ-JKFIT

    Orbital Energies [Eh]
    ---------------------

    Doubly Occupied:

       1A    -20.642924     2A    -15.557924     3A    -11.335794
       4A    -11.288460     5A    -11.261773     6A    -11.251729
       7A    -11.224702     8A    -11.216391     9A     -1.498246
      10A     -1.221137    11A     -1.100549    12A     -1.008440
      13A     -0.937909    14A     -0.857534    15A     -0.829998
      16A     -0.778825    17A     -0.715199    18A     -0.670657
      19A     -0.637464    20A     -0.608258    21A     -0.595079
      22A     -0.578934    23A     -0.557115    24A     -0.540929
      25A     -0.502284    26A     -0.489605    27A     -0.486060
      28A     -0.456577    29A     -0.446359    30A     -0.330733

  @DF-RHF Final Energy:  -361.87301307858189

   => Energetics <=

    Nuclear Repulsion Energy =            372.5737282387041773
    One-Electron Energy =               -1229.6383020727821531
    Two-Electron Energy =                 495.1915607554960275
    Total Energy =                       -361.8730130785818915
  Basis Set: (AUG-CC-PVTZ AUX)
    Blend: AUG-CC-PVTZ-RI
    Molecular point group: c1

    Geometry (in Angstrom), charge = 0, multiplicity = 1:

       Center              X                  Y                   Z               Mass
    ------------   -----------------  -----------------  -----------------  -----------------
         O            0.886195138519    -0.997975987871    -0.420687135771    15.994914619570
         N            0.690511138519     1.112423012129     0.314527864229    14.003074004430
         C           -1.401832861481    -0.140138987871    -0.362648135771    12.000000000000
         C            0.090727138519     0.023125512129    -0.154729435771    12.000000000000
         C           -2.144895861481     1.185353012129    -0.220000135771    12.000000000000
         C           -1.942300861481    -1.202788987871     0.601621864229    12.000000000000
         C            2.141257138519    -0.548838987871    -0.101521135771    12.000000000000
         C            2.026632138519     0.731649012129     0.344354864229    12.000000000000
         H           -1.529265861481    -0.513264987871    -1.388011135771     1.007825032230
         H           -2.023479861481     1.582210012129     0.790723864229     1.007825032230
         H           -3.211169861481     1.035558012129    -0.413761135771     1.007825032230
         H           -1.761161861481     1.930927012129    -0.919927135771     1.007825032230
         H           -1.825249861481    -0.865420987871     1.636142864229     1.007825032230
         H           -1.409598861481    -2.149896987871     0.483719864229     1.007825032230
         H           -3.006222861481    -1.377701987871     0.414642864229     1.007825032230
         H            2.955268138519    -1.240305987871    -0.253309135771     1.007825032230
         H            2.802436138519     1.404283012129     0.681270864229     1.007825032230

  Basis Set: AUG-CC-PVTZ
    Blend: AUG-CC-PVTZ
  Basis Set: (AUG-CC-PVTZ AUX)
    Blend: AUG-CC-PVTZ-JKFIT
	 Reference Energy          =    -361.8730130785818915 [Eh]
	 Singles Energy            =      -0.0000000000000000 [Eh]
	 Same-Spin Energy          =      -0.3797245173586501 [Eh]
	 Opposite-Spin Energy      =      -1.2175197062693917 [Eh]
	 Correlation Energy        =      -1.5972442236280417 [Eh]
	 Total Energy              =    -363.4702573022099159 [Eh]

	 ================> DF-SCS-MP2 Energies <==================
	-----------------------------------------------------------
	 SCS Same-Spin Scale       =       0.3333333333333333 [-]
	 SCS Opposite-Spin Scale   =       1.2000000000000000 [-]
	 SCS Same-Spin Energy      =      -0.1265748391195500 [Eh]
	 SCS Opposite-Spin Energy  =      -1.4610236475232699 [Eh]
	 SCS Correlation Energy    =      -1.5875984866428199 [Eh]
	 SCS Total Energy          =    -363.4606115652247240 [Eh]
	-----------------------------------------------------------

  Dipole Moment: [D]
     X:     0.2837      Y:    -1.3558      Z:    -0.4062     Total:     1.4435

*** Psi4 exiting successfully. Buy a developer a beer!
