                               Psi4 1.4a3.dev225

  ==> Input File <==

--------------------------------------------------------------------------
#psi4
#
memory 32 gb

molecule  {
0 1
  O        0.9636680    -1.0001680    -0.4301960
  N        0.7679840     1.1102310     0.3050190
  C       -1.3243600    -0.1423310    -0.3721570
  C        0.1381010     0.0595700    -0.1541750
  C       -2.0674230     1.1831610    -0.2295090
  C       -1.8648280    -1.2049810     0.5921130
  C        2.2187300    -0.5510310    -0.1110300
  C        2.1041050     0.7294570     0.3348460
  H       -1.4285930    -0.4475269    -1.2108458
  H       -1.9460070     1.5800180     0.7812150
  H       -3.1336970     1.0333660    -0.4232700
  H       -1.6836890     1.9287350    -0.9294360
  H       -1.7477770    -0.8676130     1.6266340
  H       -1.3321260    -2.1520890     0.4742110
  H       -2.9287500    -1.3798940     0.4051340
  H        3.0327410    -1.2424980    -0.2628180
  H        2.8799090     1.4020910     0.6717620
units angstrom
no_reorient  #important for SAPT in psi4, default
symmetry c1  #important for SAPT in psi4, default
}

set PROPERTIES_ORIGIN ["COM"]
properties('MP2/aug-cc-pvtz', properties = ['dipole'])
--------------------------------------------------------------------------

    Molecular point group: c1
  Charge       = 0
  Multiplicity = 1
  Basis Set: AUG-CC-PVTZ
    Blend: AUG-CC-PVTZ
  Basis Set: (AUG-CC-PVTZ AUX)
    Blend: AUG-CC-PVTZ-JKFIT

    Orbital Energies [Eh]
    ---------------------

    Doubly Occupied:

       1A    -20.633775     2A    -15.559372     3A    -11.333672
       4A    -11.289976     5A    -11.259818     6A    -11.226893
       7A    -11.224244     8A    -11.216084     9A     -1.475782
      10A     -1.225082    11A     -1.114909    12A     -1.007152
      13A     -0.938138    14A     -0.869949    15A     -0.826304
      16A     -0.782967    17A     -0.728687    18A     -0.663207
      19A     -0.640553    20A     -0.608304    21A     -0.599609
      22A     -0.571737    23A     -0.557369    24A     -0.541194
      25A     -0.509877    26A     -0.503548    27A     -0.489240
      28A     -0.454670    29A     -0.447988    30A     -0.331481

  @DF-RHF Final Energy:  -361.84193928505181

   => Energetics <=

    Nuclear Repulsion Energy =            373.4798578860960561
    One-Electron Energy =               -1231.3804357153298952
    Two-Electron Energy =                 496.0586385441820312
    Total Energy =                       -361.8419392850518079
  Basis Set: (AUG-CC-PVTZ AUX)
    Blend: AUG-CC-PVTZ-RI
    Molecular point group: c1

    Geometry (in Angstrom), charge = 0, multiplicity = 1:

       Center              X                  Y                   Z               Mass
    ------------   -----------------  -----------------  -----------------  -----------------
         O            0.889236565396    -1.002766725728    -0.423468255270    15.994914619570
         N            0.693552565396     1.107632274272     0.311746744730    14.003074004430
         C           -1.398791434604    -0.144929725728    -0.365429255270    12.000000000000
         C            0.063669565396     0.056971274272    -0.147447255270    12.000000000000
         C           -2.141854434604     1.180562274272    -0.222781255270    12.000000000000
         C           -1.939259434604    -1.207579725728     0.598840744730    12.000000000000
         C            2.144298565396    -0.553629725728    -0.104302255270    12.000000000000
         C            2.029673565396     0.726858274272     0.341573744730    12.000000000000
         H           -1.503024434604    -0.450125625728    -1.204118055270     1.007825032230
         H           -2.020438434604     1.577419274272     0.787942744730     1.007825032230
         H           -3.208128434604     1.030767274272    -0.416542255270     1.007825032230
         H           -1.758120434604     1.926136274272    -0.922708255270     1.007825032230
         H           -1.822208434604    -0.870211725728     1.633361744730     1.007825032230
         H           -1.406557434604    -2.154687725728     0.480938744730     1.007825032230
         H           -3.003181434604    -1.382492725728     0.411861744730     1.007825032230
         H            2.958309565396    -1.245096725728    -0.256090255270     1.007825032230
         H            2.805477565396     1.399492274272     0.678489744730     1.007825032230

  Basis Set: AUG-CC-PVTZ
    Blend: AUG-CC-PVTZ
  Basis Set: (AUG-CC-PVTZ AUX)
    Blend: AUG-CC-PVTZ-JKFIT
	 Reference Energy          =    -361.8419392850518079 [Eh]
	 Singles Energy            =      -0.0000000000000000 [Eh]
	 Same-Spin Energy          =      -0.3799348859978879 [Eh]
	 Opposite-Spin Energy      =      -1.2177153488703061 [Eh]
	 Correlation Energy        =      -1.5976502348681940 [Eh]
	 Total Energy              =    -363.4395895199199913 [Eh]

	 ================> DF-SCS-MP2 Energies <==================
	-----------------------------------------------------------
	 SCS Same-Spin Scale       =       0.3333333333333333 [-]
	 SCS Opposite-Spin Scale   =       1.2000000000000000 [-]
	 SCS Same-Spin Energy      =      -0.1266449619992960 [Eh]
	 SCS Opposite-Spin Energy  =      -1.4612584186443673 [Eh]
	 SCS Correlation Energy    =      -1.5879033806436633 [Eh]
	 SCS Total Energy          =    -363.4298426656954462 [Eh]
	-----------------------------------------------------------

  Dipole Moment: [D]
     X:     0.1680      Y:    -1.2782      Z:    -0.4295     Total:     1.3589

*** Psi4 exiting successfully. Buy a developer a beer!
