                               Psi4 1.4a3.dev225

  ==> Input File <==

--------------------------------------------------------------------------
#psi4
#
memory 32 gb

molecule  {
0 1
  O        0.9636680    -1.0001680    -0.4301960
  N        0.7679840     1.1102310     0.3050190
  C       -1.3243600    -0.1423310    -0.3721570
  C        0.1381010     0.0595700    -0.1541750
  C       -2.0674230     1.1831610    -0.2295090
  C       -1.8824518    -1.2396324     0.6235563
  C        2.2187300    -0.5510310    -0.1110300
  C        2.1041050     0.7294570     0.3348460
  H       -1.4517930    -0.5154570    -1.3975200
  H       -1.9460070     1.5800180     0.7812150
  H       -3.1336970     1.0333660    -0.4232700
  H       -1.6836890     1.9287350    -0.9294360
  H       -1.7477770    -0.8676130     1.6266340
  H       -1.3321260    -2.1520890     0.4742110
  H       -2.9287500    -1.3798940     0.4051340
  H        3.0327410    -1.2424980    -0.2628180
  H        2.8799090     1.4020910     0.6717620
units angstrom
no_reorient  #important for SAPT in psi4, default
symmetry c1  #important for SAPT in psi4, default
}

set PROPERTIES_ORIGIN ["COM"]
properties('MP2/aug-cc-pvtz', properties = ['dipole'])
--------------------------------------------------------------------------

    Molecular point group: c1
  Charge       = 0
  Multiplicity = 1
  Basis Set: AUG-CC-PVTZ
    Blend: AUG-CC-PVTZ
  Basis Set: (AUG-CC-PVTZ AUX)
    Blend: AUG-CC-PVTZ-JKFIT

    Orbital Energies [Eh]
    ---------------------

    Doubly Occupied:

       1A    -20.633162     2A    -15.559686     3A    -11.334472
       4A    -11.290028     5A    -11.259867     6A    -11.253141
       7A    -11.224340     8A    -11.217129     9A     -1.475338
      10A     -1.225138    11A     -1.098223    12A     -1.004655
      13A     -0.939970    14A     -0.860540    15A     -0.826061
      16A     -0.771487    17A     -0.711909    18A     -0.660641
      19A     -0.635514    20A     -0.606306    21A     -0.599766
      22A     -0.571394    23A     -0.558245    24A     -0.547525
      25A     -0.508770    26A     -0.493796    27A     -0.482190
      28A     -0.455070    29A     -0.447493    30A     -0.330269

  @DF-RHF Final Energy:  -361.87273708876035

   => Energetics <=

    Nuclear Repulsion Energy =            371.5290811100099972
    One-Electron Energy =               -1227.6393947939136524
    Two-Electron Energy =                 494.2375765951433095
    Total Energy =                       -361.8727370887603456
  Basis Set: (AUG-CC-PVTZ AUX)
    Blend: AUG-CC-PVTZ-RI
    Molecular point group: c1

    Geometry (in Angstrom), charge = 0, multiplicity = 1:

       Center              X                  Y                   Z               Mass
    ------------   -----------------  -----------------  -----------------  -----------------
         O            0.891351182257    -0.998406544123    -0.425171571827    15.994914619570
         N            0.695667182257     1.111992455877     0.310043428173    14.003074004430
         C           -1.396676817743    -0.140569544123    -0.367132571827    12.000000000000
         C            0.065784182257     0.061331455877    -0.149150571827    12.000000000000
         C           -2.139739817743     1.184922455877    -0.224484571827    12.000000000000
         C           -1.954768617743    -1.237870944123     0.628580728173    12.000000000000
         C            2.146413182257    -0.549269544123    -0.106005571827    12.000000000000
         C            2.031788182257     0.731218455877     0.339870428173    12.000000000000
         H           -1.524109817743    -0.513695544123    -1.392495571827     1.007825032230
         H           -2.018323817743     1.581779455877     0.786239428173     1.007825032230
         H           -3.206013817743     1.035127455877    -0.418245571827     1.007825032230
         H           -1.756005817743     1.930496455877    -0.924411571827     1.007825032230
         H           -1.820093817743    -0.865851544123     1.631658428173     1.007825032230
         H           -1.404442817743    -2.150327544123     0.479235428173     1.007825032230
         H           -3.001066817743    -1.378132544123     0.410158428173     1.007825032230
         H            2.960424182257    -1.240736544123    -0.257793571827     1.007825032230
         H            2.807592182257     1.403852455877     0.676786428173     1.007825032230

  Basis Set: AUG-CC-PVTZ
    Blend: AUG-CC-PVTZ
  Basis Set: (AUG-CC-PVTZ AUX)
    Blend: AUG-CC-PVTZ-JKFIT
	 Reference Energy          =    -361.8727370887603456 [Eh]
	 Singles Energy            =      -0.0000000000000000 [Eh]
	 Same-Spin Energy          =      -0.3797401914367411 [Eh]
	 Opposite-Spin Energy      =      -1.2182585768676824 [Eh]
	 Correlation Energy        =      -1.5979987683044234 [Eh]
	 Total Energy              =    -363.4707358570647671 [Eh]

	 ================> DF-SCS-MP2 Energies <==================
	-----------------------------------------------------------
	 SCS Same-Spin Scale       =       0.3333333333333333 [-]
	 SCS Opposite-Spin Scale   =       1.2000000000000000 [-]
	 SCS Same-Spin Energy      =      -0.1265800638122470 [Eh]
	 SCS Opposite-Spin Energy  =      -1.4619102922412188 [Eh]
	 SCS Correlation Energy    =      -1.5884903560534658 [Eh]
	 SCS Total Energy          =    -363.4612274448138010 [Eh]
	-----------------------------------------------------------

  Dipole Moment: [D]
     X:     0.1595      Y:    -1.2569      Z:    -0.3724     Total:     1.3206

*** Psi4 exiting successfully. Buy a developer a beer!
