                               Psi4 1.4a3.dev225

  ==> Input File <==

--------------------------------------------------------------------------
#psi4
#
memory 32 gb

molecule  {
0 1
  O        0.9636680    -1.0001680    -0.4301960
  N        0.7679840     1.1102310     0.3050190
  C       -1.3243600    -0.1423310    -0.3721570
  C        0.1381010     0.0595700    -0.1541750
  C       -2.0674230     1.1831610    -0.2295090
  C       -1.8648280    -1.2049810     0.5921130
  C        2.2187300    -0.5510310    -0.1110300
  C        2.1041050     0.7294570     0.3348460
  H       -1.4517930    -0.5154570    -1.3975200
  H       -1.9460070     1.5800180     0.7812150
  H       -3.1336970     1.0333660    -0.4232700
  H       -1.7012551     1.8946051    -0.8973957
  H       -1.7477770    -0.8676130     1.6266340
  H       -1.3321260    -2.1520890     0.4742110
  H       -2.9287500    -1.3798940     0.4051340
  H        3.0327410    -1.2424980    -0.2628180
  H        2.8799090     1.4020910     0.6717620
units angstrom
no_reorient  #important for SAPT in psi4, default
symmetry c1  #important for SAPT in psi4, default
}

set PROPERTIES_ORIGIN ["COM"]
properties('MP2/aug-cc-pvtz', properties = ['dipole'])
--------------------------------------------------------------------------

    Molecular point group: c1
  Charge       = 0
  Multiplicity = 1
  Basis Set: AUG-CC-PVTZ
    Blend: AUG-CC-PVTZ
  Basis Set: (AUG-CC-PVTZ AUX)
    Blend: AUG-CC-PVTZ-JKFIT

    Orbital Energies [Eh]
    ---------------------

    Doubly Occupied:

       1A    -20.633464     2A    -15.560170     3A    -11.334729
       4A    -11.290326     5A    -11.260086     6A    -11.251097
       7A    -11.225069     8A    -11.211151     9A     -1.475647
      10A     -1.225547    11A     -1.104038    12A     -1.006347
      13A     -0.942376    14A     -0.860079    15A     -0.826725
      16A     -0.772218    17A     -0.713624    18A     -0.662125
      19A     -0.636018    20A     -0.611906    21A     -0.599499
      22A     -0.571793    23A     -0.558829    24A     -0.541314
      25A     -0.506730    26A     -0.495031    27A     -0.488957
      28A     -0.455352    29A     -0.448257    30A     -0.331111

  @DF-RHF Final Energy:  -361.87330008486168

   => Energetics <=

    Nuclear Repulsion Energy =            372.5395812040765122
    One-Electron Energy =               -1229.6265270558153588
    Two-Electron Energy =                 495.2136457668771641
    Total Energy =                       -361.8733000848616825
  Basis Set: (AUG-CC-PVTZ AUX)
    Blend: AUG-CC-PVTZ-RI
    Molecular point group: c1

    Geometry (in Angstrom), charge = 0, multiplicity = 1:

       Center              X                  Y                   Z               Mass
    ------------   -----------------  -----------------  -----------------  -----------------
         O            0.889606473407    -1.001840642252    -0.422065120843    15.994914619570
         N            0.693922473407     1.108558357748     0.313149879157    14.003074004430
         C           -1.398421526593    -0.144003642252    -0.364026120843    12.000000000000
         C            0.064039473407     0.057897357748    -0.146044120843    12.000000000000
         C           -2.141484526593     1.181488357748    -0.221378120843    12.000000000000
         C           -1.938889526593    -1.206653642252     0.600243879157    12.000000000000
         C            2.144668473407    -0.552703642252    -0.102899120843    12.000000000000
         C            2.030043473407     0.727784357748     0.342976879157    12.000000000000
         H           -1.525854526593    -0.517129642252    -1.389389120843     1.007825032230
         H           -2.020068526593     1.578345357748     0.789345879157     1.007825032230
         H           -3.207758526593     1.031693357748    -0.415139120843     1.007825032230
         H           -1.775316626593     1.892932457748    -0.889264820843     1.007825032230
         H           -1.821838526593    -0.869285642252     1.634764879157     1.007825032230
         H           -1.406187526593    -2.153761642252     0.482341879157     1.007825032230
         H           -3.002811526593    -1.381566642252     0.413264879157     1.007825032230
         H            2.958679473407    -1.244170642252    -0.254687120843     1.007825032230
         H            2.805847473407     1.400418357748     0.679892879157     1.007825032230

  Basis Set: AUG-CC-PVTZ
    Blend: AUG-CC-PVTZ
  Basis Set: (AUG-CC-PVTZ AUX)
    Blend: AUG-CC-PVTZ-JKFIT
	 Reference Energy          =    -361.8733000848616825 [Eh]
	 Singles Energy            =      -0.0000000000000000 [Eh]
	 Same-Spin Energy          =      -0.3799817347117682 [Eh]
	 Opposite-Spin Energy      =      -1.2181367194181079 [Eh]
	 Correlation Energy        =      -1.5981184541298761 [Eh]
	 Total Energy              =    -363.4714185389915428 [Eh]

	 ================> DF-SCS-MP2 Energies <==================
	-----------------------------------------------------------
	 SCS Same-Spin Scale       =       0.3333333333333333 [-]
	 SCS Opposite-Spin Scale   =       1.2000000000000000 [-]
	 SCS Same-Spin Energy      =      -0.1266605782372560 [Eh]
	 SCS Opposite-Spin Energy  =      -1.4617640633017295 [Eh]
	 SCS Correlation Energy    =      -1.5884246415389855 [Eh]
	 SCS Total Energy          =    -363.4617247264006892 [Eh]
	-----------------------------------------------------------

  Dipole Moment: [D]
     X:     0.1766      Y:    -1.2364      Z:    -0.3874     Total:     1.3076

*** Psi4 exiting successfully. Buy a developer a beer!
