                               Psi4 1.4a3.dev225

  ==> Input File <==

--------------------------------------------------------------------------
#psi4
#
memory 32 gb

molecule  {
0 1
  O        0.9636680    -1.0001680    -0.4301960
  N        0.7679840     1.1102310     0.3050190
  C       -1.3243600    -0.1423310    -0.3721570
  C        0.1381010     0.0595700    -0.1541750
  C       -2.0674230     1.1831610    -0.2295090
  C       -1.8648280    -1.2049810     0.5921130
  C        2.2187300    -0.5510310    -0.1110300
  C        2.1041050     0.7294570     0.3348460
  H       -1.4517930    -0.5154570    -1.3975200
  H       -1.9348945     1.6163399     0.8737203
  H       -3.1336970     1.0333660    -0.4232700
  H       -1.6836890     1.9287350    -0.9294360
  H       -1.7477770    -0.8676130     1.6266340
  H       -1.3321260    -2.1520890     0.4742110
  H       -2.9287500    -1.3798940     0.4051340
  H        3.0327410    -1.2424980    -0.2628180
  H        2.8799090     1.4020910     0.6717620
units angstrom
no_reorient  #important for SAPT in psi4, default
symmetry c1  #important for SAPT in psi4, default
}

set PROPERTIES_ORIGIN ["COM"]
properties('MP2/aug-cc-pvtz', properties = ['dipole'])
--------------------------------------------------------------------------

    Molecular point group: c1
  Charge       = 0
  Multiplicity = 1
  Basis Set: AUG-CC-PVTZ
    Blend: AUG-CC-PVTZ
  Basis Set: (AUG-CC-PVTZ AUX)
    Blend: AUG-CC-PVTZ-JKFIT

    Orbital Energies [Eh]
    ---------------------

    Doubly Occupied:

       1A    -20.633616     2A    -15.560066     3A    -11.334842
       4A    -11.290367     5A    -11.260055     6A    -11.252755
       7A    -11.228834     8A    -11.225588     9A     -1.475764
      10A     -1.225464    11A     -1.103222    12A     -1.005546
      13A     -0.934857    14A     -0.857627    15A     -0.825817
      16A     -0.771091    17A     -0.712219    18A     -0.661786
      19A     -0.635858    20A     -0.607785    21A     -0.598135
      22A     -0.571713    23A     -0.556386    24A     -0.533600
      25A     -0.507135    26A     -0.491341    27A     -0.482500
      28A     -0.454526    29A     -0.448191    30A     -0.331194

  @DF-RHF Final Energy:  -361.86772589926875

   => Energetics <=

    Nuclear Repulsion Energy =            371.9351353230926520
    One-Electron Energy =               -1228.4499567791785921
    Two-Electron Energy =                 494.6470955568171348
    Total Energy =                       -361.8677258992687484
  Basis Set: (AUG-CC-PVTZ AUX)
    Blend: AUG-CC-PVTZ-RI
    Molecular point group: c1

    Geometry (in Angstrom), charge = 0, multiplicity = 1:

       Center              X                  Y                   Z               Mass
    ------------   -----------------  -----------------  -----------------  -----------------
         O            0.889346246310    -1.002479915697    -0.422613774942    15.994914619570
         N            0.693662246310     1.107919084303     0.312601225058    14.003074004430
         C           -1.398681753690    -0.144642915697    -0.364574774942    12.000000000000
         C            0.063779246310     0.057258084303    -0.146592774942    12.000000000000
         C           -2.141744753690     1.180849084303    -0.221926774942    12.000000000000
         C           -1.939149753690    -1.207292915697     0.599695225058    12.000000000000
         C            2.144408246310    -0.553342915697    -0.103447774942    12.000000000000
         C            2.029783246310     0.727145084303     0.342428225058    12.000000000000
         H           -1.526114753690    -0.517768915697    -1.389937774942     1.007825032230
         H           -2.009216253690     1.614027984303     0.881302525058     1.007825032230
         H           -3.208018753690     1.031054084303    -0.415687774942     1.007825032230
         H           -1.758010753690     1.926423084303    -0.921853774942     1.007825032230
         H           -1.822098753690    -0.869924915697     1.634216225058     1.007825032230
         H           -1.406447753690    -2.154400915697     0.481793225058     1.007825032230
         H           -3.003071753690    -1.382205915697     0.412716225058     1.007825032230
         H            2.958419246310    -1.244809915697    -0.255235774942     1.007825032230
         H            2.805587246310     1.399779084303     0.679344225058     1.007825032230

  Basis Set: AUG-CC-PVTZ
    Blend: AUG-CC-PVTZ
  Basis Set: (AUG-CC-PVTZ AUX)
    Blend: AUG-CC-PVTZ-JKFIT
	 Reference Energy          =    -361.8677258992687484 [Eh]
	 Singles Energy            =      -0.0000000000000000 [Eh]
	 Same-Spin Energy          =      -0.3800372954723956 [Eh]
	 Opposite-Spin Energy      =      -1.2191909013543143 [Eh]
	 Correlation Energy        =      -1.5992281968267099 [Eh]
	 Total Energy              =    -363.4669540960954350 [Eh]

	 ================> DF-SCS-MP2 Energies <==================
	-----------------------------------------------------------
	 SCS Same-Spin Scale       =       0.3333333333333333 [-]
	 SCS Opposite-Spin Scale   =       1.2000000000000000 [-]
	 SCS Same-Spin Energy      =      -0.1266790984907985 [Eh]
	 SCS Opposite-Spin Energy  =      -1.4630290816251772 [Eh]
	 SCS Correlation Energy    =      -1.5897081801159758 [Eh]
	 SCS Total Energy          =    -363.4574340793847114 [Eh]
	-----------------------------------------------------------

  Dipole Moment: [D]
     X:     0.1861      Y:    -1.2804      Z:    -0.4141     Total:     1.3585

*** Psi4 exiting successfully. Buy a developer a beer!
