                               Psi4 1.4a3.dev225

  ==> Input File <==

--------------------------------------------------------------------------
#psi4
#
memory 32 gb

molecule  {
0 1
  O        0.9636680    -1.0001680    -0.4301960
  N        0.7679840     1.1102310     0.3050190
  C       -1.3243600    -0.1423310    -0.3721570
  C        0.1331328     0.0677085    -0.1299372
  C       -2.0674230     1.1831610    -0.2295090
  C       -1.8648280    -1.2049810     0.5921130
  C        2.2187300    -0.5510310    -0.1110300
  C        2.1041050     0.7294570     0.3348460
  H       -1.4517930    -0.5154570    -1.3975200
  H       -1.9460070     1.5800180     0.7812150
  H       -3.1336970     1.0333660    -0.4232700
  H       -1.6836890     1.9287350    -0.9294360
  H       -1.7477770    -0.8676130     1.6266340
  H       -1.3321260    -2.1520890     0.4742110
  H       -2.9287500    -1.3798940     0.4051340
  H        3.0327410    -1.2424980    -0.2628180
  H        2.8799090     1.4020910     0.6717620
units angstrom
no_reorient  #important for SAPT in psi4, default
symmetry c1  #important for SAPT in psi4, default
}

set PROPERTIES_ORIGIN ["COM"]
properties('MP2/aug-cc-pvtz', properties = ['dipole'])
--------------------------------------------------------------------------

    Molecular point group: c1
  Charge       = 0
  Multiplicity = 1
  Basis Set: AUG-CC-PVTZ
    Blend: AUG-CC-PVTZ
  Basis Set: (AUG-CC-PVTZ AUX)
    Blend: AUG-CC-PVTZ-JKFIT

    Orbital Energies [Eh]
    ---------------------

    Doubly Occupied:

       1A    -20.630539     2A    -15.560491     3A    -11.333836
       4A    -11.290972     5A    -11.259761     6A    -11.251585
       7A    -11.225214     8A    -11.217274     9A     -1.470149
      10A     -1.229391    11A     -1.103598    12A     -1.005669
      13A     -0.939099    14A     -0.858708    15A     -0.825934
      16A     -0.770085    17A     -0.713411    18A     -0.659712
      19A     -0.635746    20A     -0.606223    21A     -0.601413
      22A     -0.569884    23A     -0.557862    24A     -0.541971
      25A     -0.506113    26A     -0.491298    27A     -0.489793
      28A     -0.455618    29A     -0.449966    30A     -0.331882

  @DF-RHF Final Energy:  -361.87407497536361

   => Energetics <=

    Nuclear Repulsion Energy =            372.3333869969381453
    One-Electron Energy =               -1229.2485301980370878
    Two-Electron Energy =                 495.0410682257353869
    Total Energy =                       -361.8740749753636123
  Basis Set: (AUG-CC-PVTZ AUX)
    Blend: AUG-CC-PVTZ-RI
    Molecular point group: c1

    Geometry (in Angstrom), charge = 0, multiplicity = 1:

       Center              X                  Y                   Z               Mass
    ------------   -----------------  -----------------  -----------------  -----------------
         O            0.889983852026    -1.003029629858    -0.424393078671    15.994914619570
         N            0.694299852026     1.107369370142     0.310821921329    14.003074004430
         C           -1.398044147974    -0.145192629858    -0.366354078671    12.000000000000
         C            0.059448652026     0.064846870142    -0.124134278671    12.000000000000
         C           -2.141107147974     1.180299370142    -0.223706078671    12.000000000000
         C           -1.938512147974    -1.207842629858     0.597915921329    12.000000000000
         C            2.145045852026    -0.553892629858    -0.105227078671    12.000000000000
         C            2.030420852026     0.726595370142     0.340648921329    12.000000000000
         H           -1.525477147974    -0.518318629858    -1.391717078671     1.007825032230
         H           -2.019691147974     1.577156370142     0.787017921329     1.007825032230
         H           -3.207381147974     1.030504370142    -0.417467078671     1.007825032230
         H           -1.757373147974     1.925873370142    -0.923633078671     1.007825032230
         H           -1.821461147974    -0.870474629858     1.632436921329     1.007825032230
         H           -1.405810147974    -2.154950629858     0.480013921329     1.007825032230
         H           -3.002434147974    -1.382755629858     0.410936921329     1.007825032230
         H            2.959056852026    -1.245359629858    -0.257015078671     1.007825032230
         H            2.806224852026     1.399229370142     0.677564921329     1.007825032230

  Basis Set: AUG-CC-PVTZ
    Blend: AUG-CC-PVTZ
  Basis Set: (AUG-CC-PVTZ AUX)
    Blend: AUG-CC-PVTZ-JKFIT
	 Reference Energy          =    -361.8740749753636123 [Eh]
	 Singles Energy            =      -0.0000000000000000 [Eh]
	 Same-Spin Energy          =      -0.3798754846829435 [Eh]
	 Opposite-Spin Energy      =      -1.2184382005048864 [Eh]
	 Correlation Energy        =      -1.5983136851878299 [Eh]
	 Total Energy              =    -363.4723886605514167 [Eh]

	 ================> DF-SCS-MP2 Energies <==================
	-----------------------------------------------------------
	 SCS Same-Spin Scale       =       0.3333333333333333 [-]
	 SCS Opposite-Spin Scale   =       1.2000000000000000 [-]
	 SCS Same-Spin Energy      =      -0.1266251615609812 [Eh]
	 SCS Opposite-Spin Energy  =      -1.4621258406058637 [Eh]
	 SCS Correlation Energy    =      -1.5887510021668450 [Eh]
	 SCS Total Energy          =    -363.4628259775304855 [Eh]
	-----------------------------------------------------------

  Dipole Moment: [D]
     X:     0.1546      Y:    -1.2158      Z:    -0.3546     Total:     1.2759

*** Psi4 exiting successfully. Buy a developer a beer!
