                               Psi4 1.4a3.dev225

  ==> Input File <==

--------------------------------------------------------------------------
#psi4
#
memory 32 gb

molecule  {
0 1
  O        0.9636680    -1.0001680    -0.4301960
  N        0.8837537     1.0388365     0.2891527
  C       -1.3243600    -0.1423310    -0.3721570
  C        0.1381010     0.0595700    -0.1541750
  C       -2.0674230     1.1831610    -0.2295090
  C       -1.8648280    -1.2049810     0.5921130
  C        2.2187300    -0.5510310    -0.1110300
  C        2.1041050     0.7294570     0.3348460
  H       -1.4517930    -0.5154570    -1.3975200
  H       -1.9460070     1.5800180     0.7812150
  H       -3.1336970     1.0333660    -0.4232700
  H       -1.6836890     1.9287350    -0.9294360
  H       -1.7477770    -0.8676130     1.6266340
  H       -1.3321260    -2.1520890     0.4742110
  H       -2.9287500    -1.3798940     0.4051340
  H        3.0327410    -1.2424980    -0.2628180
  H        2.8799090     1.4020910     0.6717620
units angstrom
no_reorient  #important for SAPT in psi4, default
symmetry c1  #important for SAPT in psi4, default
}

set PROPERTIES_ORIGIN ["COM"]
properties('MP2/aug-cc-pvtz', properties = ['dipole'])
--------------------------------------------------------------------------

    Molecular point group: c1
  Charge       = 0
  Multiplicity = 1
  Basis Set: AUG-CC-PVTZ
    Blend: AUG-CC-PVTZ
  Basis Set: (AUG-CC-PVTZ AUX)
    Blend: AUG-CC-PVTZ-JKFIT

    Orbital Energies [Eh]
    ---------------------

    Doubly Occupied:

       1A    -20.632739     2A    -15.543841     3A    -11.330665
       4A    -11.282117     5A    -11.255748     6A    -11.246338
       7A    -11.226612     8A    -11.220109     9A     -1.479673
      10A     -1.252476    11A     -1.107779    12A     -1.004364
      13A     -0.941066    14A     -0.858343    15A     -0.836619
      16A     -0.780701    17A     -0.716855    18A     -0.664449
      19A     -0.635603    20A     -0.618036    21A     -0.607865
      22A     -0.571428    23A     -0.561138    24A     -0.543700
      25A     -0.511314    26A     -0.493035    27A     -0.492505
      28A     -0.465330    29A     -0.433107    30A     -0.316907

  @DF-RHF Final Energy:  -361.85668589307193

   => Energetics <=

    Nuclear Repulsion Energy =            374.4533334704697722
    One-Electron Energy =               -1233.3591169407998223
    Two-Electron Energy =                 497.0490975772581805
    Total Energy =                       -361.8566858930719263
  Basis Set: (AUG-CC-PVTZ AUX)
    Blend: AUG-CC-PVTZ-RI
    Molecular point group: c1

    Geometry (in Angstrom), charge = 0, multiplicity = 1:

       Center              X                  Y                   Z               Mass
    ------------   -----------------  -----------------  -----------------  -----------------
         O            0.874851286274    -0.993149192853    -0.419774028529    15.994914619570
         N            0.794936986274     1.045855307147     0.299574671471    14.003074004430
         C           -1.413176713726    -0.135312192853    -0.361735028529    12.000000000000
         C            0.049284286274     0.066588807147    -0.143753028529    12.000000000000
         C           -2.156239713726     1.190179807147    -0.219087028529    12.000000000000
         C           -1.953644713726    -1.197962192853     0.602534971471    12.000000000000
         C            2.129913286274    -0.544012192853    -0.100608028529    12.000000000000
         C            2.015288286274     0.736475807147     0.345267971471    12.000000000000
         H           -1.540609713726    -0.508438192853    -1.387098028529     1.007825032230
         H           -2.034823713726     1.587036807147     0.791636971471     1.007825032230
         H           -3.222513713726     1.040384807147    -0.412848028529     1.007825032230
         H           -1.772505713726     1.935753807147    -0.919014028529     1.007825032230
         H           -1.836593713726    -0.860594192853     1.637055971471     1.007825032230
         H           -1.420942713726    -2.145070192853     0.484632971471     1.007825032230
         H           -3.017566713726    -1.372875192853     0.415555971471     1.007825032230
         H            2.943924286274    -1.235479192853    -0.252396028529     1.007825032230
         H            2.791092286274     1.409109807147     0.682183971471     1.007825032230

  Basis Set: AUG-CC-PVTZ
    Blend: AUG-CC-PVTZ
  Basis Set: (AUG-CC-PVTZ AUX)
    Blend: AUG-CC-PVTZ-JKFIT
	 Reference Energy          =    -361.8566858930719263 [Eh]
	 Singles Energy            =      -0.0000000000000000 [Eh]
	 Same-Spin Energy          =      -0.3820380165168608 [Eh]
	 Opposite-Spin Energy      =      -1.2181822981140269 [Eh]
	 Correlation Energy        =      -1.6002203146308878 [Eh]
	 Total Energy              =    -363.4569062077027866 [Eh]

	 ================> DF-SCS-MP2 Energies <==================
	-----------------------------------------------------------
	 SCS Same-Spin Scale       =       0.3333333333333333 [-]
	 SCS Opposite-Spin Scale   =       1.2000000000000000 [-]
	 SCS Same-Spin Energy      =      -0.1273460055056203 [Eh]
	 SCS Opposite-Spin Energy  =      -1.4618187577368322 [Eh]
	 SCS Correlation Energy    =      -1.5891647632424524 [Eh]
	 SCS Total Energy          =    -363.4458506563144056 [Eh]
	-----------------------------------------------------------

  Dipole Moment: [D]
     X:    -0.0396      Y:    -1.0870      Z:    -0.3295     Total:     1.1366

*** Psi4 exiting successfully. Buy a developer a beer!
