                               Psi4 1.4a3.dev225

  ==> Input File <==

--------------------------------------------------------------------------
#psi4
#
memory 32 gb

molecule  {
0 1
  O        0.9636680    -1.0001680    -0.4301960
  N        0.7679840     1.1102310     0.3050190
  C       -1.3243600    -0.1423310    -0.3721570
  C        0.1381010     0.0595700    -0.1541750
  C       -2.0674230     1.1831610    -0.2295090
  C       -1.8648280    -1.2049810     0.5921130
  C        2.2645124    -0.5346473    -0.0993874
  C        2.1041050     0.7294570     0.3348460
  H       -1.4517930    -0.5154570    -1.3975200
  H       -1.9460070     1.5800180     0.7812150
  H       -3.1336970     1.0333660    -0.4232700
  H       -1.6836890     1.9287350    -0.9294360
  H       -1.7477770    -0.8676130     1.6266340
  H       -1.3321260    -2.1520890     0.4742110
  H       -2.9287500    -1.3798940     0.4051340
  H        3.0327410    -1.2424980    -0.2628180
  H        2.8799090     1.4020910     0.6717620
units angstrom
no_reorient  #important for SAPT in psi4, default
symmetry c1  #important for SAPT in psi4, default
}

set PROPERTIES_ORIGIN ["COM"]
properties('MP2/aug-cc-pvtz', properties = ['dipole'])
--------------------------------------------------------------------------

    Molecular point group: c1
  Charge       = 0
  Multiplicity = 1
  Basis Set: AUG-CC-PVTZ
    Blend: AUG-CC-PVTZ
  Basis Set: (AUG-CC-PVTZ AUX)
    Blend: AUG-CC-PVTZ-JKFIT

    Orbital Energies [Eh]
    ---------------------

    Doubly Occupied:

       1A    -20.626478     2A    -15.558735     3A    -11.336745
       4A    -11.288844     5A    -11.262776     6A    -11.251712
       7A    -11.225558     8A    -11.217293     9A     -1.457813
      10A     -1.222365    11A     -1.103653    12A     -1.009467
      13A     -0.938903    14A     -0.859634    15A     -0.824468
      16A     -0.767045    17A     -0.711238    18A     -0.656013
      19A     -0.633930    20A     -0.607461    21A     -0.600235
      22A     -0.568715    23A     -0.556025    24A     -0.541747
      25A     -0.506117    26A     -0.490825    27A     -0.489476
      28A     -0.454806    29A     -0.447018    30A     -0.337276

  @DF-RHF Final Energy:  -361.87180632993011

   => Energetics <=

    Nuclear Repulsion Energy =            371.4853566124971849
    One-Electron Energy =               -1227.6095851298023263
    Two-Electron Energy =                 494.2524221873750321
    Total Energy =                       -361.8718063299301093
  Basis Set: (AUG-CC-PVTZ AUX)
    Blend: AUG-CC-PVTZ-RI
    Molecular point group: c1

    Geometry (in Angstrom), charge = 0, multiplicity = 1:

       Center              X                  Y                   Z               Mass
    ------------   -----------------  -----------------  -----------------  -----------------
         O            0.884500680182    -1.003920453780    -0.423032274149    15.994914619570
         N            0.688816680182     1.106478546220     0.312182725851    14.003074004430
         C           -1.403527319818    -0.146083453780    -0.364993274149    12.000000000000
         C            0.058933680182     0.055817546220    -0.147011274149    12.000000000000
         C           -2.146590319818     1.179408546220    -0.222345274149    12.000000000000
         C           -1.943995319818    -1.208733453780     0.599276725851    12.000000000000
         C            2.185345080182    -0.538399753780    -0.092223674149    12.000000000000
         C            2.024937680182     0.725704546220     0.342009725851    12.000000000000
         H           -1.530960319818    -0.519209453780    -1.390356274149     1.007825032230
         H           -2.025174319818     1.576265546220     0.788378725851     1.007825032230
         H           -3.212864319818     1.029613546220    -0.416106274149     1.007825032230
         H           -1.762856319818     1.924982546220    -0.922272274149     1.007825032230
         H           -1.826944319818    -0.871365453780     1.633797725851     1.007825032230
         H           -1.411293319818    -2.155841453780     0.481374725851     1.007825032230
         H           -3.007917319818    -1.383646453780     0.412297725851     1.007825032230
         H            2.953573680182    -1.246250453780    -0.255654274149     1.007825032230
         H            2.800741680182     1.398338546220     0.678925725851     1.007825032230

  Basis Set: AUG-CC-PVTZ
    Blend: AUG-CC-PVTZ
  Basis Set: (AUG-CC-PVTZ AUX)
    Blend: AUG-CC-PVTZ-JKFIT
	 Reference Energy          =    -361.8718063299301093 [Eh]
	 Singles Energy            =      -0.0000000000000000 [Eh]
	 Same-Spin Energy          =      -0.3795825402016074 [Eh]
	 Opposite-Spin Energy      =      -1.2186428503987459 [Eh]
	 Correlation Energy        =      -1.5982253906003532 [Eh]
	 Total Energy              =    -363.4700317205304714 [Eh]

	 ================> DF-SCS-MP2 Energies <==================
	-----------------------------------------------------------
	 SCS Same-Spin Scale       =       0.3333333333333333 [-]
	 SCS Opposite-Spin Scale   =       1.2000000000000000 [-]
	 SCS Same-Spin Energy      =      -0.1265275134005358 [Eh]
	 SCS Opposite-Spin Energy  =      -1.4623714204784950 [Eh]
	 SCS Correlation Energy    =      -1.5888989338790307 [Eh]
	 SCS Total Energy          =    -363.4607052638091318 [Eh]
	-----------------------------------------------------------

  Dipole Moment: [D]
     X:     0.2283      Y:    -1.2181      Z:    -0.3486     Total:     1.2874

*** Psi4 exiting successfully. Buy a developer a beer!
