                               Psi4 1.4a3.dev225

  ==> Input File <==

--------------------------------------------------------------------------
#psi4
#
memory 32 gb

molecule  {
0 1
  O        0.9636680    -1.0001680    -0.4301960
  N        0.7679840     1.1102310     0.3050190
  C       -1.3243600    -0.1423310    -0.3721570
  C        0.1277207     0.0757831    -0.1057732
  C       -2.0674230     1.1831610    -0.2295090
  C       -1.8648280    -1.2049810     0.5921130
  C        2.2187300    -0.5510310    -0.1110300
  C        2.1041050     0.7294570     0.3348460
  H       -1.4517930    -0.5154570    -1.3975200
  H       -1.9460070     1.5800180     0.7812150
  H       -3.1336970     1.0333660    -0.4232700
  H       -1.6836890     1.9287350    -0.9294360
  H       -1.7477770    -0.8676130     1.6266340
  H       -1.3321260    -2.1520890     0.4742110
  H       -2.9287500    -1.3798940     0.4051340
  H        3.0327410    -1.2424980    -0.2628180
  H        2.8799090     1.4020910     0.6717620
units angstrom
no_reorient  #important for SAPT in psi4, default
symmetry c1  #important for SAPT in psi4, default
}

set PROPERTIES_ORIGIN ["COM"]
properties('MP2/aug-cc-pvtz', properties = ['dipole'])
--------------------------------------------------------------------------

    Molecular point group: c1
  Charge       = 0
  Multiplicity = 1
  Basis Set: AUG-CC-PVTZ
    Blend: AUG-CC-PVTZ
  Basis Set: (AUG-CC-PVTZ AUX)
    Blend: AUG-CC-PVTZ-JKFIT

    Orbital Energies [Eh]
    ---------------------

    Doubly Occupied:

       1A    -20.627498     2A    -15.560948     3A    -11.333015
       4A    -11.291627     5A    -11.259450     6A    -11.251679
       7A    -11.224957     8A    -11.217340     9A     -1.464642
      10A     -1.233110    11A     -1.103536    12A     -1.005345
      13A     -0.939191    14A     -0.857957    15A     -0.825537
      16A     -0.768137    17A     -0.713355    18A     -0.657771
      19A     -0.635316    20A     -0.605175    21A     -0.603252
      22A     -0.567981    23A     -0.557822    24A     -0.542128
      25A     -0.506014    26A     -0.491421    27A     -0.490047
      28A     -0.456139    29A     -0.451260    30A     -0.332536

  @DF-RHF Final Energy:  -361.87292350325220

   => Energetics <=

    Nuclear Repulsion Energy =            372.3302537678239332
    One-Electron Energy =               -1229.2579784541208028
    Two-Electron Energy =                 495.0548011830446740
    Total Energy =                       -361.8729235032521956
  Basis Set: (AUG-CC-PVTZ AUX)
    Blend: AUG-CC-PVTZ-RI
    Molecular point group: c1

    Geometry (in Angstrom), charge = 0, multiplicity = 1:

       Center              X                  Y                   Z               Mass
    ------------   -----------------  -----------------  -----------------  -----------------
         O            0.890568583524    -1.003902021897    -0.427003793903    15.994914619570
         N            0.694884583524     1.106496978103     0.308211206097    14.003074004430
         C           -1.397459416476    -0.146065021897    -0.368964793903    12.000000000000
         C            0.054621283524     0.072049078103    -0.102580993903    12.000000000000
         C           -2.140522416476     1.179426978103    -0.226316793903    12.000000000000
         C           -1.937927416476    -1.208715021897     0.595305206097    12.000000000000
         C            2.145630583524    -0.554765021897    -0.107837793903    12.000000000000
         C            2.031005583524     0.725722978103     0.338038206097    12.000000000000
         H           -1.524892416476    -0.519191021897    -1.394327793903     1.007825032230
         H           -2.019106416476     1.576283978103     0.784407206097     1.007825032230
         H           -3.206796416476     1.029631978103    -0.420077793903     1.007825032230
         H           -1.756788416476     1.925000978103    -0.926243793903     1.007825032230
         H           -1.820876416476    -0.871347021897     1.629826206097     1.007825032230
         H           -1.405225416476    -2.155823021897     0.477403206097     1.007825032230
         H           -3.001849416476    -1.383628021897     0.408326206097     1.007825032230
         H            2.959641583524    -1.246232021897    -0.259625793903     1.007825032230
         H            2.806809583524     1.398356978103     0.674954206097     1.007825032230

  Basis Set: AUG-CC-PVTZ
    Blend: AUG-CC-PVTZ
  Basis Set: (AUG-CC-PVTZ AUX)
    Blend: AUG-CC-PVTZ-JKFIT
	 Reference Energy          =    -361.8729235032521956 [Eh]
	 Singles Energy            =      -0.0000000000000000 [Eh]
	 Same-Spin Energy          =      -0.3798161570458586 [Eh]
	 Opposite-Spin Energy      =      -1.2185509961039585 [Eh]
	 Correlation Energy        =      -1.5983671531498171 [Eh]
	 Total Energy              =    -363.4712906564020045 [Eh]

	 ================> DF-SCS-MP2 Energies <==================
	-----------------------------------------------------------
	 SCS Same-Spin Scale       =       0.3333333333333333 [-]
	 SCS Opposite-Spin Scale   =       1.2000000000000000 [-]
	 SCS Same-Spin Energy      =      -0.1266053856819529 [Eh]
	 SCS Opposite-Spin Energy  =      -1.4622611953247502 [Eh]
	 SCS Correlation Energy    =      -1.5888665810067031 [Eh]
	 SCS Total Energy          =    -363.4617900842588938 [Eh]
	-----------------------------------------------------------

  Dipole Moment: [D]
     X:     0.1342      Y:    -1.1732      Z:    -0.3353     Total:     1.2275

*** Psi4 exiting successfully. Buy a developer a beer!
