                               Psi4 1.4a3.dev225

  ==> Input File <==

--------------------------------------------------------------------------
#psi4
#
memory 32 gb

molecule  {
0 1
  O        0.9153725    -0.8714475    -0.3891741
  N        0.7679840     1.1102310     0.3050190
  C       -1.3243600    -0.1423310    -0.3721570
  C        0.1381010     0.0595700    -0.1541750
  C       -2.0674230     1.1831610    -0.2295090
  C       -1.8648280    -1.2049810     0.5921130
  C        2.2187300    -0.5510310    -0.1110300
  C        2.1041050     0.7294570     0.3348460
  H       -1.4517930    -0.5154570    -1.3975200
  H       -1.9460070     1.5800180     0.7812150
  H       -3.1336970     1.0333660    -0.4232700
  H       -1.6836890     1.9287350    -0.9294360
  H       -1.7477770    -0.8676130     1.6266340
  H       -1.3321260    -2.1520890     0.4742110
  H       -2.9287500    -1.3798940     0.4051340
  H        3.0327410    -1.2424980    -0.2628180
  H        2.8799090     1.4020910     0.6717620
units angstrom
no_reorient  #important for SAPT in psi4, default
symmetry c1  #important for SAPT in psi4, default
}

set PROPERTIES_ORIGIN ["COM"]
properties('MP2/aug-cc-pvtz', properties = ['dipole'])
--------------------------------------------------------------------------

    Molecular point group: c1
  Charge       = 0
  Multiplicity = 1
  Basis Set: AUG-CC-PVTZ
    Blend: AUG-CC-PVTZ
  Basis Set: (AUG-CC-PVTZ AUX)
    Blend: AUG-CC-PVTZ-JKFIT

    Orbital Energies [Eh]
    ---------------------

    Doubly Occupied:

       1A    -20.634975     2A    -15.540596     3A    -11.321684
       4A    -11.287098     5A    -11.260462     6A    -11.249403
       7A    -11.225697     8A    -11.215068     9A     -1.532775
      10A     -1.211320    11A     -1.109085    12A     -1.023973
      13A     -0.938296    14A     -0.861970    15A     -0.835794
      16A     -0.778683    17A     -0.724550    18A     -0.689390
      19A     -0.649977    20A     -0.611868    21A     -0.597747
      22A     -0.564850    23A     -0.557073    24A     -0.540616
      25A     -0.502503    26A     -0.489385    27A     -0.488313
      28A     -0.441455    29A     -0.436103    30A     -0.335956

  @DF-RHF Final Energy:  -361.86456430191640

   => Energetics <=

    Nuclear Repulsion Energy =            376.5691842162713101
    One-Electron Energy =               -1237.5541673901113882
    Two-Electron Energy =                 499.1204188719236754
    Total Energy =                       -361.8645643019164027
  Basis Set: (AUG-CC-PVTZ AUX)
    Blend: AUG-CC-PVTZ-RI
    Molecular point group: c1

    Geometry (in Angstrom), charge = 0, multiplicity = 1:

       Center              X                  Y                   Z               Mass
    ------------   -----------------  -----------------  -----------------  -----------------
         O            0.848106594386    -0.891966817928    -0.386660036189    15.994914619570
         N            0.700718094386     1.089711682072     0.307533063811    14.003074004430
         C           -1.391625905614    -0.162850317928    -0.369642936189    12.000000000000
         C            0.070835094386     0.039050682072    -0.151660936189    12.000000000000
         C           -2.134688905614     1.162641682072    -0.226994936189    12.000000000000
         C           -1.932093905614    -1.225500317928     0.594627063811    12.000000000000
         C            2.151464094386    -0.571550317928    -0.108515936189    12.000000000000
         C            2.036839094386     0.708937682072     0.337360063811    12.000000000000
         H           -1.519058905614    -0.535976317928    -1.395005936189     1.007825032230
         H           -2.013272905614     1.559498682072     0.783729063811     1.007825032230
         H           -3.200962905614     1.012846682072    -0.420755936189     1.007825032230
         H           -1.750954905614     1.908215682072    -0.926921936189     1.007825032230
         H           -1.815042905614    -0.888132317928     1.629148063811     1.007825032230
         H           -1.399391905614    -2.172608317928     0.476725063811     1.007825032230
         H           -2.996015905614    -1.400413317928     0.407648063811     1.007825032230
         H            2.965475094386    -1.263017317928    -0.260303936189     1.007825032230
         H            2.812643094386     1.381571682072     0.674276063811     1.007825032230

  Basis Set: AUG-CC-PVTZ
    Blend: AUG-CC-PVTZ
  Basis Set: (AUG-CC-PVTZ AUX)
    Blend: AUG-CC-PVTZ-JKFIT
	 Reference Energy          =    -361.8645643019164027 [Eh]
	 Singles Energy            =      -0.0000000000000000 [Eh]
	 Same-Spin Energy          =      -0.3787310990506841 [Eh]
	 Opposite-Spin Energy      =      -1.2130350324877610 [Eh]
	 Correlation Energy        =      -1.5917661315384453 [Eh]
	 Total Energy              =    -363.4563304334548661 [Eh]

	 ================> DF-SCS-MP2 Energies <==================
	-----------------------------------------------------------
	 SCS Same-Spin Scale       =       0.3333333333333333 [-]
	 SCS Opposite-Spin Scale   =       1.2000000000000000 [-]
	 SCS Same-Spin Energy      =      -0.1262436996835614 [Eh]
	 SCS Opposite-Spin Energy  =      -1.4556420389853131 [Eh]
	 SCS Correlation Energy    =      -1.5818857386688745 [Eh]
	 SCS Total Energy          =    -363.4464500405852618 [Eh]
	-----------------------------------------------------------

  Dipole Moment: [D]
     X:     0.3159      Y:    -1.6972      Z:    -0.5154     Total:     1.8017

*** Psi4 exiting successfully. Buy a developer a beer!
