                               Psi4 1.4a3.dev225

  ==> Input File <==

--------------------------------------------------------------------------
#psi4
#
memory 32 gb

molecule  {
0 1
  O        0.9636680    -1.0001680    -0.4301960
  N        0.7679840     1.1102310     0.3050190
  C       -1.3243600    -0.1423310    -0.3721570
  C        0.1381010     0.0595700    -0.1541750
  C       -2.0674230     1.1831610    -0.2295090
  C       -1.8648280    -1.2049810     0.5921130
  C        2.2187300    -0.5510310    -0.1110300
  C        2.1041050     0.7294570     0.3348460
  H       -1.4575930    -0.5324395    -1.4441886
  H       -1.9460070     1.5800180     0.7812150
  H       -3.1336970     1.0333660    -0.4232700
  H       -1.6836890     1.9287350    -0.9294360
  H       -1.7477770    -0.8676130     1.6266340
  H       -1.3321260    -2.1520890     0.4742110
  H       -2.9287500    -1.3798940     0.4051340
  H        3.0327410    -1.2424980    -0.2628180
  H        2.8799090     1.4020910     0.6717620
units angstrom
no_reorient  #important for SAPT in psi4, default
symmetry c1  #important for SAPT in psi4, default
}

set PROPERTIES_ORIGIN ["COM"]
properties('MP2/aug-cc-pvtz', properties = ['dipole'])
--------------------------------------------------------------------------

    Molecular point group: c1
  Charge       = 0
  Multiplicity = 1
  Basis Set: AUG-CC-PVTZ
    Blend: AUG-CC-PVTZ
  Basis Set: (AUG-CC-PVTZ AUX)
    Blend: AUG-CC-PVTZ-JKFIT

    Orbital Energies [Eh]
    ---------------------

    Doubly Occupied:

       1A    -20.633487     2A    -15.560442     3A    -11.335132
       4A    -11.290495     5A    -11.260200     6A    -11.257465
       7A    -11.225916     8A    -11.217657     9A     -1.475697
      10A     -1.225716    11A     -1.102115    12A     -1.005981
      13A     -0.939358    14A     -0.858053    15A     -0.826508
      16A     -0.770371    17A     -0.709992    18A     -0.661445
      19A     -0.634787    20A     -0.607069    21A     -0.599524
      22A     -0.571690    23A     -0.558090    24A     -0.542047
      25A     -0.506727    26A     -0.491196    27A     -0.484505
      28A     -0.455491    29A     -0.448334    30A     -0.331073

  @DF-RHF Final Energy:  -361.87213792954776

   => Energetics <=

    Nuclear Repulsion Energy =            372.0715017942495706
    One-Electron Energy =               -1228.7141551332867948
    Two-Electron Energy =                 494.7705154094894624
    Total Energy =                       -361.8721379295477618
  Basis Set: (AUG-CC-PVTZ AUX)
    Blend: AUG-CC-PVTZ-RI
    Molecular point group: c1

    Geometry (in Angstrom), charge = 0, multiplicity = 1:

       Center              X                  Y                   Z               Mass
    ------------   -----------------  -----------------  -----------------  -----------------
         O            0.889499708849    -1.001996236254    -0.421350923198    15.994914619570
         N            0.693815708849     1.108402763746     0.313864076802    14.003074004430
         C           -1.398528291151    -0.144159236254    -0.363311923198    12.000000000000
         C            0.063932708849     0.057741763746    -0.145329923198    12.000000000000
         C           -2.141591291151     1.181332763746    -0.220663923198    12.000000000000
         C           -1.938996291151    -1.206809236254     0.600958076802    12.000000000000
         C            2.144561708849    -0.552859236254    -0.102184923198    12.000000000000
         C            2.029936708849     0.727628763746     0.343691076802    12.000000000000
         H           -1.531761291151    -0.534267736254    -1.435343523198     1.007825032230
         H           -2.020175291151     1.578189763746     0.790060076802     1.007825032230
         H           -3.207865291151     1.031537763746    -0.414424923198     1.007825032230
         H           -1.757857291151     1.926906763746    -0.920590923198     1.007825032230
         H           -1.821945291151    -0.869441236254     1.635479076802     1.007825032230
         H           -1.406294291151    -2.153917236254     0.483056076802     1.007825032230
         H           -3.002918291151    -1.381722236254     0.413979076802     1.007825032230
         H            2.958572708849    -1.244326236254    -0.253972923198     1.007825032230
         H            2.805740708849     1.400262763746     0.680607076802     1.007825032230

  Basis Set: AUG-CC-PVTZ
    Blend: AUG-CC-PVTZ
  Basis Set: (AUG-CC-PVTZ AUX)
    Blend: AUG-CC-PVTZ-JKFIT
	 Reference Energy          =    -361.8721379295477618 [Eh]
	 Singles Energy            =      -0.0000000000000000 [Eh]
	 Same-Spin Energy          =      -0.3800337192559009 [Eh]
	 Opposite-Spin Energy      =      -1.2188121703617529 [Eh]
	 Correlation Energy        =      -1.5988458896176538 [Eh]
	 Total Energy              =    -363.4709838191654399 [Eh]

	 ================> DF-SCS-MP2 Energies <==================
	-----------------------------------------------------------
	 SCS Same-Spin Scale       =       0.3333333333333333 [-]
	 SCS Opposite-Spin Scale   =       1.2000000000000000 [-]
	 SCS Same-Spin Energy      =      -0.1266779064186336 [Eh]
	 SCS Opposite-Spin Energy  =      -1.4625746044341035 [Eh]
	 SCS Correlation Energy    =      -1.5892525108527371 [Eh]
	 SCS Total Energy          =    -363.4613904404005211 [Eh]
	-----------------------------------------------------------

  Dipole Moment: [D]
     X:     0.1818      Y:    -1.2475      Z:    -0.3461     Total:     1.3073

*** Psi4 exiting successfully. Buy a developer a beer!
