                               Psi4 1.4a3.dev225

  ==> Input File <==

--------------------------------------------------------------------------
#psi4
#
memory 32 gb

molecule  {
0 1
  O        0.9636680    -1.0001680    -0.4301960
  N        0.7877935     1.0991117     0.3027200
  C       -1.3243600    -0.1423310    -0.3721570
  C        0.1381010     0.0595700    -0.1541750
  C       -2.0674230     1.1831610    -0.2295090
  C       -1.8648280    -1.2049810     0.5921130
  C        2.2187300    -0.5510310    -0.1110300
  C        2.1041050     0.7294570     0.3348460
  H       -1.4517930    -0.5154570    -1.3975200
  H       -1.9460070     1.5800180     0.7812150
  H       -3.1336970     1.0333660    -0.4232700
  H       -1.6836890     1.9287350    -0.9294360
  H       -1.7477770    -0.8676130     1.6266340
  H       -1.3321260    -2.1520890     0.4742110
  H       -2.9287500    -1.3798940     0.4051340
  H        3.0327410    -1.2424980    -0.2628180
  H        2.8799090     1.4020910     0.6717620
units angstrom
no_reorient  #important for SAPT in psi4, default
symmetry c1  #important for SAPT in psi4, default
}

set PROPERTIES_ORIGIN ["COM"]
properties('MP2/aug-cc-pvtz', properties = ['dipole'])
--------------------------------------------------------------------------

    Molecular point group: c1
  Charge       = 0
  Multiplicity = 1
  Basis Set: AUG-CC-PVTZ
    Blend: AUG-CC-PVTZ
  Basis Set: (AUG-CC-PVTZ AUX)
    Blend: AUG-CC-PVTZ-JKFIT

    Orbital Energies [Eh]
    ---------------------

    Doubly Occupied:

       1A    -20.633305     2A    -15.557537     3A    -11.334133
       4A    -11.288888     5A    -11.257899     6A    -11.252287
       7A    -11.225716     8A    -11.217741     9A     -1.476078
      10A     -1.229304    11A     -1.104552    12A     -1.005688
      13A     -0.939394    14A     -0.859178    15A     -0.827385
      16A     -0.774010    17A     -0.713851    18A     -0.662084
      19A     -0.635956    20A     -0.607448    21A     -0.602540
      22A     -0.571515    23A     -0.558467    24A     -0.542122
      25A     -0.507337    26A     -0.491479    27A     -0.490003
      28A     -0.452331    29A     -0.450725    30A     -0.328820

  @DF-RHF Final Energy:  -361.87422557995825

   => Energetics <=

    Nuclear Repulsion Energy =            372.6417909389776355
    One-Electron Energy =               -1229.8364828045180275
    Two-Electron Energy =                 495.3204662855820857
    Total Energy =                       -361.8742255799582495
  Basis Set: (AUG-CC-PVTZ AUX)
    Blend: AUG-CC-PVTZ-RI
    Molecular point group: c1

    Geometry (in Angstrom), charge = 0, multiplicity = 1:

       Center              X                  Y                   Z               Mass
    ------------   -----------------  -----------------  -----------------  -----------------
         O            0.886949575380    -1.000748455834    -0.421484540990    15.994914619570
         N            0.711075075380     1.098531244166     0.311431459010    14.003074004430
         C           -1.401078424620    -0.142911455834    -0.363445540990    12.000000000000
         C            0.061382575380     0.058989544166    -0.145463540990    12.000000000000
         C           -2.144141424620     1.182580544166    -0.220797540990    12.000000000000
         C           -1.941546424620    -1.205561455834     0.600824459010    12.000000000000
         C            2.142011575380    -0.551611455834    -0.102318540990    12.000000000000
         C            2.027386575380     0.728876544166     0.343557459010    12.000000000000
         H           -1.528511424620    -0.516037455834    -1.388808540990     1.007825032230
         H           -2.022725424620     1.579437544166     0.789926459010     1.007825032230
         H           -3.210415424620     1.032785544166    -0.414558540990     1.007825032230
         H           -1.760407424620     1.928154544166    -0.920724540990     1.007825032230
         H           -1.824495424620    -0.868193455834     1.635345459010     1.007825032230
         H           -1.408844424620    -2.152669455834     0.482922459010     1.007825032230
         H           -3.005468424620    -1.380474455834     0.413845459010     1.007825032230
         H            2.956022575380    -1.243078455834    -0.254106540990     1.007825032230
         H            2.803190575380     1.401510544166     0.680473459010     1.007825032230

  Basis Set: AUG-CC-PVTZ
    Blend: AUG-CC-PVTZ
  Basis Set: (AUG-CC-PVTZ AUX)
    Blend: AUG-CC-PVTZ-JKFIT
	 Reference Energy          =    -361.8742255799582495 [Eh]
	 Singles Energy            =      -0.0000000000000000 [Eh]
	 Same-Spin Energy          =      -0.3802281466633795 [Eh]
	 Opposite-Spin Energy      =      -1.2181960617331362 [Eh]
	 Correlation Energy        =      -1.5984242083965157 [Eh]
	 Total Energy              =    -363.4726497883547722 [Eh]

	 ================> DF-SCS-MP2 Energies <==================
	-----------------------------------------------------------
	 SCS Same-Spin Scale       =       0.3333333333333333 [-]
	 SCS Opposite-Spin Scale   =       1.2000000000000000 [-]
	 SCS Same-Spin Energy      =      -0.1267427155544598 [Eh]
	 SCS Opposite-Spin Energy  =      -1.4618352740797633 [Eh]
	 SCS Correlation Energy    =      -1.5885779896342231 [Eh]
	 SCS Total Energy          =    -363.4628035695924950 [Eh]
	-----------------------------------------------------------

  Dipole Moment: [D]
     X:     0.1392      Y:    -1.2345      Z:    -0.3673     Total:     1.2955

*** Psi4 exiting successfully. Buy a developer a beer!
