                               Psi4 1.4a3.dev225

  ==> Input File <==

--------------------------------------------------------------------------
#psi4
#
memory 32 gb

molecule  {
0 1
  O        0.9636680    -1.0001680    -0.4301960
  N        0.7679840     1.1102310     0.3050190
  C       -1.3243600    -0.1423310    -0.3721570
  C        0.1381010     0.0595700    -0.1541750
  C       -2.0674230     1.1831610    -0.2295090
  C       -1.8718775    -1.2188415     0.6046903
  C        2.2187300    -0.5510310    -0.1110300
  C        2.1041050     0.7294570     0.3348460
  H       -1.4517930    -0.5154570    -1.3975200
  H       -1.9460070     1.5800180     0.7812150
  H       -3.1336970     1.0333660    -0.4232700
  H       -1.6836890     1.9287350    -0.9294360
  H       -1.7477770    -0.8676130     1.6266340
  H       -1.3321260    -2.1520890     0.4742110
  H       -2.9287500    -1.3798940     0.4051340
  H        3.0327410    -1.2424980    -0.2628180
  H        2.8799090     1.4020910     0.6717620
units angstrom
no_reorient  #important for SAPT in psi4, default
symmetry c1  #important for SAPT in psi4, default
}

set PROPERTIES_ORIGIN ["COM"]
properties('MP2/aug-cc-pvtz', properties = ['dipole'])
--------------------------------------------------------------------------

    Molecular point group: c1
  Charge       = 0
  Multiplicity = 1
  Basis Set: AUG-CC-PVTZ
    Blend: AUG-CC-PVTZ
  Basis Set: (AUG-CC-PVTZ AUX)
    Blend: AUG-CC-PVTZ-JKFIT

    Orbital Energies [Eh]
    ---------------------

    Doubly Occupied:

       1A    -20.633358     2A    -15.559944     3A    -11.334626
       4A    -11.290199     5A    -11.259984     6A    -11.252211
       7A    -11.224925     8A    -11.217181     9A     -1.475530
      10A     -1.225352    11A     -1.101389    12A     -1.005472
      13A     -0.939361    14A     -0.859910    15A     -0.826245
      16A     -0.771749    17A     -0.712800    18A     -0.661327
      19A     -0.635814    20A     -0.606727    21A     -0.599596
      22A     -0.571545    23A     -0.557887    24A     -0.544024
      25A     -0.507270    26A     -0.491339    27A     -0.487929
      28A     -0.455179    29A     -0.447974    30A     -0.330793

  @DF-RHF Final Energy:  -361.87417170549884

   => Energetics <=

    Nuclear Repulsion Energy =            372.0026135134013430
    One-Electron Energy =               -1228.5782867976963644
    Two-Electron Energy =                 494.7015015787961829
    Total Energy =                       -361.8741717054988385
  Basis Set: (AUG-CC-PVTZ AUX)
    Blend: AUG-CC-PVTZ-RI
    Molecular point group: c1

    Geometry (in Angstrom), charge = 0, multiplicity = 1:

       Center              X                  Y                   Z               Mass
    ------------   -----------------  -----------------  -----------------  -----------------
         O            0.890208718837    -1.000652824512    -0.423133260555    15.994914619570
         N            0.694524718837     1.109746175488     0.312081739445    14.003074004430
         C           -1.397819281163    -0.142815824512    -0.365094260555    12.000000000000
         C            0.064641718837     0.059085175488    -0.147112260555    12.000000000000
         C           -2.140882281163     1.182676175488    -0.222446260555    12.000000000000
         C           -1.945336781163    -1.219326324512     0.611753039445    12.000000000000
         C            2.145270718837    -0.551515824512    -0.103967260555    12.000000000000
         C            2.030645718837     0.728972175488     0.341908739445    12.000000000000
         H           -1.525252281163    -0.515941824512    -1.390457260555     1.007825032230
         H           -2.019466281163     1.579533175488     0.788277739445     1.007825032230
         H           -3.207156281163     1.032881175488    -0.416207260555     1.007825032230
         H           -1.757148281163     1.928250175488    -0.922373260555     1.007825032230
         H           -1.821236281163    -0.868097824512     1.633696739445     1.007825032230
         H           -1.405585281163    -2.152573824512     0.481273739445     1.007825032230
         H           -3.002209281163    -1.380378824512     0.412196739445     1.007825032230
         H            2.959281718837    -1.242982824512    -0.255755260555     1.007825032230
         H            2.806449718837     1.401606175488     0.678824739445     1.007825032230

  Basis Set: AUG-CC-PVTZ
    Blend: AUG-CC-PVTZ
  Basis Set: (AUG-CC-PVTZ AUX)
    Blend: AUG-CC-PVTZ-JKFIT
	 Reference Energy          =    -361.8741717054988385 [Eh]
	 Singles Energy            =      -0.0000000000000000 [Eh]
	 Same-Spin Energy          =      -0.3798667358141730 [Eh]
	 Opposite-Spin Energy      =      -1.2183243289335710 [Eh]
	 Correlation Energy        =      -1.5981910647477440 [Eh]
	 Total Energy              =    -363.4723627702466047 [Eh]

	 ================> DF-SCS-MP2 Energies <==================
	-----------------------------------------------------------
	 SCS Same-Spin Scale       =       0.3333333333333333 [-]
	 SCS Opposite-Spin Scale   =       1.2000000000000000 [-]
	 SCS Same-Spin Energy      =      -0.1266222452713910 [Eh]
	 SCS Opposite-Spin Energy  =      -1.4619891947202852 [Eh]
	 SCS Correlation Energy    =      -1.5886114399916762 [Eh]
	 SCS Total Energy          =    -363.4627831454905049 [Eh]
	-----------------------------------------------------------

  Dipole Moment: [D]
     X:     0.1686      Y:    -1.2575      Z:    -0.3721     Total:     1.3222

*** Psi4 exiting successfully. Buy a developer a beer!
