                               Psi4 1.4a3.dev225

  ==> Input File <==

--------------------------------------------------------------------------
#psi4
#
memory 32 gb

molecule  {
0 1
  O        0.9636680    -1.0001680    -0.4301960
  N        0.7679840     1.1102310     0.3050190
  C       -1.3243600    -0.1423310    -0.3721570
  C        0.1381010     0.0595700    -0.1541750
  C       -2.0674230     1.1831610    -0.2295090
  C       -1.8648280    -1.2049810     0.5921130
  C        2.2187300    -0.5510310    -0.1110300
  C        2.1041050     0.7294570     0.3348460
  H       -1.4517930    -0.5154570    -1.3975200
  H       -1.9460070     1.5800180     0.7812150
  H       -3.2311591     1.0196741    -0.4409806
  H       -1.6836890     1.9287350    -0.9294360
  H       -1.7477770    -0.8676130     1.6266340
  H       -1.3321260    -2.1520890     0.4742110
  H       -2.9287500    -1.3798940     0.4051340
  H        3.0327410    -1.2424980    -0.2628180
  H        2.8799090     1.4020910     0.6717620
units angstrom
no_reorient  #important for SAPT in psi4, default
symmetry c1  #important for SAPT in psi4, default
}

set PROPERTIES_ORIGIN ["COM"]
properties('MP2/aug-cc-pvtz', properties = ['dipole'])
--------------------------------------------------------------------------

    Molecular point group: c1
  Charge       = 0
  Multiplicity = 1
  Basis Set: AUG-CC-PVTZ
    Blend: AUG-CC-PVTZ
  Basis Set: (AUG-CC-PVTZ AUX)
    Blend: AUG-CC-PVTZ-JKFIT

    Orbital Energies [Eh]
    ---------------------

    Doubly Occupied:

       1A    -20.634238     2A    -15.560981     3A    -11.335745
       4A    -11.290977     5A    -11.260696     6A    -11.252666
       7A    -11.229363     8A    -11.225531     9A     -1.476390
      10A     -1.226319    11A     -1.103579    12A     -1.005759
      13A     -0.935009    14A     -0.857721    15A     -0.825786
      16A     -0.771929    17A     -0.714117    18A     -0.662367
      19A     -0.634552    20A     -0.607706    21A     -0.599852
      22A     -0.572320    23A     -0.556778    24A     -0.534365
      25A     -0.498029    26A     -0.492156    27A     -0.489629
      28A     -0.456036    29A     -0.448978    30A     -0.331782

  @DF-RHF Final Energy:  -361.86778102840350

   => Energetics <=

    Nuclear Repulsion Energy =            371.8925048264072757
    One-Electron Energy =               -1228.3378594532534862
    Two-Electron Energy =                 494.5775735984427115
    Total Energy =                       -361.8677810284034990
  Basis Set: (AUG-CC-PVTZ AUX)
    Blend: AUG-CC-PVTZ-RI
    Molecular point group: c1

    Geometry (in Angstrom), charge = 0, multiplicity = 1:

       Center              X                  Y                   Z               Mass
    ------------   -----------------  -----------------  -----------------  -----------------
         O            0.890331442693    -1.002026094869    -0.421613685547    15.994914619570
         N            0.694647442693     1.108372905131     0.313601314453    14.003074004430
         C           -1.397696557307    -0.144189094869    -0.363574685547    12.000000000000
         C            0.064764442693     0.057711905131    -0.145592685547    12.000000000000
         C           -2.140759557307     1.181302905131    -0.220926685547    12.000000000000
         C           -1.938164557307    -1.206839094869     0.600695314453    12.000000000000
         C            2.145393442693    -0.552889094869    -0.102447685547    12.000000000000
         C            2.030768442693     0.727598905131     0.343428314453    12.000000000000
         H           -1.525129557307    -0.517315094869    -1.388937685547     1.007825032230
         H           -2.019343557307     1.578159905131     0.789797314453     1.007825032230
         H           -3.304495657307     1.017816005131    -0.432398285547     1.007825032230
         H           -1.757025557307     1.926876905131    -0.920853685547     1.007825032230
         H           -1.821113557307    -0.869471094869     1.635216314453     1.007825032230
         H           -1.405462557307    -2.153947094869     0.482793314453     1.007825032230
         H           -3.002086557307    -1.381752094869     0.413716314453     1.007825032230
         H            2.959404442693    -1.244356094869    -0.254235685547     1.007825032230
         H            2.806572442693     1.400232905131     0.680344314453     1.007825032230

  Basis Set: AUG-CC-PVTZ
    Blend: AUG-CC-PVTZ
  Basis Set: (AUG-CC-PVTZ AUX)
    Blend: AUG-CC-PVTZ-JKFIT
	 Reference Energy          =    -361.8677810284034990 [Eh]
	 Singles Energy            =      -0.0000000000000000 [Eh]
	 Same-Spin Energy          =      -0.3799673585433279 [Eh]
	 Opposite-Spin Energy      =      -1.2191579631551406 [Eh]
	 Correlation Energy        =      -1.5991253216984684 [Eh]
	 Total Energy              =    -363.4669063501019650 [Eh]

	 ================> DF-SCS-MP2 Energies <==================
	-----------------------------------------------------------
	 SCS Same-Spin Scale       =       0.3333333333333333 [-]
	 SCS Opposite-Spin Scale   =       1.2000000000000000 [-]
	 SCS Same-Spin Energy      =      -0.1266557861811093 [Eh]
	 SCS Opposite-Spin Energy  =      -1.4629895557861687 [Eh]
	 SCS Correlation Energy    =      -1.5896453419672780 [Eh]
	 SCS Total Energy          =    -363.4574263703707970 [Eh]
	-----------------------------------------------------------

  Dipole Moment: [D]
     X:     0.2609      Y:    -1.2639      Z:    -0.3611     Total:     1.3401

*** Psi4 exiting successfully. Buy a developer a beer!
