                               Psi4 1.4a3.dev225

  ==> Input File <==

--------------------------------------------------------------------------
#psi4
#
memory 32 gb

molecule  {
0 1
  O        0.9636680    -1.0001680    -0.4301960
  N        0.7679840     1.1102310     0.3050190
  C       -1.3243600    -0.1423310    -0.3721570
  C        0.1381010     0.0595700    -0.1541750
  C       -2.0674230     1.1831610    -0.2295090
  C       -1.8472042    -1.1703296     0.5606697
  C        2.2187300    -0.5510310    -0.1110300
  C        2.1041050     0.7294570     0.3348460
  H       -1.4517930    -0.5154570    -1.3975200
  H       -1.9460070     1.5800180     0.7812150
  H       -3.1336970     1.0333660    -0.4232700
  H       -1.6836890     1.9287350    -0.9294360
  H       -1.7477770    -0.8676130     1.6266340
  H       -1.3321260    -2.1520890     0.4742110
  H       -2.9287500    -1.3798940     0.4051340
  H        3.0327410    -1.2424980    -0.2628180
  H        2.8799090     1.4020910     0.6717620
units angstrom
no_reorient  #important for SAPT in psi4, default
symmetry c1  #important for SAPT in psi4, default
}

set PROPERTIES_ORIGIN ["COM"]
properties('MP2/aug-cc-pvtz', properties = ['dipole'])
--------------------------------------------------------------------------

    Molecular point group: c1
  Charge       = 0
  Multiplicity = 1
  Basis Set: AUG-CC-PVTZ
    Blend: AUG-CC-PVTZ
  Basis Set: (AUG-CC-PVTZ AUX)
    Blend: AUG-CC-PVTZ-JKFIT

    Orbital Energies [Eh]
    ---------------------

    Doubly Occupied:

       1A    -20.633825     2A    -15.560559     3A    -11.335071
       4A    -11.290615     5A    -11.260277     6A    -11.249709
       7A    -11.227397     8A    -11.217422     9A     -1.476002
      10A     -1.225894    11A     -1.110270    12A     -1.007554
      13A     -0.938458    14A     -0.858032    15A     -0.826695
      16A     -0.772365    17A     -0.715201    18A     -0.663339
      19A     -0.636776    20A     -0.609822    21A     -0.599598
      22A     -0.571918    23A     -0.558562    24A     -0.537041
      25A     -0.507551    26A     -0.493697    27A     -0.483197
      28A     -0.455299    29A     -0.448752    30A     -0.331852

  @DF-RHF Final Energy:  -361.87123390391656

   => Energetics <=

    Nuclear Repulsion Energy =            373.1402382575187744
    One-Electron Energy =               -1230.8174433049862273
    Two-Electron Energy =                 495.8059711435508348
    Total Energy =                       -361.8712339039165613
  Basis Set: (AUG-CC-PVTZ AUX)
    Blend: AUG-CC-PVTZ-RI
    Molecular point group: c1

    Geometry (in Angstrom), charge = 0, multiplicity = 1:

       Center              X                  Y                   Z               Mass
    ------------   -----------------  -----------------  -----------------  -----------------
         O            0.887542978060    -1.005894123811    -0.418377208124    15.994914619570
         N            0.691858978060     1.104504876189     0.316837791876    14.003074004430
         C           -1.400485021940    -0.148057123811    -0.360338208124    12.000000000000
         C            0.061975978060     0.053843876189    -0.142356208124    12.000000000000
         C           -2.143548021940     1.177434876189    -0.217690208124    12.000000000000
         C           -1.923329221940    -1.176055723811     0.572488491876    12.000000000000
         C            2.142604978060    -0.556757123811    -0.099211208124    12.000000000000
         C            2.027979978060     0.723730876189     0.346664791876    12.000000000000
         H           -1.527918021940    -0.521183123811    -1.385701208124     1.007825032230
         H           -2.022132021940     1.574291876189     0.793033791876     1.007825032230
         H           -3.209822021940     1.027639876189    -0.411451208124     1.007825032230
         H           -1.759814021940     1.923008876189    -0.917617208124     1.007825032230
         H           -1.823902021940    -0.873339123811     1.638452791876     1.007825032230
         H           -1.408251021940    -2.157815123811     0.486029791876     1.007825032230
         H           -3.004875021940    -1.385620123811     0.416952791876     1.007825032230
         H            2.956615978060    -1.248224123811    -0.250999208124     1.007825032230
         H            2.803783978060     1.396364876189     0.683580791876     1.007825032230

  Basis Set: AUG-CC-PVTZ
    Blend: AUG-CC-PVTZ
  Basis Set: (AUG-CC-PVTZ AUX)
    Blend: AUG-CC-PVTZ-JKFIT
	 Reference Energy          =    -361.8712339039165613 [Eh]
	 Singles Energy            =      -0.0000000000000000 [Eh]
	 Same-Spin Energy          =      -0.3804192011938464 [Eh]
	 Opposite-Spin Energy      =      -1.2189195737868703 [Eh]
	 Correlation Energy        =      -1.5993387749807166 [Eh]
	 Total Energy              =    -363.4705726788972697 [Eh]

	 ================> DF-SCS-MP2 Energies <==================
	-----------------------------------------------------------
	 SCS Same-Spin Scale       =       0.3333333333333333 [-]
	 SCS Opposite-Spin Scale   =       1.2000000000000000 [-]
	 SCS Same-Spin Energy      =      -0.1268064003979488 [Eh]
	 SCS Opposite-Spin Energy  =      -1.4627034885442443 [Eh]
	 SCS Correlation Energy    =      -1.5895098889421930 [Eh]
	 SCS Total Energy          =    -363.4607437928587501 [Eh]
	-----------------------------------------------------------

  Dipole Moment: [D]
     X:     0.1944      Y:    -1.2526      Z:    -0.3763     Total:     1.3222

*** Psi4 exiting successfully. Buy a developer a beer!
