                               Psi4 1.4a3.dev225

  ==> Input File <==

--------------------------------------------------------------------------
#psi4
#
memory 32 gb

molecule  {
0 1
  O        0.9636680    -1.0001680    -0.4301960
  N        0.7679840     1.1102310     0.3050190
  C       -1.3243600    -0.1423310    -0.3721570
  C        0.1381010     0.0595700    -0.1541750
  C       -2.0674230     1.1831610    -0.2295090
  C       -1.8648280    -1.2049810     0.5921130
  C        2.2656649    -0.5482981    -0.1042827
  C        2.1041050     0.7294570     0.3348460
  H       -1.4517930    -0.5154570    -1.3975200
  H       -1.9460070     1.5800180     0.7812150
  H       -3.1336970     1.0333660    -0.4232700
  H       -1.6836890     1.9287350    -0.9294360
  H       -1.7477770    -0.8676130     1.6266340
  H       -1.3321260    -2.1520890     0.4742110
  H       -2.9287500    -1.3798940     0.4051340
  H        3.0327410    -1.2424980    -0.2628180
  H        2.8799090     1.4020910     0.6717620
units angstrom
no_reorient  #important for SAPT in psi4, default
symmetry c1  #important for SAPT in psi4, default
}

set PROPERTIES_ORIGIN ["COM"]
properties('MP2/aug-cc-pvtz', properties = ['dipole'])
--------------------------------------------------------------------------

    Molecular point group: c1
  Charge       = 0
  Multiplicity = 1
  Basis Set: AUG-CC-PVTZ
    Blend: AUG-CC-PVTZ
  Basis Set: (AUG-CC-PVTZ AUX)
    Blend: AUG-CC-PVTZ-JKFIT

    Orbital Energies [Eh]
    ---------------------

    Doubly Occupied:

       1A    -20.627327     2A    -15.559396     3A    -11.336847
       4A    -11.289634     5A    -11.264652     6A    -11.251859
       7A    -11.225605     8A    -11.217440     9A     -1.458800
      10A     -1.222485    11A     -1.103358    12A     -1.007695
      13A     -0.939029    14A     -0.858928    15A     -0.826478
      16A     -0.766742    17A     -0.712123    18A     -0.657154
      19A     -0.636072    20A     -0.608067    21A     -0.600347
      22A     -0.566888    23A     -0.556133    24A     -0.541859
      25A     -0.506462    26A     -0.490952    27A     -0.489593
      28A     -0.455296    29A     -0.446740    30A     -0.334688

  @DF-RHF Final Energy:  -361.87107775319112

   => Energetics <=

    Nuclear Repulsion Energy =            371.3336473708681638
    One-Electron Energy =               -1227.2921470994256197
    Two-Electron Energy =                 494.0874219753662828
    Total Energy =                       -361.8710777531911162
  Basis Set: (AUG-CC-PVTZ AUX)
    Blend: AUG-CC-PVTZ-RI
    Molecular point group: c1

    Geometry (in Angstrom), charge = 0, multiplicity = 1:

       Center              X                  Y                   Z               Mass
    ------------   -----------------  -----------------  -----------------  -----------------
         O            0.884376162333    -1.002445600631    -0.422503378507    15.994914619570
         N            0.688692162333     1.107953399369     0.312711621493    14.003074004430
         C           -1.403651837667    -0.144608600631    -0.364464378507    12.000000000000
         C            0.058809162333     0.057292399369    -0.146482378507    12.000000000000
         C           -2.146714837667     1.180883399369    -0.221816378507    12.000000000000
         C           -1.944119837667    -1.207258600631     0.599805621493    12.000000000000
         C            2.186373062333    -0.550575700631    -0.096590078507    12.000000000000
         C            2.024813162333     0.727179399369     0.342538621493    12.000000000000
         H           -1.531084837667    -0.517734600631    -1.389827378507     1.007825032230
         H           -2.025298837667     1.577740399369     0.788907621493     1.007825032230
         H           -3.212988837667     1.031088399369    -0.415577378507     1.007825032230
         H           -1.762980837667     1.926457399369    -0.921743378507     1.007825032230
         H           -1.827068837667    -0.869890600631     1.634326621493     1.007825032230
         H           -1.411417837667    -2.154366600631     0.481903621493     1.007825032230
         H           -3.008041837667    -1.382171600631     0.412826621493     1.007825032230
         H            2.953449162333    -1.244775600631    -0.255125378507     1.007825032230
         H            2.800617162333     1.399813399369     0.679454621493     1.007825032230

  Basis Set: AUG-CC-PVTZ
    Blend: AUG-CC-PVTZ
  Basis Set: (AUG-CC-PVTZ AUX)
    Blend: AUG-CC-PVTZ-JKFIT
	 Reference Energy          =    -361.8710777531911162 [Eh]
	 Singles Energy            =      -0.0000000000000000 [Eh]
	 Same-Spin Energy          =      -0.3797937140600770 [Eh]
	 Opposite-Spin Energy      =      -1.2189747522003005 [Eh]
	 Correlation Energy        =      -1.5987684662603776 [Eh]
	 Total Energy              =    -363.4698462194514832 [Eh]

	 ================> DF-SCS-MP2 Energies <==================
	-----------------------------------------------------------
	 SCS Same-Spin Scale       =       0.3333333333333333 [-]
	 SCS Opposite-Spin Scale   =       1.2000000000000000 [-]
	 SCS Same-Spin Energy      =      -0.1265979046866923 [Eh]
	 SCS Opposite-Spin Energy  =      -1.4627697026403605 [Eh]
	 SCS Correlation Energy    =      -1.5893676073270528 [Eh]
	 SCS Total Energy          =    -363.4604453605181789 [Eh]
	-----------------------------------------------------------

  Dipole Moment: [D]
     X:     0.2165      Y:    -1.2318      Z:    -0.3554     Total:     1.3002

*** Psi4 exiting successfully. Buy a developer a beer!
