                               Psi4 1.4a3.dev225

  ==> Input File <==

--------------------------------------------------------------------------
#psi4
#
memory 32 gb

molecule  {
0 1
  O        0.9636680    -1.0001680    -0.4301960
  N        0.7679840     1.1102310     0.3050190
  C       -1.3243600    -0.1423310    -0.3721570
  C        0.1155712     0.0917304    -0.0576960
  C       -2.0674230     1.1831610    -0.2295090
  C       -1.8648280    -1.2049810     0.5921130
  C        2.2187300    -0.5510310    -0.1110300
  C        2.1041050     0.7294570     0.3348460
  H       -1.4517930    -0.5154570    -1.3975200
  H       -1.9460070     1.5800180     0.7812150
  H       -3.1336970     1.0333660    -0.4232700
  H       -1.6836890     1.9287350    -0.9294360
  H       -1.7477770    -0.8676130     1.6266340
  H       -1.3321260    -2.1520890     0.4742110
  H       -2.9287500    -1.3798940     0.4051340
  H        3.0327410    -1.2424980    -0.2628180
  H        2.8799090     1.4020910     0.6717620
units angstrom
no_reorient  #important for SAPT in psi4, default
symmetry c1  #important for SAPT in psi4, default
}

set PROPERTIES_ORIGIN ["COM"]
properties('MP2/aug-cc-pvtz', properties = ['dipole'])
--------------------------------------------------------------------------

    Molecular point group: c1
  Charge       = 0
  Multiplicity = 1
  Basis Set: AUG-CC-PVTZ
    Blend: AUG-CC-PVTZ
  Basis Set: (AUG-CC-PVTZ AUX)
    Blend: AUG-CC-PVTZ-JKFIT

    Orbital Energies [Eh]
    ---------------------

    Doubly Occupied:

       1A    -20.621134     2A    -15.562156     3A    -11.331665
       4A    -11.292910     5A    -11.258802     6A    -11.252045
       7A    -11.224464     8A    -11.217553     9A     -1.453725
      10A     -1.239926    11A     -1.103545    12A     -1.004843
      13A     -0.939429    14A     -0.856406    15A     -0.824854
      16A     -0.763985    17A     -0.713185    18A     -0.654601
      19A     -0.633996    20A     -0.607135    21A     -0.602750
      22A     -0.563948    23A     -0.557510    24A     -0.542426
      25A     -0.506434    26A     -0.491683    27A     -0.489950
      28A     -0.458075    29A     -0.451923    30A     -0.333516

  @DF-RHF Final Energy:  -361.86795104012685

   => Energetics <=

    Nuclear Repulsion Energy =            372.2819844440534212
    One-Electron Energy =               -1229.1907166698797482
    Two-Electron Energy =                 495.0407811856994158
    Total Energy =                       -361.8679510401268544
  Basis Set: (AUG-CC-PVTZ AUX)
    Blend: AUG-CC-PVTZ-RI
    Molecular point group: c1

    Geometry (in Angstrom), charge = 0, multiplicity = 1:

       Center              X                  Y                   Z               Mass
    ------------   -----------------  -----------------  -----------------  -----------------
         O            0.891881233942    -1.005624992391    -0.432198127555    15.994914619570
         N            0.696197233942     1.104774007609     0.303016872445    14.003074004430
         C           -1.396146766058    -0.147787992391    -0.374159127555    12.000000000000
         C            0.043784433942     0.086273407609    -0.059698127555    12.000000000000
         C           -2.139209766058     1.177704007609    -0.231511127555    12.000000000000
         C           -1.936614766058    -1.210437992391     0.590110872445    12.000000000000
         C            2.146943233942    -0.556487992391    -0.113032127555    12.000000000000
         C            2.032318233942     0.724000007609     0.332843872445    12.000000000000
         H           -1.523579766058    -0.520913992391    -1.399522127555     1.007825032230
         H           -2.017793766058     1.574561007609     0.779212872445     1.007825032230
         H           -3.205483766058     1.027909007609    -0.425272127555     1.007825032230
         H           -1.755475766058     1.923278007609    -0.931438127555     1.007825032230
         H           -1.819563766058    -0.873069992391     1.624631872445     1.007825032230
         H           -1.403912766058    -2.157545992391     0.472208872445     1.007825032230
         H           -3.000536766058    -1.385350992391     0.403131872445     1.007825032230
         H            2.960954233942    -1.247954992391    -0.264820127555     1.007825032230
         H            2.808122233942     1.396634007609     0.669759872445     1.007825032230

  Basis Set: AUG-CC-PVTZ
    Blend: AUG-CC-PVTZ
  Basis Set: (AUG-CC-PVTZ AUX)
    Blend: AUG-CC-PVTZ-JKFIT
	 Reference Energy          =    -361.8679510401268544 [Eh]
	 Singles Energy            =      -0.0000000000000000 [Eh]
	 Same-Spin Energy          =      -0.3798557561191661 [Eh]
	 Opposite-Spin Energy      =      -1.2190771753458929 [Eh]
	 Correlation Energy        =      -1.5989329314650589 [Eh]
	 Total Energy              =    -363.4668839715919262 [Eh]

	 ================> DF-SCS-MP2 Energies <==================
	-----------------------------------------------------------
	 SCS Same-Spin Scale       =       0.3333333333333333 [-]
	 SCS Opposite-Spin Scale   =       1.2000000000000000 [-]
	 SCS Same-Spin Energy      =      -0.1266185853730554 [Eh]
	 SCS Opposite-Spin Energy  =      -1.4628926104150715 [Eh]
	 SCS Correlation Energy    =      -1.5895111957881267 [Eh]
	 SCS Total Energy          =    -363.4574622359149885 [Eh]
	-----------------------------------------------------------

  Dipole Moment: [D]
     X:     0.0938      Y:    -1.0834      Z:    -0.2935     Total:     1.1264

*** Psi4 exiting successfully. Buy a developer a beer!
