                               Psi4 1.4a3.dev225

  ==> Input File <==

--------------------------------------------------------------------------
#psi4
#
memory 32 gb

molecule  {
0 1
  O        0.9636680    -1.0001680    -0.4301960
  N        0.7679840     1.1102310     0.3050190
  C       -1.3243600    -0.1423310    -0.3721570
  C        0.1381010     0.0595700    -0.1541750
  C       -2.0674230     1.1831610    -0.2295090
  C       -1.8648280    -1.2049810     0.5921130
  C        2.2422185    -0.5498594    -0.1077237
  C        2.1041050     0.7294570     0.3348460
  H       -1.4517930    -0.5154570    -1.3975200
  H       -1.9460070     1.5800180     0.7812150
  H       -3.1336970     1.0333660    -0.4232700
  H       -1.6836890     1.9287350    -0.9294360
  H       -1.7477770    -0.8676130     1.6266340
  H       -1.3321260    -2.1520890     0.4742110
  H       -2.9287500    -1.3798940     0.4051340
  H        3.0327410    -1.2424980    -0.2628180
  H        2.8799090     1.4020910     0.6717620
units angstrom
no_reorient  #important for SAPT in psi4, default
symmetry c1  #important for SAPT in psi4, default
}

set PROPERTIES_ORIGIN ["COM"]
properties('MP2/aug-cc-pvtz', properties = ['dipole'])
--------------------------------------------------------------------------

    Molecular point group: c1
  Charge       = 0
  Multiplicity = 1
  Basis Set: AUG-CC-PVTZ
    Blend: AUG-CC-PVTZ
  Basis Set: (AUG-CC-PVTZ AUX)
    Blend: AUG-CC-PVTZ-JKFIT

    Orbital Energies [Eh]
    ---------------------

    Doubly Occupied:

       1A    -20.630423     2A    -15.559732     3A    -11.335813
       4A    -11.289874     5A    -11.262329     6A    -11.251708
       7A    -11.225545     8A    -11.217339     9A     -1.466967
      10A     -1.223948    11A     -1.103528    12A     -1.006835
      13A     -0.939025    14A     -0.859060    15A     -0.826287
      16A     -0.769281    17A     -0.712772    18A     -0.659097
      19A     -0.636021    20A     -0.607703    21A     -0.599963
      22A     -0.569485    23A     -0.557264    24A     -0.541838
      25A     -0.506508    26A     -0.491036    27A     -0.489480
      28A     -0.455288    29A     -0.447472    30A     -0.332899

  @DF-RHF Final Energy:  -361.87329076372293

   => Energetics <=

    Nuclear Repulsion Energy =            371.8218129938732659
    One-Electron Energy =               -1228.2411636868980622
    Two-Electron Energy =                 494.5460599293019186
    Total Energy =                       -361.8732907637229346
  Basis Set: (AUG-CC-PVTZ AUX)
    Blend: AUG-CC-PVTZ-RI
    Molecular point group: c1

    Geometry (in Angstrom), charge = 0, multiplicity = 1:

       Center              X                  Y                   Z               Mass
    ------------   -----------------  -----------------  -----------------  -----------------
         O            0.886909346972    -1.002276915409    -0.422131607645    15.994914619570
         N            0.691225346972     1.108122084591     0.313083392355    14.003074004430
         C           -1.401118653028    -0.144439915409    -0.364092607645    12.000000000000
         C            0.061342346972     0.057461084591    -0.146110607645    12.000000000000
         C           -2.144181653028     1.181052084591    -0.221444607645    12.000000000000
         C           -1.941586653028    -1.207089915409     0.600177392355    12.000000000000
         C            2.165459846972    -0.551968315409    -0.099659307645    12.000000000000
         C            2.027346346972     0.727348084591     0.342910392355    12.000000000000
         H           -1.528551653028    -0.517565915409    -1.389455607645     1.007825032230
         H           -2.022765653028     1.577909084591     0.789279392355     1.007825032230
         H           -3.210455653028     1.031257084591    -0.415205607645     1.007825032230
         H           -1.760447653028     1.926626084591    -0.921371607645     1.007825032230
         H           -1.824535653028    -0.869721915409     1.634698392355     1.007825032230
         H           -1.408884653028    -2.154197915409     0.482275392355     1.007825032230
         H           -3.005508653028    -1.382002915409     0.413198392355     1.007825032230
         H            2.955982346972    -1.244606915409    -0.254753607645     1.007825032230
         H            2.803150346972     1.399982084591     0.679826392355     1.007825032230

  Basis Set: AUG-CC-PVTZ
    Blend: AUG-CC-PVTZ
  Basis Set: (AUG-CC-PVTZ AUX)
    Blend: AUG-CC-PVTZ-JKFIT
	 Reference Energy          =    -361.8732907637229346 [Eh]
	 Singles Energy            =      -0.0000000000000000 [Eh]
	 Same-Spin Energy          =      -0.3798803041446678 [Eh]
	 Opposite-Spin Energy      =      -1.2186804845785850 [Eh]
	 Correlation Energy        =      -1.5985607887232529 [Eh]
	 Total Energy              =    -363.4718515524461964 [Eh]

	 ================> DF-SCS-MP2 Energies <==================
	-----------------------------------------------------------
	 SCS Same-Spin Scale       =       0.3333333333333333 [-]
	 SCS Opposite-Spin Scale   =       1.2000000000000000 [-]
	 SCS Same-Spin Energy      =      -0.1266267680482226 [Eh]
	 SCS Opposite-Spin Energy  =      -1.4624165814943020 [Eh]
	 SCS Correlation Energy    =      -1.5890433495425245 [Eh]
	 SCS Total Energy          =    -363.4623341132654559 [Eh]
	-----------------------------------------------------------

  Dipole Moment: [D]
     X:     0.1968      Y:    -1.2447      Z:    -0.3640     Total:     1.3117

*** Psi4 exiting successfully. Buy a developer a beer!
