                               Psi4 1.4a3.dev225

  ==> Input File <==

--------------------------------------------------------------------------
#psi4
#
memory 32 gb

molecule  {
0 1
  O        0.9636680    -1.0001680    -0.4301960
  N        0.7679840     1.1102310     0.3050190
  C       -1.3243600    -0.1423310    -0.3721570
  C        0.1381010     0.0595700    -0.1541750
  C       -2.0674230     1.1831610    -0.2295090
  C       -1.8648280    -1.2049810     0.5921130
  C        2.2187300    -0.5510310    -0.1110300
  C        2.1041050     0.7294570     0.3348460
  H       -1.4517930    -0.5154570    -1.3975200
  H       -1.9460070     1.5800180     0.7812150
  H       -3.1531894     1.0306276    -0.4268121
  H       -1.6836890     1.9287350    -0.9294360
  H       -1.7477770    -0.8676130     1.6266340
  H       -1.3321260    -2.1520890     0.4742110
  H       -2.9287500    -1.3798940     0.4051340
  H        3.0327410    -1.2424980    -0.2628180
  H        2.8799090     1.4020910     0.6717620
units angstrom
no_reorient  #important for SAPT in psi4, default
symmetry c1  #important for SAPT in psi4, default
}

set PROPERTIES_ORIGIN ["COM"]
properties('MP2/aug-cc-pvtz', properties = ['dipole'])
--------------------------------------------------------------------------

    Molecular point group: c1
  Charge       = 0
  Multiplicity = 1
  Basis Set: AUG-CC-PVTZ
    Blend: AUG-CC-PVTZ
  Basis Set: (AUG-CC-PVTZ AUX)
    Blend: AUG-CC-PVTZ-JKFIT

    Orbital Energies [Eh]
    ---------------------

    Doubly Occupied:

       1A    -20.633626     2A    -15.560276     3A    -11.334923
       4A    -11.290436     5A    -11.260181     6A    -11.251749
       7A    -11.225482     8A    -11.219712     9A     -1.475794
      10A     -1.225651    11A     -1.103627    12A     -1.005940
      13A     -0.938057    14A     -0.859024    15A     -0.826230
      16A     -0.771902    17A     -0.713561    18A     -0.661922
      19A     -0.635668    20A     -0.607368    21A     -0.599584
      22A     -0.571772    23A     -0.557396    24A     -0.540189
      25A     -0.505062    26A     -0.491319    27A     -0.489477
      28A     -0.455385    29A     -0.448370    30A     -0.331238

  @DF-RHF Final Energy:  -361.87376984400152

   => Energetics <=

    Nuclear Repulsion Energy =            372.2326473174451280
    One-Electron Energy =               -1229.0309879374494813
    Two-Electron Energy =                 494.9245707760028949
    Total Energy =                       -361.8737698440015151
  Basis Set: (AUG-CC-PVTZ AUX)
    Blend: AUG-CC-PVTZ-RI
    Molecular point group: c1

    Geometry (in Angstrom), charge = 0, multiplicity = 1:

       Center              X                  Y                   Z               Mass
    ------------   -----------------  -----------------  -----------------  -----------------
         O            0.889623952484    -1.002125485966    -0.421742249271    15.994914619570
         N            0.693939952484     1.108273514034     0.313472750729    14.003074004430
         C           -1.398404047516    -0.144288485966    -0.363703249271    12.000000000000
         C            0.064056952484     0.057612514034    -0.145721249271    12.000000000000
         C           -2.141467047516     1.181203514034    -0.221055249271    12.000000000000
         C           -1.938872047516    -1.206938485966     0.600566750729    12.000000000000
         C            2.144685952484    -0.552988485966    -0.102576249271    12.000000000000
         C            2.030060952484     0.727499514034     0.343299750729    12.000000000000
         H           -1.525837047516    -0.517414485966    -1.389066249271     1.007825032230
         H           -2.020051047516     1.578060514034     0.789668750729     1.007825032230
         H           -3.227233447516     1.028670114034    -0.418358349271     1.007825032230
         H           -1.757733047516     1.926777514034    -0.920982249271     1.007825032230
         H           -1.821821047516    -0.869570485966     1.635087750729     1.007825032230
         H           -1.406170047516    -2.154046485966     0.482664750729     1.007825032230
         H           -3.002794047516    -1.381851485966     0.413587750729     1.007825032230
         H            2.958696952484    -1.244455485966    -0.254364249271     1.007825032230
         H            2.805864952484     1.400133514034     0.680215750729     1.007825032230

  Basis Set: AUG-CC-PVTZ
    Blend: AUG-CC-PVTZ
  Basis Set: (AUG-CC-PVTZ AUX)
    Blend: AUG-CC-PVTZ-JKFIT
	 Reference Energy          =    -361.8737698440015151 [Eh]
	 Singles Energy            =      -0.0000000000000000 [Eh]
	 Same-Spin Energy          =      -0.3799824726856859 [Eh]
	 Opposite-Spin Energy      =      -1.2185610347469689 [Eh]
	 Correlation Energy        =      -1.5985435074326548 [Eh]
	 Total Energy              =    -363.4723133514341953 [Eh]

	 ================> DF-SCS-MP2 Energies <==================
	-----------------------------------------------------------
	 SCS Same-Spin Scale       =       0.3333333333333333 [-]
	 SCS Opposite-Spin Scale   =       1.2000000000000000 [-]
	 SCS Same-Spin Energy      =      -0.1266608242285620 [Eh]
	 SCS Opposite-Spin Energy  =      -1.4622732416963626 [Eh]
	 SCS Correlation Energy    =      -1.5889340659249245 [Eh]
	 SCS Total Energy          =    -363.4627039099264607 [Eh]
	-----------------------------------------------------------

  Dipole Moment: [D]
     X:     0.1911      Y:    -1.2583      Z:    -0.3705     Total:     1.3255

*** Psi4 exiting successfully. Buy a developer a beer!
