                               Psi4 1.4a3.dev225

  ==> Input File <==

--------------------------------------------------------------------------
#psi4
#
memory 32 gb

molecule  {
0 1
  O        0.9636680    -1.0001680    -0.4301960
  N        0.7679840     1.1102310     0.3050190
  C       -1.3243600    -0.1423310    -0.3721570
  C        0.1381010     0.0595700    -0.1541750
  C       -2.0674230     1.1831610    -0.2295090
  C       -1.8648280    -1.2049810     0.5921130
  C        2.2187300    -0.5510310    -0.1110300
  C        2.1041050     0.7294570     0.3348460
  H       -1.4517930    -0.5154570    -1.3975200
  H       -1.9437845     1.5872824     0.7997161
  H       -3.1336970     1.0333660    -0.4232700
  H       -1.6836890     1.9287350    -0.9294360
  H       -1.7477770    -0.8676130     1.6266340
  H       -1.3321260    -2.1520890     0.4742110
  H       -2.9287500    -1.3798940     0.4051340
  H        3.0327410    -1.2424980    -0.2628180
  H        2.8799090     1.4020910     0.6717620
units angstrom
no_reorient  #important for SAPT in psi4, default
symmetry c1  #important for SAPT in psi4, default
}

set PROPERTIES_ORIGIN ["COM"]
properties('MP2/aug-cc-pvtz', properties = ['dipole'])
--------------------------------------------------------------------------

    Molecular point group: c1
  Charge       = 0
  Multiplicity = 1
  Basis Set: AUG-CC-PVTZ
    Blend: AUG-CC-PVTZ
  Basis Set: (AUG-CC-PVTZ AUX)
    Blend: AUG-CC-PVTZ-JKFIT

    Orbital Energies [Eh]
    ---------------------

    Doubly Occupied:

       1A    -20.633510     2A    -15.560104     3A    -11.334755
       4A    -11.290323     5A    -11.260061     6A    -11.251767
       7A    -11.225494     8A    -11.219609     9A     -1.475678
      10A     -1.225490    11A     -1.103558    12A     -1.005910
      13A     -0.938027    14A     -0.859020    15A     -0.826244
      16A     -0.771732    17A     -0.713157    18A     -0.661818
      19A     -0.635992    20A     -0.607381    21A     -0.599194
      22A     -0.571656    23A     -0.557308    24A     -0.540184
      25A     -0.506557    26A     -0.490820    27A     -0.488568
      28A     -0.455130    29A     -0.448224    30A     -0.331129

  @DF-RHF Final Energy:  -361.87376985780730

   => Energetics <=

    Nuclear Repulsion Energy =            372.2416539970970462
    One-Electron Energy =               -1229.0540475361390236
    Two-Electron Energy =                 494.9386236812346738
    Total Energy =                       -361.8737698578073037
  Basis Set: (AUG-CC-PVTZ AUX)
    Blend: AUG-CC-PVTZ-RI
    Molecular point group: c1

    Geometry (in Angstrom), charge = 0, multiplicity = 1:

       Center              X                  Y                   Z               Mass
    ------------   -----------------  -----------------  -----------------  -----------------
         O            0.889426913389    -1.002216250495    -0.421942267332    15.994914619570
         N            0.693742913389     1.108182749505     0.313272732668    14.003074004430
         C           -1.398601086611    -0.144379250495    -0.363903267332    12.000000000000
         C            0.063859913389     0.057521749505    -0.145921267332    12.000000000000
         C           -2.141664086611     1.181112749505    -0.221255267332    12.000000000000
         C           -1.939069086611    -1.207029250495     0.600366732668    12.000000000000
         C            2.144488913389    -0.553079250495    -0.102776267332    12.000000000000
         C            2.029863913389     0.727408749505     0.343099732668    12.000000000000
         H           -1.526034086611    -0.517505250495    -1.389266267332     1.007825032230
         H           -2.018025586611     1.585234149505     0.807969832668     1.007825032230
         H           -3.207938086611     1.031317749505    -0.415016267332     1.007825032230
         H           -1.757930086611     1.926686749505    -0.921182267332     1.007825032230
         H           -1.822018086611    -0.869661250495     1.634887732668     1.007825032230
         H           -1.406367086611    -2.154137250495     0.482464732668     1.007825032230
         H           -3.002991086611    -1.381942250495     0.413387732668     1.007825032230
         H            2.958499913389    -1.244546250495    -0.254564267332     1.007825032230
         H            2.805667913389     1.400042749505     0.680015732668     1.007825032230

  Basis Set: AUG-CC-PVTZ
    Blend: AUG-CC-PVTZ
  Basis Set: (AUG-CC-PVTZ AUX)
    Blend: AUG-CC-PVTZ-JKFIT
	 Reference Energy          =    -361.8737698578073037 [Eh]
	 Singles Energy            =      -0.0000000000000000 [Eh]
	 Same-Spin Energy          =      -0.3799956716584102 [Eh]
	 Opposite-Spin Energy      =      -1.2185652531173357 [Eh]
	 Correlation Energy        =      -1.5985609247757457 [Eh]
	 Total Energy              =    -363.4723307825830716 [Eh]

	 ================> DF-SCS-MP2 Energies <==================
	-----------------------------------------------------------
	 SCS Same-Spin Scale       =       0.3333333333333333 [-]
	 SCS Opposite-Spin Scale   =       1.2000000000000000 [-]
	 SCS Same-Spin Energy      =      -0.1266652238861367 [Eh]
	 SCS Opposite-Spin Energy  =      -1.4622783037408027 [Eh]
	 SCS Correlation Energy    =      -1.5889435276269395 [Eh]
	 SCS Total Energy          =    -363.4627133854342560 [Eh]
	-----------------------------------------------------------

  Dipole Moment: [D]
     X:     0.1773      Y:    -1.2612      Z:    -0.3800     Total:     1.3291

*** Psi4 exiting successfully. Buy a developer a beer!
