                               Psi4 1.4a3.dev225

  ==> Input File <==

--------------------------------------------------------------------------
#psi4
#
memory 32 gb

molecule  {
0 1
  O        0.9636680    -1.0001680    -0.4301960
  N        0.7679840     1.1102310     0.3050190
  C       -1.3243600    -0.1423310    -0.3721570
  C        0.1381010     0.0595700    -0.1541750
  C       -2.0674230     1.1831610    -0.2295090
  C       -1.8648280    -1.2049810     0.5921130
  C        2.4018594    -0.4854962    -0.0644596
  C        2.1041050     0.7294570     0.3348460
  H       -1.4517930    -0.5154570    -1.3975200
  H       -1.9460070     1.5800180     0.7812150
  H       -3.1336970     1.0333660    -0.4232700
  H       -1.6836890     1.9287350    -0.9294360
  H       -1.7477770    -0.8676130     1.6266340
  H       -1.3321260    -2.1520890     0.4742110
  H       -2.9287500    -1.3798940     0.4051340
  H        3.0327410    -1.2424980    -0.2628180
  H        2.8799090     1.4020910     0.6717620
units angstrom
no_reorient  #important for SAPT in psi4, default
symmetry c1  #important for SAPT in psi4, default
}

set PROPERTIES_ORIGIN ["COM"]
properties('MP2/aug-cc-pvtz', properties = ['dipole'])
--------------------------------------------------------------------------

    Molecular point group: c1
  Charge       = 0
  Multiplicity = 1
  Basis Set: AUG-CC-PVTZ
    Blend: AUG-CC-PVTZ
  Basis Set: (AUG-CC-PVTZ AUX)
    Blend: AUG-CC-PVTZ-JKFIT

    Orbital Energies [Eh]
    ---------------------

    Doubly Occupied:

       1A    -20.604358     2A    -15.555649     3A    -11.340586
       4A    -11.290958     5A    -11.272336     6A    -11.251464
       7A    -11.225166     8A    -11.216983     9A     -1.416642
      10A     -1.214046    11A     -1.103145    12A     -1.021553
      13A     -0.938173    14A     -0.861614    15A     -0.825460
      16A     -0.757056    17A     -0.705668    18A     -0.651708
      19A     -0.631545    20A     -0.605040    21A     -0.599750
      22A     -0.559812    23A     -0.541128    24A     -0.535406
      25A     -0.500083    26A     -0.489698    27A     -0.488742
      28A     -0.452339    29A     -0.443738    30A     -0.353316

  @DF-RHF Final Energy:  -361.84316344813533

   => Energetics <=

    Nuclear Repulsion Energy =            369.1277463271610486
    One-Electron Energy =               -1223.0354927943521943
    Two-Electron Energy =                 492.0645830190558172
    Total Energy =                       -361.8431634481353285
  Basis Set: (AUG-CC-PVTZ AUX)
    Blend: AUG-CC-PVTZ-RI
    Molecular point group: c1

    Geometry (in Angstrom), charge = 0, multiplicity = 1:

       Center              X                  Y                   Z               Mass
    ------------   -----------------  -----------------  -----------------  -----------------
         O            0.869661501860    -1.009230813217    -0.426805926668    15.994914619570
         N            0.673977501860     1.101168186783     0.308409073332    14.003074004430
         C           -1.418366498140    -0.151393813217    -0.368766926668    12.000000000000
         C            0.044094501860     0.050507186783    -0.150784926668    12.000000000000
         C           -2.161429498140     1.174098186783    -0.226118926668    12.000000000000
         C           -1.958834498140    -1.214043813217     0.595503073332    12.000000000000
         C            2.307852901860    -0.494559013217    -0.061069526668    12.000000000000
         C            2.010098501860     0.720394186783     0.338236073332    12.000000000000
         H           -1.545799498140    -0.524519813217    -1.394129926668     1.007825032230
         H           -2.040013498140     1.570955186783     0.784605073332     1.007825032230
         H           -3.227703498140     1.024303186783    -0.419879926668     1.007825032230
         H           -1.777695498140     1.919672186783    -0.926045926668     1.007825032230
         H           -1.841783498140    -0.876675813217     1.630024073332     1.007825032230
         H           -1.426132498140    -2.161151813217     0.477601073332     1.007825032230
         H           -3.022756498140    -1.388956813217     0.408524073332     1.007825032230
         H            2.938734501860    -1.251560813217    -0.259427926668     1.007825032230
         H            2.785902501860     1.393028186783     0.675152073332     1.007825032230

  Basis Set: AUG-CC-PVTZ
    Blend: AUG-CC-PVTZ
  Basis Set: (AUG-CC-PVTZ AUX)
    Blend: AUG-CC-PVTZ-JKFIT
	 Reference Energy          =    -361.8431634481353285 [Eh]
	 Singles Energy            =      -0.0000000000000000 [Eh]
	 Same-Spin Energy          =      -0.3791403210699299 [Eh]
	 Opposite-Spin Energy      =      -1.2202210723558906 [Eh]
	 Correlation Energy        =      -1.5993613934258204 [Eh]
	 Total Energy              =    -363.4425248415611236 [Eh]

	 ================> DF-SCS-MP2 Energies <==================
	-----------------------------------------------------------
	 SCS Same-Spin Scale       =       0.3333333333333333 [-]
	 SCS Opposite-Spin Scale   =       1.2000000000000000 [-]
	 SCS Same-Spin Energy      =      -0.1263801070233100 [Eh]
	 SCS Opposite-Spin Energy  =      -1.4642652868270687 [Eh]
	 SCS Correlation Energy    =      -1.5906453938503786 [Eh]
	 SCS Total Energy          =    -363.4338088419856945 [Eh]
	-----------------------------------------------------------

  Dipole Moment: [D]
     X:     0.3806      Y:    -1.1208      Z:    -0.2856     Total:     1.2176

*** Psi4 exiting successfully. Buy a developer a beer!
