                               Psi4 1.4a3.dev225

  ==> Input File <==

--------------------------------------------------------------------------
#psi4
#
memory 32 gb

molecule  {
0 1
  O        0.9636680    -1.0001680    -0.4301960
  N        0.7679840     1.1102310     0.3050190
  C       -1.3243600    -0.1423310    -0.3721570
  C        0.1381010     0.0595700    -0.1541750
  C       -2.0674230     1.1831610    -0.2295090
  C       -1.8648280    -1.2049810     0.5921130
  C        2.2187300    -0.5510310    -0.1110300
  C        2.1041050     0.7294570     0.3348460
  H       -1.4517930    -0.5154570    -1.3975200
  H       -1.9515632     1.5618571     0.7349623
  H       -3.1336970     1.0333660    -0.4232700
  H       -1.6836890     1.9287350    -0.9294360
  H       -1.7477770    -0.8676130     1.6266340
  H       -1.3321260    -2.1520890     0.4742110
  H       -2.9287500    -1.3798940     0.4051340
  H        3.0327410    -1.2424980    -0.2628180
  H        2.8799090     1.4020910     0.6717620
units angstrom
no_reorient  #important for SAPT in psi4, default
symmetry c1  #important for SAPT in psi4, default
}

set PROPERTIES_ORIGIN ["COM"]
properties('MP2/aug-cc-pvtz', properties = ['dipole'])
--------------------------------------------------------------------------

    Molecular point group: c1
  Charge       = 0
  Multiplicity = 1
  Basis Set: AUG-CC-PVTZ
    Blend: AUG-CC-PVTZ
  Basis Set: (AUG-CC-PVTZ AUX)
    Blend: AUG-CC-PVTZ-JKFIT

    Orbital Energies [Eh]
    ---------------------

    Doubly Occupied:

       1A    -20.633445     2A    -15.560154     3A    -11.334711
       4A    -11.290302     5A    -11.260079     6A    -11.251036
       7A    -11.225447     8A    -11.211190     9A     -1.475627
      10A     -1.225533    11A     -1.104174    12A     -1.006463
      13A     -0.941917    14A     -0.860582    15A     -0.826721
      16A     -0.772470    17A     -0.714223    18A     -0.661910
      19A     -0.636252    20A     -0.607286    21A     -0.600526
      22A     -0.571650    23A     -0.560010    24A     -0.545304
      25A     -0.506201    26A     -0.493170    27A     -0.489540
      28A     -0.455454    29A     -0.448257    30A     -0.331092

  @DF-RHF Final Energy:  -361.87328310023821

   => Energetics <=

    Nuclear Repulsion Energy =            372.5339168014295979
    One-Electron Energy =               -1229.6129424358005053
    Two-Electron Energy =                 495.2057425341327530
    Total Energy =                       -361.8732831002382113
  Basis Set: (AUG-CC-PVTZ AUX)
    Blend: AUG-CC-PVTZ-RI
    Molecular point group: c1

    Geometry (in Angstrom), charge = 0, multiplicity = 1:

       Center              X                  Y                   Z               Mass
    ------------   -----------------  -----------------  -----------------  -----------------
         O            0.889497496629    -1.001985543556    -0.421354697038    15.994914619570
         N            0.693813496629     1.108413456444     0.313860302962    14.003074004430
         C           -1.398530503371    -0.144148543556    -0.363315697038    12.000000000000
         C            0.063930496629     0.057752456444    -0.145333697038    12.000000000000
         C           -2.141593503371     1.181343456444    -0.220667697038    12.000000000000
         C           -1.938998503371    -1.206798543556     0.600954302962    12.000000000000
         C            2.144559496629    -0.552848543556    -0.102188697038    12.000000000000
         C            2.029934496629     0.727639456444     0.343687302962    12.000000000000
         H           -1.525963503371    -0.517274543556    -1.388678697038     1.007825032230
         H           -2.025733703371     1.560039556444     0.743803602962     1.007825032230
         H           -3.207867503371     1.031548456444    -0.414428697038     1.007825032230
         H           -1.757859503371     1.926917456444    -0.920594697038     1.007825032230
         H           -1.821947503371    -0.869430543556     1.635475302962     1.007825032230
         H           -1.406296503371    -2.153906543556     0.483052302962     1.007825032230
         H           -3.002920503371    -1.381711543556     0.413975302962     1.007825032230
         H            2.958570496629    -1.244315543556    -0.253976697038     1.007825032230
         H            2.805738496629     1.400273456444     0.680603302962     1.007825032230

  Basis Set: AUG-CC-PVTZ
    Blend: AUG-CC-PVTZ
  Basis Set: (AUG-CC-PVTZ AUX)
    Blend: AUG-CC-PVTZ-JKFIT
	 Reference Energy          =    -361.8732831002382113 [Eh]
	 Singles Energy            =      -0.0000000000000000 [Eh]
	 Same-Spin Energy          =      -0.3799701888195091 [Eh]
	 Opposite-Spin Energy      =      -1.2181365944256612 [Eh]
	 Correlation Energy        =      -1.5981067832451703 [Eh]
	 Total Energy              =    -363.4713898834833685 [Eh]

	 ================> DF-SCS-MP2 Energies <==================
	-----------------------------------------------------------
	 SCS Same-Spin Scale       =       0.3333333333333333 [-]
	 SCS Opposite-Spin Scale   =       1.2000000000000000 [-]
	 SCS Same-Spin Energy      =      -0.1266567296065030 [Eh]
	 SCS Opposite-Spin Energy  =      -1.4617639133107934 [Eh]
	 SCS Correlation Energy    =      -1.5884206429172965 [Eh]
	 SCS Total Energy          =    -363.4617037431555104 [Eh]
	-----------------------------------------------------------

  Dipole Moment: [D]
     X:     0.1706      Y:    -1.2478      Z:    -0.3558     Total:     1.3087

*** Psi4 exiting successfully. Buy a developer a beer!
