                               Psi4 1.4a3.dev225

  ==> Input File <==

--------------------------------------------------------------------------
#psi4
#
memory 32 gb

molecule  {
0 1
  O        0.9636680    -1.0001680    -0.4301960
  N        0.7679840     1.1102310     0.3050190
  C       -1.3243600    -0.1423310    -0.3721570
  C        0.1466995     0.0431110    -0.2028423
  C       -2.0674230     1.1831610    -0.2295090
  C       -1.8648280    -1.2049810     0.5921130
  C        2.2187300    -0.5510310    -0.1110300
  C        2.1041050     0.7294570     0.3348460
  H       -1.4517930    -0.5154570    -1.3975200
  H       -1.9460070     1.5800180     0.7812150
  H       -3.1336970     1.0333660    -0.4232700
  H       -1.6836890     1.9287350    -0.9294360
  H       -1.7477770    -0.8676130     1.6266340
  H       -1.3321260    -2.1520890     0.4742110
  H       -2.9287500    -1.3798940     0.4051340
  H        3.0327410    -1.2424980    -0.2628180
  H        2.8799090     1.4020910     0.6717620
units angstrom
no_reorient  #important for SAPT in psi4, default
symmetry c1  #important for SAPT in psi4, default
}

set PROPERTIES_ORIGIN ["COM"]
properties('MP2/aug-cc-pvtz', properties = ['dipole'])
--------------------------------------------------------------------------

    Molecular point group: c1
  Charge       = 0
  Multiplicity = 1
  Basis Set: AUG-CC-PVTZ
    Blend: AUG-CC-PVTZ
  Basis Set: (AUG-CC-PVTZ AUX)
    Blend: AUG-CC-PVTZ-JKFIT

    Orbital Energies [Eh]
    ---------------------

    Doubly Occupied:

       1A    -20.639128     2A    -15.559574     3A    -11.336751
       4A    -11.289020     5A    -11.260650     6A    -11.251608
       7A    -11.226011     8A    -11.217210     9A     -1.486599
      10A     -1.217325    11A     -1.104013    12A     -1.006938
      13A     -0.938908    14A     -0.860797    15A     -0.827372
      16A     -0.775236    17A     -0.713384    18A     -0.666486
      19A     -0.636365    20A     -0.609543    21A     -0.595987
      22A     -0.574611    23A     -0.557615    24A     -0.541472
      25A     -0.507701    26A     -0.490754    27A     -0.487766
      28A     -0.454364    29A     -0.444109    30A     -0.329257

  @DF-RHF Final Energy:  -361.87181013331588

   => Energetics <=

    Nuclear Repulsion Energy =            372.2599239960236446
    One-Electron Energy =               -1229.0503686879214911
    Two-Electron Energy =                 494.9186345585819709
    Total Energy =                       -361.8718101333158756
  Basis Set: (AUG-CC-PVTZ AUX)
    Blend: AUG-CC-PVTZ-RI
    Molecular point group: c1

    Geometry (in Angstrom), charge = 0, multiplicity = 1:

       Center              X                  Y                   Z               Mass
    ------------   -----------------  -----------------  -----------------  -----------------
         O            0.888518085169    -1.000372078629    -0.416516301024    15.994914619570
         N            0.692834085169     1.110026921371     0.318698698976    14.003074004430
         C           -1.399509914831    -0.142535078629    -0.358477301024    12.000000000000
         C            0.071549585169     0.042906921371    -0.189162601024    12.000000000000
         C           -2.142572914831     1.182956921371    -0.215829301024    12.000000000000
         C           -1.939977914831    -1.205185078629     0.605792698976    12.000000000000
         C            2.143580085169    -0.551235078629    -0.097350301024    12.000000000000
         C            2.028955085169     0.729252921371     0.348525698976    12.000000000000
         H           -1.526942914831    -0.515661078629    -1.383840301024     1.007825032230
         H           -2.021156914831     1.579813921371     0.794894698976     1.007825032230
         H           -3.208846914831     1.033161921371    -0.409590301024     1.007825032230
         H           -1.758838914831     1.928530921371    -0.915756301024     1.007825032230
         H           -1.822926914831    -0.867817078629     1.640313698976     1.007825032230
         H           -1.407275914831    -2.152293078629     0.487890698976     1.007825032230
         H           -3.003899914831    -1.380098078629     0.418813698976     1.007825032230
         H            2.957591085169    -1.242702078629    -0.249138301024     1.007825032230
         H            2.804759085169     1.401886921371     0.685441698976     1.007825032230

  Basis Set: AUG-CC-PVTZ
    Blend: AUG-CC-PVTZ
  Basis Set: (AUG-CC-PVTZ AUX)
    Blend: AUG-CC-PVTZ-JKFIT
	 Reference Energy          =    -361.8718101333158756 [Eh]
	 Singles Energy            =      -0.0000000000000000 [Eh]
	 Same-Spin Energy          =      -0.3803619564978184 [Eh]
	 Opposite-Spin Energy      =      -1.2187336530882651 [Eh]
	 Correlation Energy        =      -1.5990956095860835 [Eh]
	 Total Energy              =    -363.4709057429019481 [Eh]

	 ================> DF-SCS-MP2 Energies <==================
	-----------------------------------------------------------
	 SCS Same-Spin Scale       =       0.3333333333333333 [-]
	 SCS Opposite-Spin Scale   =       1.2000000000000000 [-]
	 SCS Same-Spin Energy      =      -0.1267873188326061 [Eh]
	 SCS Opposite-Spin Energy  =      -1.4624803837059182 [Eh]
	 SCS Correlation Energy    =      -1.5892677025385242 [Eh]
	 SCS Total Energy          =    -363.4610778358543826 [Eh]
	-----------------------------------------------------------

  Dipole Moment: [D]
     X:     0.2185      Y:    -1.3352      Z:    -0.4045     Total:     1.4121

*** Psi4 exiting successfully. Buy a developer a beer!
