                               Psi4 1.4a3.dev225

  ==> Input File <==

--------------------------------------------------------------------------
#psi4
#
memory 32 gb

molecule  {
0 1
  O        0.9636680    -1.0001680    -0.4301960
  N        0.7679840     1.1102310     0.3050190
  C       -1.3243600    -0.1423310    -0.3721570
  C        0.1016674     0.1073925    -0.0100019
  C       -2.0674230     1.1831610    -0.2295090
  C       -1.8648280    -1.2049810     0.5921130
  C        2.2187300    -0.5510310    -0.1110300
  C        2.1041050     0.7294570     0.3348460
  H       -1.4517930    -0.5154570    -1.3975200
  H       -1.9460070     1.5800180     0.7812150
  H       -3.1336970     1.0333660    -0.4232700
  H       -1.6836890     1.9287350    -0.9294360
  H       -1.7477770    -0.8676130     1.6266340
  H       -1.3321260    -2.1520890     0.4742110
  H       -2.9287500    -1.3798940     0.4051340
  H        3.0327410    -1.2424980    -0.2628180
  H        2.8799090     1.4020910     0.6717620
units angstrom
no_reorient  #important for SAPT in psi4, default
symmetry c1  #important for SAPT in psi4, default
}

set PROPERTIES_ORIGIN ["COM"]
properties('MP2/aug-cc-pvtz', properties = ['dipole'])
--------------------------------------------------------------------------

    Molecular point group: c1
  Charge       = 0
  Multiplicity = 1
  Basis Set: AUG-CC-PVTZ
    Blend: AUG-CC-PVTZ
  Basis Set: (AUG-CC-PVTZ AUX)
    Blend: AUG-CC-PVTZ-JKFIT

    Orbital Energies [Eh]
    ---------------------

    Doubly Occupied:

       1A    -20.614381     2A    -15.563842     3A    -11.330761
       4A    -11.294133     5A    -11.258126     6A    -11.252669
       7A    -11.224007     8A    -11.217889     9A     -1.443048
      10A     -1.245751    11A     -1.103750    12A     -1.004512
      13A     -0.939752    14A     -0.854838    15A     -0.824285
      16A     -0.759614    17A     -0.712979    18A     -0.652570
      19A     -0.631988    20A     -0.610482    21A     -0.600464
      22A     -0.560294    23A     -0.556410    24A     -0.542673
      25A     -0.507400    26A     -0.492173    27A     -0.489198
      28A     -0.460394    29A     -0.450626    30A     -0.334079

  @DF-RHF Final Energy:  -361.85975032046986

   => Energetics <=

    Nuclear Repulsion Energy =            372.1768430548721085
    One-Electron Energy =               -1229.0070132529353941
    Two-Electron Energy =                 494.9704198775934856
    Total Energy =                       -361.8597503204698569
  Basis Set: (AUG-CC-PVTZ AUX)
    Blend: AUG-CC-PVTZ-RI
    Molecular point group: c1

    Geometry (in Angstrom), charge = 0, multiplicity = 1:

       Center              X                  Y                   Z               Mass
    ------------   -----------------  -----------------  -----------------  -----------------
         O            0.893383421595    -1.007317149444    -0.437351070501    15.994914619570
         N            0.697699421595     1.103081850556     0.297863929499    14.003074004430
         C           -1.394644578405    -0.149480149444    -0.379312070501    12.000000000000
         C            0.031382821595     0.100243350556    -0.017156970501    12.000000000000
         C           -2.137707578405     1.176011850556    -0.236664070501    12.000000000000
         C           -1.935112578405    -1.212130149444     0.584957929499    12.000000000000
         C            2.148445421595    -0.558180149444    -0.118185070501    12.000000000000
         C            2.033820421595     0.722307850556     0.327690929499    12.000000000000
         H           -1.522077578405    -0.522606149444    -1.404675070501     1.007825032230
         H           -2.016291578405     1.572868850556     0.774059929499     1.007825032230
         H           -3.203981578405     1.026216850556    -0.430425070501     1.007825032230
         H           -1.753973578405     1.921585850556    -0.936591070501     1.007825032230
         H           -1.818061578405    -0.874762149444     1.619478929499     1.007825032230
         H           -1.402410578405    -2.159238149444     0.467055929499     1.007825032230
         H           -2.999034578405    -1.387043149444     0.397978929499     1.007825032230
         H            2.962456421595    -1.249647149444    -0.269973070501     1.007825032230
         H            2.809624421595     1.394941850556     0.664606929499     1.007825032230

  Basis Set: AUG-CC-PVTZ
    Blend: AUG-CC-PVTZ
  Basis Set: (AUG-CC-PVTZ AUX)
    Blend: AUG-CC-PVTZ-JKFIT
	 Reference Energy          =    -361.8597503204698569 [Eh]
	 Singles Energy            =      -0.0000000000000000 [Eh]
	 Same-Spin Energy          =      -0.3801079434831839 [Eh]
	 Opposite-Spin Energy      =      -1.2199811276874926 [Eh]
	 Correlation Energy        =      -1.6000890711706766 [Eh]
	 Total Energy              =    -363.4598393916405144 [Eh]

	 ================> DF-SCS-MP2 Energies <==================
	-----------------------------------------------------------
	 SCS Same-Spin Scale       =       0.3333333333333333 [-]
	 SCS Opposite-Spin Scale   =       1.2000000000000000 [-]
	 SCS Same-Spin Energy      =      -0.1267026478277279 [Eh]
	 SCS Opposite-Spin Energy  =      -1.4639773532249911 [Eh]
	 SCS Correlation Energy    =      -1.5906800010527191 [Eh]
	 SCS Total Energy          =    -363.4504303215225605 [Eh]
	-----------------------------------------------------------

  Dipole Moment: [D]
     X:     0.0534      Y:    -0.9877      Z:    -0.2483     Total:     1.0198

*** Psi4 exiting successfully. Buy a developer a beer!
