                               Psi4 1.4a3.dev225

  ==> Input File <==

--------------------------------------------------------------------------
#psi4
#
memory 32 gb

molecule  {
0 1
  O        0.9636680    -1.0001680    -0.4301960
  N        0.7679840     1.1102310     0.3050190
  C       -1.3243600    -0.1423310    -0.3721570
  C        0.1381010     0.0595700    -0.1541750
  C       -2.0674230     1.1831610    -0.2295090
  C       -1.8648280    -1.2049810     0.5921130
  C        2.2187300    -0.5510310    -0.1110300
  C        2.1041050     0.7294570     0.3348460
  H       -1.4517930    -0.5154570    -1.3975200
  H       -1.9460070     1.5800180     0.7812150
  H       -3.1336970     1.0333660    -0.4232700
  H       -1.6766626     1.9423870    -0.9422521
  H       -1.7477770    -0.8676130     1.6266340
  H       -1.3321260    -2.1520890     0.4742110
  H       -2.9287500    -1.3798940     0.4051340
  H        3.0327410    -1.2424980    -0.2628180
  H        2.8799090     1.4020910     0.6717620
units angstrom
no_reorient  #important for SAPT in psi4, default
symmetry c1  #important for SAPT in psi4, default
}

set PROPERTIES_ORIGIN ["COM"]
properties('MP2/aug-cc-pvtz', properties = ['dipole'])
--------------------------------------------------------------------------

    Molecular point group: c1
  Charge       = 0
  Multiplicity = 1
  Basis Set: AUG-CC-PVTZ
    Blend: AUG-CC-PVTZ
  Basis Set: (AUG-CC-PVTZ AUX)
    Blend: AUG-CC-PVTZ-JKFIT

    Orbital Energies [Eh]
    ---------------------

    Doubly Occupied:

       1A    -20.633503     2A    -15.560098     3A    -11.334748
       4A    -11.290313     5A    -11.260059     6A    -11.251742
       7A    -11.225657     8A    -11.219626     9A     -1.475670
      10A     -1.225485    11A     -1.103611    12A     -1.005955
      13A     -0.937859    14A     -0.859209    15A     -0.826243
      16A     -0.771828    17A     -0.713386    18A     -0.661751
      19A     -0.636087    20A     -0.605697    21A     -0.599526
      22A     -0.571597    23A     -0.557429    24A     -0.542032
      25A     -0.506429    26A     -0.489841    27A     -0.488983
      28A     -0.455183    29A     -0.448225    30A     -0.331121

  @DF-RHF Final Energy:  -361.87376199194290

   => Energetics <=

    Nuclear Repulsion Energy =            372.2395508817186283
    One-Electron Energy =               -1229.0488453593466147
    Two-Electron Energy =                 494.9355324856850871
    Total Energy =                       -361.8737619919428994
  Basis Set: (AUG-CC-PVTZ AUX)
    Blend: AUG-CC-PVTZ-RI
    Molecular point group: c1

    Geometry (in Angstrom), charge = 0, multiplicity = 1:

       Center              X                  Y                   Z               Mass
    ------------   -----------------  -----------------  -----------------  -----------------
         O            0.889383323222    -1.002274211016    -0.421658097810    15.994914619570
         N            0.693699323222     1.108124788984     0.313556902190    14.003074004430
         C           -1.398644676778    -0.144437211016    -0.363619097810    12.000000000000
         C            0.063816323222     0.057463788984    -0.145637097810    12.000000000000
         C           -2.141707676778     1.181054788984    -0.220971097810    12.000000000000
         C           -1.939112676778    -1.207087211016     0.600650902190    12.000000000000
         C            2.144445323222    -0.553137211016    -0.102492097810    12.000000000000
         C            2.029820323222     0.727350788984     0.343383902190    12.000000000000
         H           -1.526077676778    -0.517563211016    -1.388982097810     1.007825032230
         H           -2.020291676778     1.577911788984     0.789752902190     1.007825032230
         H           -3.207981676778     1.031259788984    -0.414732097810     1.007825032230
         H           -1.750947276778     1.940280788984    -0.933714197810     1.007825032230
         H           -1.822061676778    -0.869719211016     1.635171902190     1.007825032230
         H           -1.406410676778    -2.154195211016     0.482748902190     1.007825032230
         H           -3.003034676778    -1.382000211016     0.413671902190     1.007825032230
         H            2.958456323222    -1.244604211016    -0.254280097810     1.007825032230
         H            2.805624323222     1.399984788984     0.680299902190     1.007825032230

  Basis Set: AUG-CC-PVTZ
    Blend: AUG-CC-PVTZ
  Basis Set: (AUG-CC-PVTZ AUX)
    Blend: AUG-CC-PVTZ-JKFIT
	 Reference Energy          =    -361.8737619919428994 [Eh]
	 Singles Energy            =      -0.0000000000000000 [Eh]
	 Same-Spin Energy          =      -0.3799909267118282 [Eh]
	 Opposite-Spin Energy      =      -1.2185644833772260 [Eh]
	 Correlation Energy        =      -1.5985554100890542 [Eh]
	 Total Energy              =    -363.4723174020319334 [Eh]

	 ================> DF-SCS-MP2 Energies <==================
	-----------------------------------------------------------
	 SCS Same-Spin Scale       =       0.3333333333333333 [-]
	 SCS Opposite-Spin Scale   =       1.2000000000000000 [-]
	 SCS Same-Spin Energy      =      -0.1266636422372761 [Eh]
	 SCS Opposite-Spin Energy  =      -1.4622773800526712 [Eh]
	 SCS Correlation Energy    =      -1.5889410222899472 [Eh]
	 SCS Total Energy          =    -363.4627030142328294 [Eh]
	-----------------------------------------------------------

  Dipole Moment: [D]
     X:     0.1747      Y:    -1.2662      Z:    -0.3660     Total:     1.3295

*** Psi4 exiting successfully. Buy a developer a beer!
