                               Psi4 1.4a3.dev225

  ==> Input File <==

--------------------------------------------------------------------------
#psi4
#
memory 32 gb

molecule  {
0 1
  O        0.9636680    -1.0001680    -0.4301960
  N        0.7679840     1.1102310     0.3050190
  C       -1.3243600    -0.1423310    -0.3721570
  C        0.1381010     0.0595700    -0.1541750
  C       -2.0674230     1.1831610    -0.2295090
  C       -1.7943327    -1.0663755     0.4663396
  C        2.2187300    -0.5510310    -0.1110300
  C        2.1041050     0.7294570     0.3348460
  H       -1.4517930    -0.5154570    -1.3975200
  H       -1.9460070     1.5800180     0.7812150
  H       -3.1336970     1.0333660    -0.4232700
  H       -1.6836890     1.9287350    -0.9294360
  H       -1.7477770    -0.8676130     1.6266340
  H       -1.3321260    -2.1520890     0.4742110
  H       -2.9287500    -1.3798940     0.4051340
  H        3.0327410    -1.2424980    -0.2628180
  H        2.8799090     1.4020910     0.6717620
units angstrom
no_reorient  #important for SAPT in psi4, default
symmetry c1  #important for SAPT in psi4, default
}

set PROPERTIES_ORIGIN ["COM"]
properties('MP2/aug-cc-pvtz', properties = ['dipole'])
--------------------------------------------------------------------------

    Molecular point group: c1
  Charge       = 0
  Multiplicity = 1
  Basis Set: AUG-CC-PVTZ
    Blend: AUG-CC-PVTZ
  Basis Set: (AUG-CC-PVTZ AUX)
    Blend: AUG-CC-PVTZ-JKFIT

    Orbital Energies [Eh]
    ---------------------

    Doubly Occupied:

       1A    -20.634987     2A    -15.562069     3A    -11.336720
       4A    -11.291676     5A    -11.261076     6A    -11.242955
       7A    -11.236914     8A    -11.218787     9A     -1.477238
      10A     -1.227458    11A     -1.138509    12A     -1.012770
      13A     -0.939811    14A     -0.852123    15A     -0.827792
      16A     -0.773350    17A     -0.722006    18A     -0.670586
      19A     -0.640186    20A     -0.623020    21A     -0.602242
      22A     -0.572863    23A     -0.567647    24A     -0.531634
      25A     -0.521776    26A     -0.472211    27A     -0.456450
      28A     -0.452539    29A     -0.448809    30A     -0.333635

  @DF-RHF Final Energy:  -361.82489775755170

   => Energetics <=

    Nuclear Repulsion Energy =            375.7869573106840448
    One-Electron Energy =               -1235.9240232595054749
    Two-Electron Energy =                 498.3121681912696772
    Total Energy =                       -361.8248977575516960
  Basis Set: (AUG-CC-PVTZ AUX)
    Blend: AUG-CC-PVTZ-RI
    Molecular point group: c1

    Geometry (in Angstrom), charge = 0, multiplicity = 1:

       Center              X                  Y                   Z               Mass
    ------------   -----------------  -----------------  -----------------  -----------------
         O            0.881830660961    -1.017125482539    -0.408185640962    15.994914619570
         N            0.686146660961     1.093273517461     0.327029359038    14.003074004430
         C           -1.406197339039    -0.159288482539    -0.350146640962    12.000000000000
         C            0.056263660961     0.042612517461    -0.132164640962    12.000000000000
         C           -2.149260339039     1.166203517461    -0.207498640962    12.000000000000
         C           -1.876170039039    -1.083332982539     0.488349959038    12.000000000000
         C            2.136892660961    -0.567988482539    -0.089019640962    12.000000000000
         C            2.022267660961     0.712499517461     0.356856359038    12.000000000000
         H           -1.533630339039    -0.532414482539    -1.375509640962     1.007825032230
         H           -2.027844339039     1.563060517461     0.803225359038     1.007825032230
         H           -3.215534339039     1.016408517461    -0.401259640962     1.007825032230
         H           -1.765526339039     1.911777517461    -0.907425640962     1.007825032230
         H           -1.829614339039    -0.884570482539     1.648644359038     1.007825032230
         H           -1.413963339039    -2.169046482539     0.496221359038     1.007825032230
         H           -3.010587339039    -1.396851482539     0.427144359038     1.007825032230
         H            2.950903660961    -1.259455482539    -0.240807640962     1.007825032230
         H            2.798071660961     1.385133517461     0.693772359038     1.007825032230

  Basis Set: AUG-CC-PVTZ
    Blend: AUG-CC-PVTZ
  Basis Set: (AUG-CC-PVTZ AUX)
    Blend: AUG-CC-PVTZ-JKFIT
	 Reference Energy          =    -361.8248977575516960 [Eh]
	 Singles Energy            =      -0.0000000000000000 [Eh]
	 Same-Spin Energy          =      -0.3830082618552831 [Eh]
	 Opposite-Spin Energy      =      -1.2226127196772345 [Eh]
	 Correlation Energy        =      -1.6056209815325175 [Eh]
	 Total Energy              =    -363.4305187390842207 [Eh]

	 ================> DF-SCS-MP2 Energies <==================
	-----------------------------------------------------------
	 SCS Same-Spin Scale       =       0.3333333333333333 [-]
	 SCS Opposite-Spin Scale   =       1.2000000000000000 [-]
	 SCS Same-Spin Energy      =      -0.1276694206184277 [Eh]
	 SCS Opposite-Spin Energy  =      -1.4671352636126813 [Eh]
	 SCS Correlation Energy    =      -1.5948046842311090 [Eh]
	 SCS Total Energy          =    -363.4197024417828175 [Eh]
	-----------------------------------------------------------

  Dipole Moment: [D]
     X:     0.2748      Y:    -1.2053      Z:    -0.4145     Total:     1.3039

*** Psi4 exiting successfully. Buy a developer a beer!
