                               Psi4 1.4a3.dev225

  ==> Input File <==

--------------------------------------------------------------------------
#psi4
#
memory 32 gb

molecule  {
0 1
  O        0.9636680    -1.0001680    -0.4301960
  N        0.7679840     1.1102310     0.3050190
  C       -1.3243600    -0.1423310    -0.3721570
  C        0.1381010     0.0595700    -0.1541750
  C       -2.0674230     1.1831610    -0.2295090
  C       -1.8648280    -1.2049810     0.5921130
  C        2.2187300    -0.5510310    -0.1110300
  C        2.1041050     0.7294570     0.3348460
  H       -1.4517930    -0.5154570    -1.3975200
  H       -1.9404508     1.5981789     0.8274677
  H       -3.1336970     1.0333660    -0.4232700
  H       -1.6836890     1.9287350    -0.9294360
  H       -1.7477770    -0.8676130     1.6266340
  H       -1.3321260    -2.1520890     0.4742110
  H       -2.9287500    -1.3798940     0.4051340
  H        3.0327410    -1.2424980    -0.2628180
  H        2.8799090     1.4020910     0.6717620
units angstrom
no_reorient  #important for SAPT in psi4, default
symmetry c1  #important for SAPT in psi4, default
}

set PROPERTIES_ORIGIN ["COM"]
properties('MP2/aug-cc-pvtz', properties = ['dipole'])
--------------------------------------------------------------------------

    Molecular point group: c1
  Charge       = 0
  Multiplicity = 1
  Basis Set: AUG-CC-PVTZ
    Blend: AUG-CC-PVTZ
  Basis Set: (AUG-CC-PVTZ AUX)
    Blend: AUG-CC-PVTZ-JKFIT

    Orbital Energies [Eh]
    ---------------------

    Doubly Occupied:

       1A    -20.633546     2A    -15.560087     3A    -11.334783
       4A    -11.290336     5A    -11.260057     6A    -11.252119
       7A    -11.225524     8A    -11.223124     9A     -1.475706
      10A     -1.225477    11A     -1.103390    12A     -1.005745
      13A     -0.936692    14A     -0.858449    15A     -0.826068
      16A     -0.771466    17A     -0.712770    18A     -0.661797
      19A     -0.635923    20A     -0.607502    21A     -0.598745
      22A     -0.571672    23A     -0.556776    24A     -0.537665
      25A     -0.506752    26A     -0.490884    27A     -0.486655
      28A     -0.454943    29A     -0.448211    30A     -0.331150

  @DF-RHF Final Energy:  -361.87217799718428

   => Energetics <=

    Nuclear Repulsion Energy =            372.1235643207412522
    One-Electron Energy =               -1228.8234570108395474
    Two-Electron Energy =                 494.8277146929140144
    Total Energy =                       -361.8721779971842807
  Basis Set: (AUG-CC-PVTZ AUX)
    Blend: AUG-CC-PVTZ-RI
    Molecular point group: c1

    Geometry (in Angstrom), charge = 0, multiplicity = 1:

       Center              X                  Y                   Z               Mass
    ------------   -----------------  -----------------  -----------------  -----------------
         O            0.889396663688    -1.002315124379    -0.422194082913    15.994914619570
         N            0.693712663688     1.108083875621     0.313020917087    14.003074004430
         C           -1.398631336312    -0.144478124379    -0.364155082913    12.000000000000
         C            0.063829663688     0.057422875621    -0.146173082913    12.000000000000
         C           -2.141694336312     1.181013875621    -0.221507082913    12.000000000000
         C           -1.939099336312    -1.207128124379     0.600114917087    12.000000000000
         C            2.144458663688    -0.553178124379    -0.103028082913    12.000000000000
         C            2.029833663688     0.727309875621     0.342847917087    12.000000000000
         H           -1.526064336312    -0.517604124379    -1.389518082913     1.007825032230
         H           -2.014722136312     1.596031775621     0.835469617087     1.007825032230
         H           -3.207968336312     1.031218875621    -0.415268082913     1.007825032230
         H           -1.757960336312     1.926587875621    -0.921434082913     1.007825032230
         H           -1.822048336312    -0.869760124379     1.634635917087     1.007825032230
         H           -1.406397336312    -2.154236124379     0.482212917087     1.007825032230
         H           -3.003021336312    -1.382041124379     0.413135917087     1.007825032230
         H            2.958469663688    -1.244645124379    -0.254816082913     1.007825032230
         H            2.805637663688     1.399943875621     0.679763917087     1.007825032230

  Basis Set: AUG-CC-PVTZ
    Blend: AUG-CC-PVTZ
  Basis Set: (AUG-CC-PVTZ AUX)
    Blend: AUG-CC-PVTZ-JKFIT
	 Reference Energy          =    -361.8721779971842807 [Eh]
	 Singles Energy            =      -0.0000000000000000 [Eh]
	 Same-Spin Energy          =      -0.3800105298572895 [Eh]
	 Opposite-Spin Energy      =      -1.2187855581308784 [Eh]
	 Correlation Energy        =      -1.5987960879881680 [Eh]
	 Total Energy              =    -363.4709740851724291 [Eh]

	 ================> DF-SCS-MP2 Energies <==================
	-----------------------------------------------------------
	 SCS Same-Spin Scale       =       0.3333333333333333 [-]
	 SCS Opposite-Spin Scale   =       1.2000000000000000 [-]
	 SCS Same-Spin Energy      =      -0.1266701766190965 [Eh]
	 SCS Opposite-Spin Energy  =      -1.4625426697570540 [Eh]
	 SCS Correlation Energy    =      -1.5892128463761506 [Eh]
	 SCS Total Energy          =    -363.4613908435604230 [Eh]
	-----------------------------------------------------------

  Dipole Moment: [D]
     X:     0.1805      Y:    -1.2679      Z:    -0.3920     Total:     1.3393

*** Psi4 exiting successfully. Buy a developer a beer!
