                               Psi4 1.4a3.dev225

  ==> Input File <==

--------------------------------------------------------------------------
#psi4
#
memory 32 gb

molecule  {
0 1
  O        0.9299073    -0.9148150    -0.4032096
  N        0.7679840     1.1102310     0.3050190
  C       -1.3243600    -0.1423310    -0.3721570
  C        0.1381010     0.0595700    -0.1541750
  C       -2.0674230     1.1831610    -0.2295090
  C       -1.8648280    -1.2049810     0.5921130
  C        2.2187300    -0.5510310    -0.1110300
  C        2.1041050     0.7294570     0.3348460
  H       -1.4517930    -0.5154570    -1.3975200
  H       -1.9460070     1.5800180     0.7812150
  H       -3.1336970     1.0333660    -0.4232700
  H       -1.6836890     1.9287350    -0.9294360
  H       -1.7477770    -0.8676130     1.6266340
  H       -1.3321260    -2.1520890     0.4742110
  H       -2.9287500    -1.3798940     0.4051340
  H        3.0327410    -1.2424980    -0.2628180
  H        2.8799090     1.4020910     0.6717620
units angstrom
no_reorient  #important for SAPT in psi4, default
symmetry c1  #important for SAPT in psi4, default
}

set PROPERTIES_ORIGIN ["COM"]
properties('MP2/aug-cc-pvtz', properties = ['dipole'])
--------------------------------------------------------------------------

    Molecular point group: c1
  Charge       = 0
  Multiplicity = 1
  Basis Set: AUG-CC-PVTZ
    Blend: AUG-CC-PVTZ
  Basis Set: (AUG-CC-PVTZ AUX)
    Blend: AUG-CC-PVTZ-JKFIT

    Orbital Energies [Eh]
    ---------------------

    Doubly Occupied:

       1A    -20.634762     2A    -15.547382     3A    -11.326050
       4A    -11.288122     5A    -11.260363     6A    -11.250021
       7A    -11.225535     8A    -11.215725     9A     -1.511978
      10A     -1.216040    11A     -1.106775    12A     -1.017297
      13A     -0.938473    14A     -0.860616    15A     -0.832695
      16A     -0.776709    17A     -0.720511    18A     -0.678949
      19A     -0.645559    20A     -0.610636    21A     -0.598194
      22A     -0.567242    23A     -0.557385    24A     -0.540990
      25A     -0.504670    26A     -0.489848    27A     -0.488629
      28A     -0.446510    29A     -0.440134    30A     -0.334422

  @DF-RHF Final Energy:  -361.87306122757479

   => Energetics <=

    Nuclear Repulsion Energy =            375.1080196475280104
    One-Electron Energy =               -1234.6977157229853219
    Two-Electron Energy =                 497.7166348478825739
    Total Energy =                       -361.8730612275747944
  Basis Set: (AUG-CC-PVTZ AUX)
    Blend: AUG-CC-PVTZ-RI
    Molecular point group: c1

    Geometry (in Angstrom), charge = 0, multiplicity = 1:

       Center              X                  Y                   Z               Mass
    ------------   -----------------  -----------------  -----------------  -----------------
         O            0.860548244076    -0.929088982866    -0.398674289857    15.994914619570
         N            0.698624944076     1.095957017134     0.309554310143    14.003074004430
         C           -1.393719055924    -0.156604982866    -0.367621689857    12.000000000000
         C            0.068741944076     0.045296017134    -0.149639689857    12.000000000000
         C           -2.136782055924     1.168887017134    -0.224973689857    12.000000000000
         C           -1.934187055924    -1.219254982866     0.596648310143    12.000000000000
         C            2.149370944076    -0.565304982866    -0.106494689857    12.000000000000
         C            2.034745944076     0.715183017134     0.339381310143    12.000000000000
         H           -1.521152055924    -0.529730982866    -1.392984689857     1.007825032230
         H           -2.015366055924     1.565744017134     0.785750310143     1.007825032230
         H           -3.203056055924     1.019092017134    -0.418734689857     1.007825032230
         H           -1.753048055924     1.914461017134    -0.924900689857     1.007825032230
         H           -1.817136055924    -0.881886982866     1.631169310143     1.007825032230
         H           -1.401485055924    -2.166362982866     0.478746310143     1.007825032230
         H           -2.998109055924    -1.394167982866     0.409669310143     1.007825032230
         H            2.963381944076    -1.256771982866    -0.258282689857     1.007825032230
         H            2.810549944076     1.387817017134     0.676297310143     1.007825032230

  Basis Set: AUG-CC-PVTZ
    Blend: AUG-CC-PVTZ
  Basis Set: (AUG-CC-PVTZ AUX)
    Blend: AUG-CC-PVTZ-JKFIT
	 Reference Energy          =    -361.8730612275747944 [Eh]
	 Singles Energy            =      -0.0000000000000000 [Eh]
	 Same-Spin Energy          =      -0.3790695367318366 [Eh]
	 Opposite-Spin Energy      =      -1.2146559007569153 [Eh]
	 Correlation Energy        =      -1.5937254374887520 [Eh]
	 Total Energy              =    -363.4667866650635233 [Eh]

	 ================> DF-SCS-MP2 Energies <==================
	-----------------------------------------------------------
	 SCS Same-Spin Scale       =       0.3333333333333333 [-]
	 SCS Opposite-Spin Scale   =       1.2000000000000000 [-]
	 SCS Same-Spin Energy      =      -0.1263565122439455 [Eh]
	 SCS Opposite-Spin Energy  =      -1.4575870809082982 [Eh]
	 SCS Correlation Energy    =      -1.5839435931522439 [Eh]
	 SCS Total Energy          =    -363.4570048207270361 [Eh]
	-----------------------------------------------------------

  Dipole Moment: [D]
     X:     0.2826      Y:    -1.5471      Z:    -0.4657     Total:     1.6402

*** Psi4 exiting successfully. Buy a developer a beer!
