                               Psi4 1.4a3.dev225

  ==> Input File <==

--------------------------------------------------------------------------
#psi4
#
memory 32 gb

molecule  {
0 1
  O        0.9636680    -1.0001680    -0.4301960
  N        0.7679840     1.1102310     0.3050190
  C       -1.3243600    -0.1423310    -0.3721570
  C        0.1982990    -0.0177030    -0.1743017
  C       -2.0674230     1.1831610    -0.2295090
  C       -1.8648280    -1.2049810     0.5921130
  C        2.2187300    -0.5510310    -0.1110300
  C        2.1041050     0.7294570     0.3348460
  H       -1.4517930    -0.5154570    -1.3975200
  H       -1.9460070     1.5800180     0.7812150
  H       -3.1336970     1.0333660    -0.4232700
  H       -1.6836890     1.9287350    -0.9294360
  H       -1.7477770    -0.8676130     1.6266340
  H       -1.3321260    -2.1520890     0.4742110
  H       -2.9287500    -1.3798940     0.4051340
  H        3.0327410    -1.2424980    -0.2628180
  H        2.8799090     1.4020910     0.6717620
units angstrom
no_reorient  #important for SAPT in psi4, default
symmetry c1  #important for SAPT in psi4, default
}

set PROPERTIES_ORIGIN ["COM"]
properties('MP2/aug-cc-pvtz', properties = ['dipole'])
--------------------------------------------------------------------------

    Molecular point group: c1
  Charge       = 0
  Multiplicity = 1
  Basis Set: AUG-CC-PVTZ
    Blend: AUG-CC-PVTZ
  Basis Set: (AUG-CC-PVTZ AUX)
    Blend: AUG-CC-PVTZ-JKFIT

    Orbital Energies [Eh]
    ---------------------

    Doubly Occupied:

       1A    -20.652065     2A    -15.555491     3A    -11.337169
       4A    -11.286258     5A    -11.263514     6A    -11.252120
       7A    -11.224041     8A    -11.215737     9A     -1.523782
      10A     -1.216694    11A     -1.097821    12A     -1.011559
      13A     -0.936948    14A     -0.857847    15A     -0.832589
      16A     -0.785667    17A     -0.717006    18A     -0.682428
      19A     -0.637831    20A     -0.609382    21A     -0.593427
      22A     -0.583114    23A     -0.556436    24A     -0.540192
      25A     -0.498706    26A     -0.488195    27A     -0.480470
      28A     -0.456871    29A     -0.444882    30A     -0.329741

  @DF-RHF Final Energy:  -361.86562506502679

   => Energetics <=

    Nuclear Repulsion Energy =            372.8664329897580956
    One-Electron Energy =               -1230.1281521359146609
    Two-Electron Energy =                 495.3960940811297746
    Total Energy =                       -361.8656250650267907
  Basis Set: (AUG-CC-PVTZ AUX)
    Blend: AUG-CC-PVTZ-RI
    Molecular point group: c1

    Geometry (in Angstrom), charge = 0, multiplicity = 1:

       Center              X                  Y                   Z               Mass
    ------------   -----------------  -----------------  -----------------  -----------------
         O            0.882943196880    -0.993801641775    -0.419599870763    15.994914619570
         N            0.687259196880     1.116597358225     0.315615129237    14.003074004430
         C           -1.405084803120    -0.135964641775    -0.361560870763    12.000000000000
         C            0.117574196880    -0.011336641775    -0.163705570763    12.000000000000
         C           -2.148147803120     1.189527358225    -0.218912870763    12.000000000000
         C           -1.945552803120    -1.198614641775     0.602709129237    12.000000000000
         C            2.138005196880    -0.544664641775    -0.100433870763    12.000000000000
         C            2.023380196880     0.735823358225     0.345442129237    12.000000000000
         H           -1.532517803120    -0.509090641775    -1.386923870763     1.007825032230
         H           -2.026731803120     1.586384358225     0.791811129237     1.007825032230
         H           -3.214421803120     1.039732358225    -0.412673870763     1.007825032230
         H           -1.764413803120     1.935101358225    -0.918839870763     1.007825032230
         H           -1.828501803120    -0.861246641775     1.637230129237     1.007825032230
         H           -1.412850803120    -2.145722641775     0.484807129237     1.007825032230
         H           -3.009474803120    -1.373527641775     0.415730129237     1.007825032230
         H            2.952016196880    -1.236131641775    -0.252221870763     1.007825032230
         H            2.799184196880     1.408457358225     0.682358129237     1.007825032230

  Basis Set: AUG-CC-PVTZ
    Blend: AUG-CC-PVTZ
  Basis Set: (AUG-CC-PVTZ AUX)
    Blend: AUG-CC-PVTZ-JKFIT
	 Reference Energy          =    -361.8656250650267907 [Eh]
	 Singles Energy            =      -0.0000000000000000 [Eh]
	 Same-Spin Energy          =      -0.3795523545379110 [Eh]
	 Opposite-Spin Energy      =      -1.2167725159437790 [Eh]
	 Correlation Energy        =      -1.5963248704816899 [Eh]
	 Total Energy              =    -363.4619499355084713 [Eh]

	 ================> DF-SCS-MP2 Energies <==================
	-----------------------------------------------------------
	 SCS Same-Spin Scale       =       0.3333333333333333 [-]
	 SCS Opposite-Spin Scale   =       1.2000000000000000 [-]
	 SCS Same-Spin Energy      =      -0.1265174515126370 [Eh]
	 SCS Opposite-Spin Energy  =      -1.4601270191325348 [Eh]
	 SCS Correlation Energy    =      -1.5866444706451719 [Eh]
	 SCS Total Energy          =    -363.4522695356719737 [Eh]
	-----------------------------------------------------------

  Dipole Moment: [D]
     X:     0.3708      Y:    -1.4513      Z:    -0.4407     Total:     1.5614

*** Psi4 exiting successfully. Buy a developer a beer!
