                               Psi4 1.4a3.dev225

  ==> Input File <==

--------------------------------------------------------------------------
#psi4
#
memory 32 gb

molecule  {
0 1
  O        0.9636680    -1.0001680    -0.4301960
  N        0.7679840     1.1102310     0.3050190
  C       -1.3243600    -0.1423310    -0.3721570
  C        0.1585115     0.0095354    -0.3007363
  C       -2.0674230     1.1831610    -0.2295090
  C       -1.8648280    -1.2049810     0.5921130
  C        2.2187300    -0.5510310    -0.1110300
  C        2.1041050     0.7294570     0.3348460
  H       -1.4517930    -0.5154570    -1.3975200
  H       -1.9460070     1.5800180     0.7812150
  H       -3.1336970     1.0333660    -0.4232700
  H       -1.6836890     1.9287350    -0.9294360
  H       -1.7477770    -0.8676130     1.6266340
  H       -1.3321260    -2.1520890     0.4742110
  H       -2.9287500    -1.3798940     0.4051340
  H        3.0327410    -1.2424980    -0.2628180
  H        2.8799090     1.4020910     0.6717620
units angstrom
no_reorient  #important for SAPT in psi4, default
symmetry c1  #important for SAPT in psi4, default
}

set PROPERTIES_ORIGIN ["COM"]
properties('MP2/aug-cc-pvtz', properties = ['dipole'])
--------------------------------------------------------------------------

    Molecular point group: c1
  Charge       = 0
  Multiplicity = 1
  Basis Set: AUG-CC-PVTZ
    Blend: AUG-CC-PVTZ
  Basis Set: (AUG-CC-PVTZ AUX)
    Blend: AUG-CC-PVTZ-JKFIT

    Orbital Energies [Eh]
    ---------------------

    Doubly Occupied:

       1A    -20.649383     2A    -15.559073     3A    -11.341235
       4A    -11.286748     5A    -11.261736     6A    -11.252140
       7A    -11.227032     8A    -11.217331     9A     -1.507312
      10A     -1.200241    11A     -1.104954    12A     -1.009240
      13A     -0.938748    14A     -0.863138    15A     -0.829765
      16A     -0.780128    17A     -0.712692    18A     -0.676418
      19A     -0.636203    20A     -0.613945    21A     -0.591624
      22A     -0.576978    23A     -0.556228    24A     -0.540699
      25A     -0.511515    26A     -0.490270    27A     -0.482271
      28A     -0.451087    29A     -0.434948    30A     -0.324334

  @DF-RHF Final Energy:  -361.85521485910084

   => Energetics <=

    Nuclear Repulsion Energy =            371.9695931340505126
    One-Electron Energy =               -1228.3947826495179925
    Two-Electron Energy =                 494.5699746563666963
    Total Energy =                       -361.8552148591008404
  Basis Set: (AUG-CC-PVTZ AUX)
    Blend: AUG-CC-PVTZ-RI
    Molecular point group: c1

    Geometry (in Angstrom), charge = 0, multiplicity = 1:

       Center              X                  Y                   Z               Mass
    ------------   -----------------  -----------------  -----------------  -----------------
         O            0.887241898763    -0.996744519849    -0.405939684698    15.994914619570
         N            0.691557898763     1.113654480151     0.329275315302    14.003074004430
         C           -1.400786101237    -0.138907519849    -0.347900684698    12.000000000000
         C            0.082085398763     0.012958880151    -0.276479984698    12.000000000000
         C           -2.143849101237     1.186584480151    -0.205252684698    12.000000000000
         C           -1.941254101237    -1.201557519849     0.616369315302    12.000000000000
         C            2.142303898763    -0.547607519849    -0.086773684698    12.000000000000
         C            2.027678898763     0.732880480151     0.359102315302    12.000000000000
         H           -1.528219101237    -0.512033519849    -1.373263684698     1.007825032230
         H           -2.022433101237     1.583441480151     0.805471315302     1.007825032230
         H           -3.210123101237     1.036789480151    -0.399013684698     1.007825032230
         H           -1.760115101237     1.932158480151    -0.905179684698     1.007825032230
         H           -1.824203101237    -0.864189519849     1.650890315302     1.007825032230
         H           -1.408552101237    -2.148665519849     0.498467315302     1.007825032230
         H           -3.005176101237    -1.376470519849     0.429390315302     1.007825032230
         H            2.956314898763    -1.239074519849    -0.238561684698     1.007825032230
         H            2.803482898763     1.405514480151     0.696018315302     1.007825032230

  Basis Set: AUG-CC-PVTZ
    Blend: AUG-CC-PVTZ
  Basis Set: (AUG-CC-PVTZ AUX)
    Blend: AUG-CC-PVTZ-JKFIT
	 Reference Energy          =    -361.8552148591008404 [Eh]
	 Singles Energy            =      -0.0000000000000000 [Eh]
	 Same-Spin Energy          =      -0.3816964104199849 [Eh]
	 Opposite-Spin Energy      =      -1.2206436342623428 [Eh]
	 Correlation Energy        =      -1.6023400446823277 [Eh]
	 Total Energy              =    -363.4575549037831479 [Eh]

	 ================> DF-SCS-MP2 Energies <==================
	-----------------------------------------------------------
	 SCS Same-Spin Scale       =       0.3333333333333333 [-]
	 SCS Opposite-Spin Scale   =       1.2000000000000000 [-]
	 SCS Same-Spin Energy      =      -0.1272321368066616 [Eh]
	 SCS Opposite-Spin Energy  =      -1.4647723611148113 [Eh]
	 SCS Correlation Energy    =      -1.5920044979214729 [Eh]
	 SCS Total Energy          =    -363.4472193570223340 [Eh]
	-----------------------------------------------------------

  Dipole Moment: [D]
     X:     0.3179      Y:    -1.4756      Z:    -0.4489     Total:     1.5747

*** Psi4 exiting successfully. Buy a developer a beer!
