                               Psi4 1.4a3.dev225

  ==> Input File <==

--------------------------------------------------------------------------
#psi4
#
memory 32 gb

molecule  {
0 1
  O        1.0035432    -1.0833329    -0.4556274
  N        0.7679840     1.1102310     0.3050190
  C       -1.3243600    -0.1423310    -0.3721570
  C        0.1381010     0.0595700    -0.1541750
  C       -2.0674230     1.1831610    -0.2295090
  C       -1.8648280    -1.2049810     0.5921130
  C        2.2187300    -0.5510310    -0.1110300
  C        2.1041050     0.7294570     0.3348460
  H       -1.4517930    -0.5154570    -1.3975200
  H       -1.9460070     1.5800180     0.7812150
  H       -3.1336970     1.0333660    -0.4232700
  H       -1.6836890     1.9287350    -0.9294360
  H       -1.7477770    -0.8676130     1.6266340
  H       -1.3321260    -2.1520890     0.4742110
  H       -2.9287500    -1.3798940     0.4051340
  H        3.0327410    -1.2424980    -0.2628180
  H        2.8799090     1.4020910     0.6717620
units angstrom
no_reorient  #important for SAPT in psi4, default
symmetry c1  #important for SAPT in psi4, default
}

set PROPERTIES_ORIGIN ["COM"]
properties('MP2/aug-cc-pvtz', properties = ['dipole'])
--------------------------------------------------------------------------

    Molecular point group: c1
  Charge       = 0
  Multiplicity = 1
  Basis Set: AUG-CC-PVTZ
    Blend: AUG-CC-PVTZ
  Basis Set: (AUG-CC-PVTZ AUX)
    Blend: AUG-CC-PVTZ-JKFIT

    Orbital Energies [Eh]
    ---------------------

    Doubly Occupied:

       1A    -20.631003     2A    -15.571719     3A    -11.343116
       4A    -11.292504     5A    -11.259651     6A    -11.253615
       7A    -11.225781     8A    -11.219066     9A     -1.445973
      10A     -1.234590    11A     -1.102282    12A     -0.997826
      13A     -0.939876    14A     -0.860256    15A     -0.820427
      16A     -0.766247    17A     -0.707902    18A     -0.649865
      19A     -0.626435    20A     -0.605338    21A     -0.599215
      22A     -0.573854    23A     -0.557404    24A     -0.542718
      25A     -0.505823    26A     -0.492939    27A     -0.490226
      28A     -0.462320    29A     -0.455803    30A     -0.327836

  @DF-RHF Final Energy:  -361.86106042423563

   => Energetics <=

    Nuclear Repulsion Energy =            369.7165645332373174
    One-Electron Energy =               -1224.0320333891161226
    Two-Electron Energy =                 492.4544084316432304
    Total Energy =                       -361.8610604242356317
  Basis Set: (AUG-CC-PVTZ AUX)
    Blend: AUG-CC-PVTZ-RI
    Molecular point group: c1

    Geometry (in Angstrom), charge = 0, multiplicity = 1:

       Center              X                  Y                   Z               Mass
    ------------   -----------------  -----------------  -----------------  -----------------
         O            0.923579869720    -1.073338692411    -0.443543424976    15.994914619570
         N            0.688020669720     1.120225207589     0.317102975024    14.003074004430
         C           -1.404323330280    -0.132336792411    -0.360073024976    12.000000000000
         C            0.058137669720     0.069564207589    -0.142091024976    12.000000000000
         C           -2.147386330280     1.193155207589    -0.217425024976    12.000000000000
         C           -1.944791330280    -1.194986792411     0.604196975024    12.000000000000
         C            2.138766669720    -0.541036792411    -0.098946024976    12.000000000000
         C            2.024141669720     0.739451207589     0.346929975024    12.000000000000
         H           -1.531756330280    -0.505462792411    -1.385436024976     1.007825032230
         H           -2.025970330280     1.590012207589     0.793298975024     1.007825032230
         H           -3.213660330280     1.043360207589    -0.411186024976     1.007825032230
         H           -1.763652330280     1.938729207589    -0.917352024976     1.007825032230
         H           -1.827740330280    -0.857618792411     1.638717975024     1.007825032230
         H           -1.412089330280    -2.142094792411     0.486294975024     1.007825032230
         H           -3.008713330280    -1.369899792411     0.417217975024     1.007825032230
         H            2.952777669720    -1.232503792411    -0.250734024976     1.007825032230
         H            2.799945669720     1.412085207589     0.683845975024     1.007825032230

  Basis Set: AUG-CC-PVTZ
    Blend: AUG-CC-PVTZ
  Basis Set: (AUG-CC-PVTZ AUX)
    Blend: AUG-CC-PVTZ-JKFIT
	 Reference Energy          =    -361.8610604242356317 [Eh]
	 Singles Energy            =      -0.0000000000000000 [Eh]
	 Same-Spin Energy          =      -0.3812651548100054 [Eh]
	 Opposite-Spin Energy      =      -1.2228736189440730 [Eh]
	 Correlation Energy        =      -1.6041387737540784 [Eh]
	 Total Energy              =    -363.4651991979897048 [Eh]

	 ================> DF-SCS-MP2 Energies <==================
	-----------------------------------------------------------
	 SCS Same-Spin Scale       =       0.3333333333333333 [-]
	 SCS Opposite-Spin Scale   =       1.2000000000000000 [-]
	 SCS Same-Spin Energy      =      -0.1270883849366685 [Eh]
	 SCS Opposite-Spin Energy  =      -1.4674483427328875 [Eh]
	 SCS Correlation Energy    =      -1.5945367276695559 [Eh]
	 SCS Total Energy          =    -363.4555971519051809 [Eh]
	-----------------------------------------------------------

  Dipole Moment: [D]
     X:     0.0158      Y:    -0.9757      Z:    -0.2866     Total:     1.0171

*** Psi4 exiting successfully. Buy a developer a beer!
