                               Psi4 1.4a3.dev225

  ==> Input File <==

--------------------------------------------------------------------------
#psi4
#
memory 32 gb

molecule  {
0 1
  O        0.9636680    -1.0001680    -0.4301960
  N        0.7277955     1.1315062     0.3091968
  C       -1.3243600    -0.1423310    -0.3721570
  C        0.1381010     0.0595700    -0.1541750
  C       -2.0674230     1.1831610    -0.2295090
  C       -1.8648280    -1.2049810     0.5921130
  C        2.2187300    -0.5510310    -0.1110300
  C        2.1041050     0.7294570     0.3348460
  H       -1.4517930    -0.5154570    -1.3975200
  H       -1.9460070     1.5800180     0.7812150
  H       -3.1336970     1.0333660    -0.4232700
  H       -1.6836890     1.9287350    -0.9294360
  H       -1.7477770    -0.8676130     1.6266340
  H       -1.3321260    -2.1520890     0.4742110
  H       -2.9287500    -1.3798940     0.4051340
  H        3.0327410    -1.2424980    -0.2628180
  H        2.8799090     1.4020910     0.6717620
units angstrom
no_reorient  #important for SAPT in psi4, default
symmetry c1  #important for SAPT in psi4, default
}

set PROPERTIES_ORIGIN ["COM"]
properties('MP2/aug-cc-pvtz', properties = ['dipole'])
--------------------------------------------------------------------------

    Molecular point group: c1
  Charge       = 0
  Multiplicity = 1
  Basis Set: AUG-CC-PVTZ
    Blend: AUG-CC-PVTZ
  Basis Set: (AUG-CC-PVTZ AUX)
    Blend: AUG-CC-PVTZ-JKFIT

    Orbital Energies [Eh]
    ---------------------

    Doubly Occupied:

       1A    -20.633928     2A    -15.565103     3A    -11.335900
       4A    -11.293183     5A    -11.264192     6A    -11.250034
       7A    -11.224956     8A    -11.216195     9A     -1.475063
      10A     -1.218761    11A     -1.101807    12A     -1.006816
      13A     -0.938261    14A     -0.860031    15A     -0.825006
      16A     -0.767339    17A     -0.712745    18A     -0.661514
      19A     -0.636247    20A     -0.607045    21A     -0.593799
      22A     -0.572024    23A     -0.556517    24A     -0.541237
      25A     -0.504623    26A     -0.490395    27A     -0.487808
      28A     -0.460011    29A     -0.443655    30A     -0.335577

  @DF-RHF Final Energy:  -361.87173553658073

   => Energetics <=

    Nuclear Repulsion Energy =            371.7265789063494594
    One-Electron Energy =               -1228.0370862438787753
    Two-Electron Energy =                 494.4387718009485866
    Total Energy =                       -361.8717355365807293
  Basis Set: (AUG-CC-PVTZ AUX)
    Blend: AUG-CC-PVTZ-RI
    Molecular point group: c1

    Geometry (in Angstrom), charge = 0, multiplicity = 1:

       Center              X                  Y                   Z               Mass
    ------------   -----------------  -----------------  -----------------  -----------------
         O            0.894513890062    -1.004832628506    -0.422301110764    15.994914619570
         N            0.658641390062     1.126841571494     0.317091689236    14.003074004430
         C           -1.393514109938    -0.146995628506    -0.364262110764    12.000000000000
         C            0.068946890062     0.054905371494    -0.146280110764    12.000000000000
         C           -2.136577109938     1.178496371494    -0.221614110764    12.000000000000
         C           -1.933982109938    -1.209645628506     0.600007889236    12.000000000000
         C            2.149575890062    -0.555695628506    -0.103135110764    12.000000000000
         C            2.034950890062     0.724792371494     0.342740889236    12.000000000000
         H           -1.520947109938    -0.520121628506    -1.389625110764     1.007825032230
         H           -2.015161109938     1.575353371494     0.789109889236     1.007825032230
         H           -3.202851109938     1.028701371494    -0.415375110764     1.007825032230
         H           -1.752843109938     1.924070371494    -0.921541110764     1.007825032230
         H           -1.816931109938    -0.872277628506     1.634528889236     1.007825032230
         H           -1.401280109938    -2.156753628506     0.482105889236     1.007825032230
         H           -2.997904109938    -1.384558628506     0.413028889236     1.007825032230
         H            2.963586890062    -1.247162628506    -0.254923110764     1.007825032230
         H            2.810754890062     1.397426371494     0.679656889236     1.007825032230

  Basis Set: AUG-CC-PVTZ
    Blend: AUG-CC-PVTZ
  Basis Set: (AUG-CC-PVTZ AUX)
    Blend: AUG-CC-PVTZ-JKFIT
	 Reference Energy          =    -361.8717355365807293 [Eh]
	 Singles Energy            =      -0.0000000000000000 [Eh]
	 Same-Spin Energy          =      -0.3796297889853730 [Eh]
	 Opposite-Spin Energy      =      -1.2191156979623010 [Eh]
	 Correlation Energy        =      -1.5987454869476740 [Eh]
	 Total Energy              =    -363.4704810235284071 [Eh]

	 ================> DF-SCS-MP2 Energies <==================
	-----------------------------------------------------------
	 SCS Same-Spin Scale       =       0.3333333333333333 [-]
	 SCS Opposite-Spin Scale   =       1.2000000000000000 [-]
	 SCS Same-Spin Energy      =      -0.1265432629951243 [Eh]
	 SCS Opposite-Spin Energy  =      -1.4629388375547612 [Eh]
	 SCS Correlation Energy    =      -1.5894821005498856 [Eh]
	 SCS Total Energy          =    -363.4612176371306305 [Eh]
	-----------------------------------------------------------

  Dipole Moment: [D]
     X:     0.2483      Y:    -1.2957      Z:    -0.3811     Total:     1.3732

*** Psi4 exiting successfully. Buy a developer a beer!
