                               Psi4 1.4a3.dev225

  ==> Input File <==

--------------------------------------------------------------------------
#psi4
#
memory 32 gb

molecule  {
0 1
  O        1.0257142    -1.1239677    -0.4677210
  N        0.7679840     1.1102310     0.3050190
  C       -1.3243600    -0.1423310    -0.3721570
  C        0.1381010     0.0595700    -0.1541750
  C       -2.0674230     1.1831610    -0.2295090
  C       -1.8648280    -1.2049810     0.5921130
  C        2.2187300    -0.5510310    -0.1110300
  C        2.1041050     0.7294570     0.3348460
  H       -1.4517930    -0.5154570    -1.3975200
  H       -1.9460070     1.5800180     0.7812150
  H       -3.1336970     1.0333660    -0.4232700
  H       -1.6836890     1.9287350    -0.9294360
  H       -1.7477770    -0.8676130     1.6266340
  H       -1.3321260    -2.1520890     0.4742110
  H       -2.9287500    -1.3798940     0.4051340
  H        3.0327410    -1.2424980    -0.2628180
  H        2.8799090     1.4020910     0.6717620
units angstrom
no_reorient  #important for SAPT in psi4, default
symmetry c1  #important for SAPT in psi4, default
}

set PROPERTIES_ORIGIN ["COM"]
properties('MP2/aug-cc-pvtz', properties = ['dipole'])
--------------------------------------------------------------------------

    Molecular point group: c1
  Charge       = 0
  Multiplicity = 1
  Basis Set: AUG-CC-PVTZ
    Blend: AUG-CC-PVTZ
  Basis Set: (AUG-CC-PVTZ AUX)
    Blend: AUG-CC-PVTZ-JKFIT

    Orbital Energies [Eh]
    ---------------------

    Doubly Occupied:

       1A    -20.629285     2A    -15.577140     3A    -11.347143
       4A    -11.293543     5A    -11.259404     6A    -11.254887
       7A    -11.226063     8A    -11.220127     9A     -1.433320
      10A     -1.238922    11A     -1.102072    12A     -0.994754
      13A     -0.940428    14A     -0.861232    15A     -0.817852
      16A     -0.763240    17A     -0.705744    18A     -0.645780
      19A     -0.621810    20A     -0.606710    21A     -0.596801
      22A     -0.574000    23A     -0.556524    24A     -0.543148
      25A     -0.504910    26A     -0.494045    27A     -0.490695
      28A     -0.465225    29A     -0.459247    30A     -0.326287

  @DF-RHF Final Energy:  -361.85091102316323

   => Energetics <=

    Nuclear Repulsion Energy =            368.4786498445304233
    One-Electron Energy =               -1221.5584464410399050
    Two-Electron Energy =                 491.2288855733462469
    Total Energy =                       -361.8509110231632349
  Basis Set: (AUG-CC-PVTZ AUX)
    Blend: AUG-CC-PVTZ-RI
    Molecular point group: c1

    Geometry (in Angstrom), charge = 0, multiplicity = 1:

       Center              X                  Y                   Z               Mass
    ------------   -----------------  -----------------  -----------------  -----------------
         O            0.942558033525    -1.108121692302    -0.453895430830    15.994914619570
         N            0.684827833525     1.126077007698     0.318844569170    14.003074004430
         C           -1.407516166475    -0.126484992302    -0.358331430830    12.000000000000
         C            0.054944833525     0.075416007698    -0.140349430830    12.000000000000
         C           -2.150579166475     1.199007007698    -0.215683430830    12.000000000000
         C           -1.947984166475    -1.189134992302     0.605938569170    12.000000000000
         C            2.135573833525    -0.535184992302    -0.097204430830    12.000000000000
         C            2.020948833525     0.745303007698     0.348671569170    12.000000000000
         H           -1.534949166475    -0.499610992302    -1.383694430830     1.007825032230
         H           -2.029163166475     1.595864007698     0.795040569170     1.007825032230
         H           -3.216853166475     1.049212007698    -0.409444430830     1.007825032230
         H           -1.766845166475     1.944581007698    -0.915610430830     1.007825032230
         H           -1.830933166475    -0.851766992302     1.640459569170     1.007825032230
         H           -1.415282166475    -2.136242992302     0.488036569170     1.007825032230
         H           -3.011906166475    -1.364047992302     0.418959569170     1.007825032230
         H            2.949584833525    -1.226651992302    -0.248992430830     1.007825032230
         H            2.796752833525     1.417937007698     0.685587569170     1.007825032230

  Basis Set: AUG-CC-PVTZ
    Blend: AUG-CC-PVTZ
  Basis Set: (AUG-CC-PVTZ AUX)
    Blend: AUG-CC-PVTZ-JKFIT
	 Reference Energy          =    -361.8509110231632349 [Eh]
	 Singles Energy            =      -0.0000000000000000 [Eh]
	 Same-Spin Energy          =      -0.3820457199359992 [Eh]
	 Opposite-Spin Energy      =      -1.2253193366944697 [Eh]
	 Correlation Energy        =      -1.6073650566304689 [Eh]
	 Total Energy              =    -363.4582760797936771 [Eh]

	 ================> DF-SCS-MP2 Energies <==================
	-----------------------------------------------------------
	 SCS Same-Spin Scale       =       0.3333333333333333 [-]
	 SCS Opposite-Spin Scale   =       1.2000000000000000 [-]
	 SCS Same-Spin Energy      =      -0.1273485733119997 [Eh]
	 SCS Opposite-Spin Energy  =      -1.4703832040333635 [Eh]
	 SCS Correlation Energy    =      -1.5977317773453632 [Eh]
	 SCS Total Energy          =    -363.4486428005085941 [Eh]
	-----------------------------------------------------------

  Dipole Moment: [D]
     X:    -0.0816      Y:    -0.8370      Z:    -0.2457     Total:     0.8762

*** Psi4 exiting successfully. Buy a developer a beer!
