                               Psi4 1.3.2 release

  ==> Input File <==

--------------------------------------------------------------------------
#psi4
#
memory 32 gb

molecule  {
1 1
  N        0.7090220    -0.0000240     0.0000000
  H        0.9849545     0.4944346    -0.8585934
  H        1.0870090     0.4793650     0.8277210
  H        1.0871940    -0.9564710     0.0011740
  C       -0.8006150    -0.0000100     0.0000000
  H       -1.1402290    -0.5156710     0.8957280
  H       -1.1402190     1.0335470    -0.0012690
  H       -1.1402280    -0.5178690    -0.8944600
units angstrom
no_reorient  #important for SAPT in psi4, default
symmetry c1  #important for SAPT in psi4, default
}

set PROPERTIES_ORIGIN ["COM"]
properties('MP2/aug-cc-pvtz', properties = ['dipole'])
--------------------------------------------------------------------------

    Molecular point group: c1
  Charge       = 1
  Multiplicity = 1
  Basis Set: AUG-CC-PVTZ
    Blend: AUG-CC-PVTZ
  Basis Set: (AUG-CC-PVTZ AUX)
    Blend: AUG-CC-PVTZ-JKFIT

    Orbital Energies [Eh]
    ---------------------

    Doubly Occupied:

       1A    -15.912710     2A    -11.492112     3A     -1.523410
       4A     -1.172439     5A     -0.990936     6A     -0.982585
       7A     -0.859120     8A     -0.782579     9A     -0.781701

  @DF-RHF Final Energy:   -95.61657493827332

   => Energetics <=

    Nuclear Repulsion Energy =             47.7679402812302740
    One-Electron Energy =                -217.7738467261642938
    Two-Electron Energy =                  74.3893315066607101
    Total Energy =                        -95.6165749382733168
  Basis Set: (AUG-CC-PVTZ AUX)
    Blend: AUG-CC-PVTZ-RI
    Molecular point group: c1

    Geometry (in Angstrom), charge = 1, multiplicity = 1:

       Center              X                  Y                   Z               Mass
    ------------   -----------------  -----------------  -----------------  -----------------
         N            0.707226598982    -0.000554894384     0.000933908773    14.003074004430
         H            0.983159098982     0.493903705616    -0.857659491227     1.007825032230
         H            1.085213598982     0.478834105616     0.828654908773     1.007825032230
         H            1.085398598982    -0.957001894384     0.002107908773     1.007825032230
         C           -0.802410401018    -0.000540894384     0.000933908773    12.000000000000
         H           -1.142024401018    -0.516201894384     0.896661908773     1.007825032230
         H           -1.142014401018     1.033016105616    -0.000335091227     1.007825032230
         H           -1.142023401018    -0.518399894384    -0.893526091227     1.007825032230

  Basis Set: AUG-CC-PVTZ
    Blend: AUG-CC-PVTZ
  Basis Set: (AUG-CC-PVTZ AUX)
    Blend: AUG-CC-PVTZ-JKFIT
	 Reference Energy          =     -95.6165749382733168 [Eh]
	 Singles Energy            =      -0.0000000000000000 [Eh]
	 Same-Spin Energy          =      -0.0900106904159155 [Eh]
	 Opposite-Spin Energy      =      -0.3491547185392010 [Eh]
	 Correlation Energy        =      -0.4391654089551165 [Eh]
	 Total Energy              =     -96.0557403472284363 [Eh]

	 ================> DF-SCS-MP2 Energies <==================
	-----------------------------------------------------------
	 SCS Same-Spin Scale       =       0.3333333333333333 [-]
	 SCS Opposite-Spin Scale   =       1.2000000000000000 [-]
	 SCS Same-Spin Energy      =      -0.0300035634719718 [Eh]
	 SCS Opposite-Spin Energy  =      -0.4189856622470412 [Eh]
	 SCS Correlation Energy    =      -0.4489892257190130 [Eh]
	 SCS Total Energy          =     -96.0655641639923346 [Eh]
	-----------------------------------------------------------

  Dipole Moment: [D]
     X:     2.0735      Y:     0.0139      Z:    -0.0236     Total:     2.0737

*** Psi4 exiting successfully. Buy a developer a beer!
