                               Psi4 1.3.2 release

  ==> Input File <==

--------------------------------------------------------------------------
#psi4
#
memory 32 gb

molecule  {
1 1
  N        0.7090220    -0.0000240     0.0000000
  H        1.0779891     0.4659027    -0.8393963
  H        1.0870090     0.4793650     0.8277210
  H        1.0871940    -0.9564710     0.0011740
  C       -0.8006150    -0.0000100     0.0000000
  H       -1.1402290    -0.5156710     0.8957280
  H       -1.1402190     1.0335470    -0.0012690
  H       -1.1402280    -0.5178690    -0.8944600
units angstrom
no_reorient  #important for SAPT in psi4, default
symmetry c1  #important for SAPT in psi4, default
}

set PROPERTIES_ORIGIN ["COM"]
properties('MP2/aug-cc-pvtz', properties = ['dipole'])
--------------------------------------------------------------------------

    Molecular point group: c1
  Charge       = 1
  Multiplicity = 1
  Basis Set: AUG-CC-PVTZ
    Blend: AUG-CC-PVTZ
  Basis Set: (AUG-CC-PVTZ AUX)
    Blend: AUG-CC-PVTZ-JKFIT

    Orbital Energies [Eh]
    ---------------------

    Doubly Occupied:

       1A    -15.912706     2A    -11.492404     3A     -1.522941
       4A     -1.174700     5A     -0.984323     6A     -0.981285
       7A     -0.863360     8A     -0.782226     9A     -0.781771

  @DF-RHF Final Energy:   -95.61784885843916

   => Energetics <=

    Nuclear Repulsion Energy =             47.7119753442978407
    One-Electron Energy =                -217.6682164231106640
    Two-Electron Energy =                  74.3383922203736489
    Total Energy =                        -95.6178488584391602
  Basis Set: (AUG-CC-PVTZ AUX)
    Blend: AUG-CC-PVTZ-RI
    Molecular point group: c1

    Geometry (in Angstrom), charge = 1, multiplicity = 1:

       Center              X                  Y                   Z               Mass
    ------------   -----------------  -----------------  -----------------  -----------------
         N            0.704301091089     0.000342301913     0.000330248763    14.003074004430
         H            1.073268191089     0.466269001913    -0.839066051237     1.007825032230
         H            1.082288091089     0.479731301913     0.828051248763     1.007825032230
         H            1.082473091089    -0.956104698087     0.001504248763     1.007825032230
         C           -0.805335908911     0.000356301913     0.000330248763    12.000000000000
         H           -1.144949908911    -0.515304698087     0.896058248763     1.007825032230
         H           -1.144939908911     1.033913301913    -0.000938751237     1.007825032230
         H           -1.144948908911    -0.517502698087    -0.894129751237     1.007825032230

  Basis Set: AUG-CC-PVTZ
    Blend: AUG-CC-PVTZ
  Basis Set: (AUG-CC-PVTZ AUX)
    Blend: AUG-CC-PVTZ-JKFIT
	 Reference Energy          =     -95.6178488584391602 [Eh]
	 Singles Energy            =      -0.0000000000000000 [Eh]
	 Same-Spin Energy          =      -0.0899469115485641 [Eh]
	 Opposite-Spin Energy      =      -0.3490062332786540 [Eh]
	 Correlation Energy        =      -0.4389531448272181 [Eh]
	 Total Energy              =     -96.0568020032663838 [Eh]

	 ================> DF-SCS-MP2 Energies <==================
	-----------------------------------------------------------
	 SCS Same-Spin Scale       =       0.3333333333333333 [-]
	 SCS Opposite-Spin Scale   =       1.2000000000000000 [-]
	 SCS Same-Spin Energy      =      -0.0299823038495214 [Eh]
	 SCS Opposite-Spin Energy  =      -0.4188074799343848 [Eh]
	 SCS Correlation Energy    =      -0.4487897837839062 [Eh]
	 SCS Total Energy          =     -96.0666386422230687 [Eh]
	-----------------------------------------------------------

  Dipole Moment: [D]
     X:     2.1556      Y:    -0.0115      Z:    -0.0101     Total:     2.1557

*** Psi4 exiting successfully. Buy a developer a beer!
