                               Psi4 1.3.2 release

  ==> Input File <==

--------------------------------------------------------------------------
#psi4
#
memory 32 gb

molecule  {
1 1
  N        0.7090220    -0.0000240     0.0000000
  H        1.1386167     0.5427284    -0.7607094
  H        1.0870090     0.4793650     0.8277210
  H        1.0871940    -0.9564710     0.0011740
  C       -0.8006150    -0.0000100     0.0000000
  H       -1.1402290    -0.5156710     0.8957280
  H       -1.1402190     1.0335470    -0.0012690
  H       -1.1402280    -0.5178690    -0.8944600
units angstrom
no_reorient  #important for SAPT in psi4, default
symmetry c1  #important for SAPT in psi4, default
}

set PROPERTIES_ORIGIN ["COM"]
properties('MP2/aug-cc-pvtz', properties = ['dipole'])
--------------------------------------------------------------------------

    Molecular point group: c1
  Charge       = 1
  Multiplicity = 1
  Basis Set: AUG-CC-PVTZ
    Blend: AUG-CC-PVTZ
  Basis Set: (AUG-CC-PVTZ AUX)
    Blend: AUG-CC-PVTZ-JKFIT

    Orbital Energies [Eh]
    ---------------------

    Doubly Occupied:

       1A    -15.912472     2A    -11.492856     3A     -1.522945
       4A     -1.176568     5A     -0.989216     6A     -0.970548
       7A     -0.866229     8A     -0.783142     9A     -0.780378

  @DF-RHF Final Energy:   -95.61653311259163

   => Energetics <=

    Nuclear Repulsion Energy =             47.6809138298574524
    One-Electron Energy =                -217.6061824327570662
    Two-Electron Energy =                  74.3087354903079955
    Total Energy =                        -95.6165331125916254
  Basis Set: (AUG-CC-PVTZ AUX)
    Blend: AUG-CC-PVTZ-RI
    Molecular point group: c1

    Geometry (in Angstrom), charge = 1, multiplicity = 1:

       Center              X                  Y                   Z               Mass
    ------------   -----------------  -----------------  -----------------  -----------------
         N            0.702394633467    -0.002073511039    -0.002144090322    14.003074004430
         H            1.131989333467     0.540678888961    -0.762853490322     1.007825032230
         H            1.080381633467     0.477315488961     0.825576909678     1.007825032230
         H            1.080566633467    -0.958520511039    -0.000970090322     1.007825032230
         C           -0.807242366533    -0.002059511039    -0.002144090322    12.000000000000
         H           -1.146856366533    -0.517720511039     0.893583909678     1.007825032230
         H           -1.146846366533     1.031497488961    -0.003413090322     1.007825032230
         H           -1.146855366533    -0.519918511039    -0.896604090322     1.007825032230

  Basis Set: AUG-CC-PVTZ
    Blend: AUG-CC-PVTZ
  Basis Set: (AUG-CC-PVTZ AUX)
    Blend: AUG-CC-PVTZ-JKFIT
	 Reference Energy          =     -95.6165331125916254 [Eh]
	 Singles Energy            =      -0.0000000000000000 [Eh]
	 Same-Spin Energy          =      -0.0899863506974349 [Eh]
	 Opposite-Spin Energy      =      -0.3490390741402853 [Eh]
	 Correlation Energy        =      -0.4390254248377203 [Eh]
	 Total Energy              =     -96.0555585374293486 [Eh]

	 ================> DF-SCS-MP2 Energies <==================
	-----------------------------------------------------------
	 SCS Same-Spin Scale       =       0.3333333333333333 [-]
	 SCS Opposite-Spin Scale   =       1.2000000000000000 [-]
	 SCS Same-Spin Energy      =      -0.0299954502324783 [Eh]
	 SCS Opposite-Spin Energy  =      -0.4188468889683424 [Eh]
	 SCS Correlation Energy    =      -0.4488423392008207 [Eh]
	 SCS Total Energy          =     -96.0653754517924483 [Eh]
	-----------------------------------------------------------

  Dipole Moment: [D]
     X:     2.2062      Y:     0.0692      Z:     0.0681     Total:     2.2084

*** Psi4 exiting successfully. Buy a developer a beer!
