                               Psi4 1.4a3.dev225

  ==> Input File <==

--------------------------------------------------------------------------
#psi4
#
memory 32 gb

molecule  {
1 1
  N       -0.7026530     0.0000020     0.0000410
  H       -1.0807690     0.8221750     0.4828960
  H       -1.0801460     0.0072600    -0.9533800
  H       -1.0807350    -0.8294500     0.4703120
  C        0.8140550     0.0000020     0.0000076
  H        1.1317080    -0.8903490    -0.5233920
  H        1.1317420     0.8984820    -0.5092940
  H        1.1324430    -0.0081480     1.0325230
units angstrom
no_reorient  #important for SAPT in psi4, default
symmetry c1  #important for SAPT in psi4, default
}

set PROPERTIES_ORIGIN ["COM"]
properties('MP2/aug-cc-pvtz', properties = ['dipole'])
--------------------------------------------------------------------------

    Molecular point group: c1
  Charge       = 1
  Multiplicity = 1
  Basis Set: AUG-CC-PVTZ
    Blend: AUG-CC-PVTZ
  Basis Set: (AUG-CC-PVTZ AUX)
    Blend: AUG-CC-PVTZ-JKFIT

    Orbital Energies [Eh]
    ---------------------

    Doubly Occupied:

       1A    -15.910645     2A    -11.491893     3A     -1.522441
       4A     -1.177715     5A     -0.982785     6A     -0.982752
       7A     -0.860137     8A     -0.787173     9A     -0.787127

  @DF-RHF Final Energy:   -95.61818150037915

   => Energetics <=

    Nuclear Repulsion Energy =             47.7647836726952164
    One-Electron Energy =                -217.7605931624552795
    Two-Electron Energy =                  74.3776279893809118
    Total Energy =                        -95.6181815003791513
  Basis Set: (AUG-CC-PVTZ AUX)
    Blend: AUG-CC-PVTZ-RI
    Molecular point group: c1

    Geometry (in Angstrom), charge = 1, multiplicity = 1:

       Center              X                  Y                   Z               Mass
    ------------   -----------------  -----------------  -----------------  -----------------
         N           -0.705299113385     0.000001320706     0.000030775214    14.003074004430
         H           -1.083415113385     0.822174320706     0.482885775214     1.007825032230
         H           -1.082792113385     0.007259320706    -0.953390224786     1.007825032230
         H           -1.083381113385    -0.829450679294     0.470301775214     1.007825032230
         C            0.811408886615     0.000001320706    -0.000002624786    12.000000000000
         H            1.129061886615    -0.890349679294    -0.523402224786     1.007825032230
         H            1.129095886615     0.898481320706    -0.509304224786     1.007825032230
         H            1.129796886615    -0.008148679294     1.032512775214     1.007825032230

  Basis Set: AUG-CC-PVTZ
    Blend: AUG-CC-PVTZ
  Basis Set: (AUG-CC-PVTZ AUX)
    Blend: AUG-CC-PVTZ-JKFIT
	 Reference Energy          =     -95.6181815003791513 [Eh]
	 Singles Energy            =      -0.0000000000000000 [Eh]
	 Same-Spin Energy          =      -0.0898472812034783 [Eh]
	 Opposite-Spin Energy      =      -0.3487888480613382 [Eh]
	 Correlation Energy        =      -0.4386361292648165 [Eh]
	 Total Energy              =     -96.0568176296439731 [Eh]

	 ================> DF-SCS-MP2 Energies <==================
	-----------------------------------------------------------
	 SCS Same-Spin Scale       =       0.3333333333333333 [-]
	 SCS Opposite-Spin Scale   =       1.2000000000000000 [-]
	 SCS Same-Spin Energy      =      -0.0299490937344928 [Eh]
	 SCS Opposite-Spin Energy  =      -0.4185466176736058 [Eh]
	 SCS Correlation Energy    =      -0.4484957114080986 [Eh]
	 SCS Total Energy          =     -96.0666772117872512 [Eh]
	-----------------------------------------------------------

  Dipole Moment: [D]
     X:    -2.1571      Y:    -0.0000      Z:     0.0000     Total:     2.1571

*** Psi4 exiting successfully. Buy a developer a beer!
