                               Psi4 1.3.2 release

  ==> Input File <==

--------------------------------------------------------------------------
#psi4
#
memory 32 gb

molecule  {
1 1
  N       -0.7026530     0.0000020     0.0000410
  H       -1.0807690     0.8221750     0.4828960
  H       -1.0801460     0.0072600    -0.9533800
  H       -1.0807350    -0.8294500     0.4703120
  C        0.8440550     0.0000020     0.0000069
  H        1.1317080    -0.8903490    -0.5233920
  H        1.1317420     0.8984820    -0.5092940
  H        1.1324430    -0.0081480     1.0325230
units angstrom
no_reorient  #important for SAPT in psi4, default
symmetry c1  #important for SAPT in psi4, default
}

set PROPERTIES_ORIGIN ["COM"]
properties('MP2/aug-cc-pvtz', properties = ['dipole'])
--------------------------------------------------------------------------

    Molecular point group: c1
  Charge       = 1
  Multiplicity = 1
  Basis Set: AUG-CC-PVTZ
    Blend: AUG-CC-PVTZ
  Basis Set: (AUG-CC-PVTZ AUX)
    Blend: AUG-CC-PVTZ-JKFIT

    Orbital Energies [Eh]
    ---------------------

    Doubly Occupied:

       1A    -15.907290     2A    -11.493716     3A     -1.514718
       4A     -1.179418     5A     -0.978279     6A     -0.978245
       7A     -0.849545     8A     -0.794755     9A     -0.794717

  @DF-RHF Final Energy:   -95.61699110094591

   => Energetics <=

    Nuclear Repulsion Energy =             47.4938611586486914
    One-Electron Energy =                -217.2403382807758589
    Two-Electron Energy =                  74.1294860211812647
    Total Energy =                        -95.6169911009459099
  Basis Set: (AUG-CC-PVTZ AUX)
    Blend: AUG-CC-PVTZ-RI
    Molecular point group: c1

    Geometry (in Angstrom), charge = 1, multiplicity = 1:

       Center              X                  Y                   Z               Mass
    ------------   -----------------  -----------------  -----------------  -----------------
         N           -0.716531554202     0.000001320706     0.000031037304    14.003074004430
         H           -1.094647554202     0.822174320706     0.482886037304     1.007825032230
         H           -1.094024554202     0.007259320706    -0.953389962696     1.007825032230
         H           -1.094613554202    -0.829450679294     0.470302037304     1.007825032230
         C            0.830176445798     0.000001320706    -0.000003062696    12.000000000000
         H            1.117829445798    -0.890349679294    -0.523401962696     1.007825032230
         H            1.117863445798     0.898481320706    -0.509303962696     1.007825032230
         H            1.118564445798    -0.008148679294     1.032513037304     1.007825032230

  Basis Set: AUG-CC-PVTZ
    Blend: AUG-CC-PVTZ
  Basis Set: (AUG-CC-PVTZ AUX)
    Blend: AUG-CC-PVTZ-JKFIT
	 Reference Energy          =     -95.6169911009459099 [Eh]
	 Singles Energy            =      -0.0000000000000000 [Eh]
	 Same-Spin Energy          =      -0.0896549185382219 [Eh]
	 Opposite-Spin Energy      =      -0.3488048880604159 [Eh]
	 Correlation Energy        =      -0.4384598065986378 [Eh]
	 Total Energy              =     -96.0554509075445537 [Eh]

	 ================> DF-SCS-MP2 Energies <==================
	-----------------------------------------------------------
	 SCS Same-Spin Scale       =       0.3333333333333333 [-]
	 SCS Opposite-Spin Scale   =       1.2000000000000000 [-]
	 SCS Same-Spin Energy      =      -0.0298849728460740 [Eh]
	 SCS Opposite-Spin Energy  =      -0.4185658656724990 [Eh]
	 SCS Correlation Energy    =      -0.4484508385185730 [Eh]
	 SCS Total Energy          =     -96.0654419394644776 [Eh]
	-----------------------------------------------------------

  Dipole Moment: [D]
     X:    -2.1237      Y:    -0.0000      Z:    -0.0000     Total:     2.1237

*** Psi4 exiting successfully. Buy a developer a beer!
