                               Psi4 1.3.2 release

  ==> Input File <==

--------------------------------------------------------------------------
#psi4
#
memory 32 gb

molecule  {
1 1
  N        0.7090220    -0.0000240     0.0000000
  H        1.0870090     0.4773310    -0.8288960
  H        1.0870090     0.4793650     0.8277210
  H        1.0871940    -0.9564710     0.0011740
  C       -1.0006150    -0.0000081     0.0000000
  H       -1.1402290    -0.5156710     0.8957280
  H       -1.1402190     1.0335470    -0.0012690
  H       -1.1402280    -0.5178690    -0.8944600
units angstrom
no_reorient  #important for SAPT in psi4, default
symmetry c1  #important for SAPT in psi4, default
}

set PROPERTIES_ORIGIN ["COM"]
properties('MP2/aug-cc-pvtz', properties = ['dipole'])
--------------------------------------------------------------------------

    Molecular point group: c1
  Charge       = 1
  Multiplicity = 1
  Basis Set: AUG-CC-PVTZ
    Blend: AUG-CC-PVTZ
  Basis Set: (AUG-CC-PVTZ AUX)
    Blend: AUG-CC-PVTZ-JKFIT

    Orbital Energies [Eh]
    ---------------------

    Doubly Occupied:

       1A    -15.885829     2A    -11.509266     3A     -1.475918
       4A     -1.188597     5A     -0.953059     6A     -0.953033
       7A     -0.827457     8A     -0.827455     9A     -0.794925

  @DF-RHF Final Energy:   -95.59598795396228

   => Energetics <=

    Nuclear Repulsion Energy =             46.0090617833113669
    One-Electron Energy =                -214.3790216312998496
    Two-Electron Energy =                  72.7739718940261895
    Total Energy =                        -95.5959879539622790
  Basis Set: (AUG-CC-PVTZ AUX)
    Blend: AUG-CC-PVTZ-RI
    Molecular point group: c1

    Geometry (in Angstrom), charge = 1, multiplicity = 1:

       Center              X                  Y                   Z               Mass
    ------------   -----------------  -----------------  -----------------  -----------------
         N            0.778900395734    -0.000017776655     0.000000062891    14.003074004430
         H            1.156887395734     0.477337223345    -0.828895937109     1.007825032230
         H            1.156887395734     0.479371223345     0.827721062891     1.007825032230
         H            1.157072395734    -0.956464776655     0.001174062891     1.007825032230
         C           -0.930736604266    -0.000001876655     0.000000062891    12.000000000000
         H           -1.070350604266    -0.515664776655     0.895728062891     1.007825032230
         H           -1.070340604266     1.033553223345    -0.001268937109     1.007825032230
         H           -1.070349604266    -0.517862776655    -0.894459937109     1.007825032230

  Basis Set: AUG-CC-PVTZ
    Blend: AUG-CC-PVTZ
  Basis Set: (AUG-CC-PVTZ AUX)
    Blend: AUG-CC-PVTZ-JKFIT
	 Reference Energy          =     -95.5959879539622790 [Eh]
	 Singles Energy            =      -0.0000000000000000 [Eh]
	 Same-Spin Energy          =      -0.0889232157519569 [Eh]
	 Opposite-Spin Energy      =      -0.3494855259439658 [Eh]
	 Correlation Energy        =      -0.4384087416959228 [Eh]
	 Total Energy              =     -96.0343966956582022 [Eh]

	 ================> DF-SCS-MP2 Energies <==================
	-----------------------------------------------------------
	 SCS Same-Spin Scale       =       0.3333333333333333 [-]
	 SCS Opposite-Spin Scale   =       1.2000000000000000 [-]
	 SCS Same-Spin Energy      =      -0.0296410719173190 [Eh]
	 SCS Opposite-Spin Energy  =      -0.4193826311327590 [Eh]
	 SCS Correlation Energy    =      -0.4490237030500779 [Eh]
	 SCS Total Energy          =     -96.0450116570123527 [Eh]
	-----------------------------------------------------------

  Dipole Moment: [D]
     X:     1.8442      Y:     0.0003      Z:    -0.0000     Total:     1.8442

*** Psi4 exiting successfully. Buy a developer a beer!
