                               Psi4 1.3.2 release

  ==> Input File <==

--------------------------------------------------------------------------
#psi4
#
memory 32 gb

molecule  {
1 1
  N        0.7090220    -0.0000240     0.0000000
  H        1.0533966     0.4836238    -0.8398223
  H        1.0870090     0.4793650     0.8277210
  H        1.0871940    -0.9564710     0.0011740
  C       -0.8006150    -0.0000100     0.0000000
  H       -1.1402290    -0.5156710     0.8957280
  H       -1.1402190     1.0335470    -0.0012690
  H       -1.1402280    -0.5178690    -0.8944600
units angstrom
no_reorient  #important for SAPT in psi4, default
symmetry c1  #important for SAPT in psi4, default
}

set PROPERTIES_ORIGIN ["COM"]
properties('MP2/aug-cc-pvtz', properties = ['dipole'])
--------------------------------------------------------------------------

    Molecular point group: c1
  Charge       = 1
  Multiplicity = 1
  Basis Set: AUG-CC-PVTZ
    Blend: AUG-CC-PVTZ
  Basis Set: (AUG-CC-PVTZ AUX)
    Blend: AUG-CC-PVTZ-JKFIT

    Orbital Energies [Eh]
    ---------------------

    Doubly Occupied:

       1A    -15.912740     2A    -11.492278     3A     -1.523034
       4A     -1.174042     5A     -0.985316     6A     -0.982471
       7A     -0.862215     8A     -0.782135     9A     -0.781957

  @DF-RHF Final Energy:   -95.61774687235182

   => Energetics <=

    Nuclear Repulsion Energy =             47.7259795685168200
    One-Electron Energy =                -217.6950751349059487
    Two-Electron Energy =                  74.3513486940372985
    Total Energy =                        -95.6177468723518160
  Basis Set: (AUG-CC-PVTZ AUX)
    Blend: AUG-CC-PVTZ-RI
    Molecular point group: c1

    Geometry (in Angstrom), charge = 1, multiplicity = 1:

       Center              X                  Y                   Z               Mass
    ------------   -----------------  -----------------  -----------------  -----------------
         N            0.705074411476    -0.000214944723     0.000343644492    14.003074004430
         H            1.049449011476     0.483432855277    -0.839478655508     1.007825032230
         H            1.083061411476     0.479174055277     0.828064644492     1.007825032230
         H            1.083246411476    -0.956661944723     0.001517644492     1.007825032230
         C           -0.804562588524    -0.000200944723     0.000343644492    12.000000000000
         H           -1.144176588524    -0.515861944723     0.896071644492     1.007825032230
         H           -1.144166588524     1.033356055277    -0.000925355508     1.007825032230
         H           -1.144175588524    -0.518059944723    -0.894116355508     1.007825032230

  Basis Set: AUG-CC-PVTZ
    Blend: AUG-CC-PVTZ
  Basis Set: (AUG-CC-PVTZ AUX)
    Blend: AUG-CC-PVTZ-JKFIT
	 Reference Energy          =     -95.6177468723518160 [Eh]
	 Singles Energy            =      -0.0000000000000000 [Eh]
	 Same-Spin Energy          =      -0.0899548514012577 [Eh]
	 Opposite-Spin Energy      =      -0.3490315465947526 [Eh]
	 Correlation Energy        =      -0.4389863979960102 [Eh]
	 Total Energy              =     -96.0567332703478201 [Eh]

	 ================> DF-SCS-MP2 Energies <==================
	-----------------------------------------------------------
	 SCS Same-Spin Scale       =       0.3333333333333333 [-]
	 SCS Opposite-Spin Scale   =       1.2000000000000000 [-]
	 SCS Same-Spin Energy      =      -0.0299849504670859 [Eh]
	 SCS Opposite-Spin Energy  =      -0.4188378559137030 [Eh]
	 SCS Correlation Energy    =      -0.4488228063807889 [Eh]
	 SCS Total Energy          =     -96.0665696787326056 [Eh]
	-----------------------------------------------------------

  Dipole Moment: [D]
     X:     2.1346      Y:     0.0056      Z:    -0.0092     Total:     2.1346

*** Psi4 exiting successfully. Buy a developer a beer!
