                               Psi4 1.3.2 release

  ==> Input File <==

--------------------------------------------------------------------------
#psi4
#
memory 32 gb

molecule  {
1 1
  N        0.7090220    -0.0000240     0.0000000
  H        1.1047006     0.4997479    -0.8071413
  H        1.0870090     0.4793650     0.8277210
  H        1.0871940    -0.9564710     0.0011740
  C       -0.8006150    -0.0000100     0.0000000
  H       -1.1402290    -0.5156710     0.8957280
  H       -1.1402190     1.0335470    -0.0012690
  H       -1.1402280    -0.5178690    -0.8944600
units angstrom
no_reorient  #important for SAPT in psi4, default
symmetry c1  #important for SAPT in psi4, default
}

set PROPERTIES_ORIGIN ["COM"]
properties('MP2/aug-cc-pvtz', properties = ['dipole'])
--------------------------------------------------------------------------

    Molecular point group: c1
  Charge       = 1
  Multiplicity = 1
  Basis Set: AUG-CC-PVTZ
    Blend: AUG-CC-PVTZ
  Basis Set: (AUG-CC-PVTZ AUX)
    Blend: AUG-CC-PVTZ-JKFIT

    Orbital Energies [Eh]
    ---------------------

    Doubly Occupied:

       1A    -15.912640     2A    -11.492579     3A     -1.522872
       4A     -1.175465     5A     -0.984677     6A     -0.978483
       7A     -0.864620     8A     -0.782391     9A     -0.781476

  @DF-RHF Final Energy:   -95.61772442470664

   => Energetics <=

    Nuclear Repulsion Energy =             47.6974408806181671
    One-Electron Energy =                -217.6399234188669141
    Two-Electron Energy =                  74.3247581135421171
    Total Energy =                        -95.6177244247066369
  Basis Set: (AUG-CC-PVTZ AUX)
    Blend: AUG-CC-PVTZ-RI
    Molecular point group: c1

    Geometry (in Angstrom), charge = 1, multiplicity = 1:

       Center              X                  Y                   Z               Mass
    ------------   -----------------  -----------------  -----------------  -----------------
         N            0.703461137953    -0.000721973095    -0.000684021811    14.003074004430
         H            1.099139737953     0.499049926905    -0.807825321811     1.007825032230
         H            1.081448137953     0.478667026905     0.827036978189     1.007825032230
         H            1.081633137953    -0.957168973095     0.000489978189     1.007825032230
         C           -0.806175862047    -0.000707973095    -0.000684021811    12.000000000000
         H           -1.145789862047    -0.516368973095     0.895043978189     1.007825032230
         H           -1.145779862047     1.032849026905    -0.001953021811     1.007825032230
         H           -1.145788862047    -0.518566973095    -0.895144021811     1.007825032230

  Basis Set: AUG-CC-PVTZ
    Blend: AUG-CC-PVTZ
  Basis Set: (AUG-CC-PVTZ AUX)
    Blend: AUG-CC-PVTZ-JKFIT
	 Reference Energy          =     -95.6177244247066369 [Eh]
	 Singles Energy            =      -0.0000000000000000 [Eh]
	 Same-Spin Energy          =      -0.0899470539958143 [Eh]
	 Opposite-Spin Energy      =      -0.3489927644252341 [Eh]
	 Correlation Energy        =      -0.4389398184210484 [Eh]
	 Total Energy              =     -96.0566642431276847 [Eh]

	 ================> DF-SCS-MP2 Energies <==================
	-----------------------------------------------------------
	 SCS Same-Spin Scale       =       0.3333333333333333 [-]
	 SCS Opposite-Spin Scale   =       1.2000000000000000 [-]
	 SCS Same-Spin Energy      =      -0.0299823513319381 [Eh]
	 SCS Opposite-Spin Energy  =      -0.4187913173102809 [Eh]
	 SCS Correlation Energy    =      -0.4487736686422190 [Eh]
	 SCS Total Energy          =     -96.0664980933488550 [Eh]
	-----------------------------------------------------------

  Dipole Moment: [D]
     X:     2.1780      Y:     0.0237      Z:     0.0213     Total:     2.1782

*** Psi4 exiting successfully. Buy a developer a beer!
