                               Psi4 1.3.2 release

  ==> Input File <==

--------------------------------------------------------------------------
#psi4
#
memory 32 gb

molecule  {
1 1
  N        0.7090220    -0.0000240     0.0000000
  H        1.1849222     0.4549974    -0.7901171
  H        1.0870090     0.4793650     0.8277210
  H        1.0871940    -0.9564710     0.0011740
  C       -0.8006150    -0.0000100     0.0000000
  H       -1.1402290    -0.5156710     0.8957280
  H       -1.1402190     1.0335470    -0.0012690
  H       -1.1402280    -0.5178690    -0.8944600
units angstrom
no_reorient  #important for SAPT in psi4, default
symmetry c1  #important for SAPT in psi4, default
}

set PROPERTIES_ORIGIN ["COM"]
properties('MP2/aug-cc-pvtz', properties = ['dipole'])
--------------------------------------------------------------------------

    Molecular point group: c1
  Charge       = 1
  Multiplicity = 1
  Basis Set: AUG-CC-PVTZ
    Blend: AUG-CC-PVTZ
  Basis Set: (AUG-CC-PVTZ AUX)
    Blend: AUG-CC-PVTZ-JKFIT

    Orbital Energies [Eh]
    ---------------------

    Doubly Occupied:

       1A    -15.912303     2A    -11.493345     3A     -1.522757
       4A     -1.178007     5A     -0.982209     6A     -0.973273
       7A     -0.868483     8A     -0.781777     9A     -0.781665

  @DF-RHF Final Energy:   -95.61648815738073

   => Energetics <=

    Nuclear Repulsion Energy =             47.6570080078942055
    One-Electron Energy =                -217.5593517222953039
    Two-Electron Energy =                  74.2858555570203691
    Total Energy =                        -95.6164881573807293
  Basis Set: (AUG-CC-PVTZ AUX)
    Blend: AUG-CC-PVTZ-RI
    Molecular point group: c1

    Geometry (in Angstrom), charge = 1, multiplicity = 1:

       Center              X                  Y                   Z               Mass
    ------------   -----------------  -----------------  -----------------  -----------------
         N            0.700938539651     0.000685223162    -0.001219354165    14.003074004430
         H            1.176838739651     0.455706623162    -0.791336454165     1.007825032230
         H            1.078925539651     0.480074223162     0.826501645835     1.007825032230
         H            1.079110539651    -0.955761776838    -0.000045354165     1.007825032230
         C           -0.808698460349     0.000699223162    -0.001219354165    12.000000000000
         H           -1.148312460349    -0.514961776838     0.894508645835     1.007825032230
         H           -1.148302460349     1.034256223162    -0.002488354165     1.007825032230
         H           -1.148311460349    -0.517159776838    -0.895679354165     1.007825032230

  Basis Set: AUG-CC-PVTZ
    Blend: AUG-CC-PVTZ
  Basis Set: (AUG-CC-PVTZ AUX)
    Blend: AUG-CC-PVTZ-JKFIT
	 Reference Energy          =     -95.6164881573807293 [Eh]
	 Singles Energy            =      -0.0000000000000000 [Eh]
	 Same-Spin Energy          =      -0.0899774545139478 [Eh]
	 Opposite-Spin Energy      =      -0.3490010027845851 [Eh]
	 Correlation Energy        =      -0.4389784572985329 [Eh]
	 Total Energy              =     -96.0554666146792613 [Eh]

	 ================> DF-SCS-MP2 Energies <==================
	-----------------------------------------------------------
	 SCS Same-Spin Scale       =       0.3333333333333333 [-]
	 SCS Opposite-Spin Scale   =       1.2000000000000000 [-]
	 SCS Same-Spin Energy      =      -0.0299924848379826 [Eh]
	 SCS Opposite-Spin Energy  =      -0.4188012033415021 [Eh]
	 SCS Correlation Energy    =      -0.4487936881794847 [Eh]
	 SCS Total Energy          =     -96.0652818455602073 [Eh]
	-----------------------------------------------------------

  Dipole Moment: [D]
     X:     2.2417      Y:    -0.0199      Z:     0.0351     Total:     2.2420

*** Psi4 exiting successfully. Buy a developer a beer!
