                               Psi4 1.3.2 release

  ==> Input File <==

--------------------------------------------------------------------------
#psi4
#
memory 32 gb

molecule  {
1 1
  N        0.7090220    -0.0000240     0.0000000
  H        1.1605116     0.5701565    -0.9900815
  H        1.0870090     0.4793650     0.8277210
  H        1.0871940    -0.9564710     0.0011740
  C       -0.8006150    -0.0000100     0.0000000
  H       -1.1402290    -0.5156710     0.8957280
  H       -1.1402190     1.0335470    -0.0012690
  H       -1.1402280    -0.5178690    -0.8944600
units angstrom
no_reorient  #important for SAPT in psi4, default
symmetry c1  #important for SAPT in psi4, default
}

set PROPERTIES_ORIGIN ["COM"]
properties('MP2/aug-cc-pvtz', properties = ['dipole'])
--------------------------------------------------------------------------

    Molecular point group: c1
  Charge       = 1
  Multiplicity = 1
  Basis Set: AUG-CC-PVTZ
    Blend: AUG-CC-PVTZ
  Basis Set: (AUG-CC-PVTZ AUX)
    Blend: AUG-CC-PVTZ-JKFIT

    Orbital Energies [Eh]
    ---------------------

    Doubly Occupied:

       1A    -15.920205     2A    -11.489222     3A     -1.496764
       4A     -1.165454     5A     -0.975314     6A     -0.930569
       7A     -0.854020     8A     -0.778234     9A     -0.769713

  @DF-RHF Final Energy:   -95.59061845979157

   => Energetics <=

    Nuclear Repulsion Energy =             46.9330501303784757
    One-Electron Energy =                -216.2883454493382942
    Two-Electron Energy =                  73.7646768591682331
    Total Energy =                        -95.5906184597915711
  Basis Set: (AUG-CC-PVTZ AUX)
    Blend: AUG-CC-PVTZ-RI
    Molecular point group: c1

    Geometry (in Angstrom), charge = 1, multiplicity = 1:

       Center              X                  Y                   Z               Mass
    ------------   -----------------  -----------------  -----------------  -----------------
         N            0.701706140124    -0.002935997931     0.005068601396    14.003074004430
         H            1.153195740124     0.567244502069    -0.985012898604     1.007825032230
         H            1.079693140124     0.476453002069     0.832789601396     1.007825032230
         H            1.079878140124    -0.959382997931     0.006242601396     1.007825032230
         C           -0.807930859876    -0.002921997931     0.005068601396    12.000000000000
         H           -1.147544859876    -0.518582997931     0.900796601396     1.007825032230
         H           -1.147534859876     1.030635002069     0.003799601396     1.007825032230
         H           -1.147543859876    -0.520780997931    -0.889391398604     1.007825032230

  Basis Set: AUG-CC-PVTZ
    Blend: AUG-CC-PVTZ
  Basis Set: (AUG-CC-PVTZ AUX)
    Blend: AUG-CC-PVTZ-JKFIT
	 Reference Energy          =     -95.5906184597915711 [Eh]
	 Singles Energy            =      -0.0000000000000000 [Eh]
	 Same-Spin Energy          =      -0.0909453154193222 [Eh]
	 Opposite-Spin Energy      =      -0.3526052936581479 [Eh]
	 Correlation Energy        =      -0.4435506090774701 [Eh]
	 Total Energy              =     -96.0341690688690477 [Eh]

	 ================> DF-SCS-MP2 Energies <==================
	-----------------------------------------------------------
	 SCS Same-Spin Scale       =       0.3333333333333333 [-]
	 SCS Opposite-Spin Scale   =       1.2000000000000000 [-]
	 SCS Same-Spin Energy      =      -0.0303151051397741 [Eh]
	 SCS Opposite-Spin Energy  =      -0.4231263523897774 [Eh]
	 SCS Correlation Energy    =      -0.4534414575295515 [Eh]
	 SCS Total Energy          =     -96.0440599173211211 [Eh]
	-----------------------------------------------------------

  Dipole Moment: [D]
     X:     2.2847      Y:     0.1443      Z:    -0.2501     Total:     2.3029

*** Psi4 exiting successfully. Buy a developer a beer!
