                               Psi4 1.4a3.dev225

  ==> Input File <==

--------------------------------------------------------------------------
#psi4
#
memory 32 gb

molecule  {
1 1
  N       -0.7026530     0.0000020     0.0000410
  H       -1.0881417     0.8382062     0.4923110
  H       -1.0801460     0.0072600    -0.9533800
  H       -1.0807350    -0.8294500     0.4703120
  C        0.7940550     0.0000020     0.0000080
  H        1.1317080    -0.8903490    -0.5233920
  H        1.1317420     0.8984820    -0.5092940
  H        1.1324430    -0.0081480     1.0325230
units angstrom
no_reorient  #important for SAPT in psi4, default
symmetry c1  #important for SAPT in psi4, default
}

set PROPERTIES_ORIGIN ["COM"]
properties('MP2/aug-cc-pvtz', properties = ['dipole'])
--------------------------------------------------------------------------

    Molecular point group: c1
  Charge       = 1
  Multiplicity = 1
  Basis Set: AUG-CC-PVTZ
    Blend: AUG-CC-PVTZ
  Basis Set: (AUG-CC-PVTZ AUX)
    Blend: AUG-CC-PVTZ-JKFIT

    Orbital Energies [Eh]
    ---------------------

    Doubly Occupied:

       1A    -15.913791     2A    -11.490552     3A     -1.524535
       4A     -1.175520     5A     -0.985091     6A     -0.980095
       7A     -0.866285     8A     -0.781565     9A     -0.780922

  @DF-RHF Final Energy:   -95.61734683511513

   => Energetics <=

    Nuclear Repulsion Energy =             47.8607294769915015
    One-Electron Energy =                -217.9594387898210073
    Two-Electron Energy =                  74.4813624777143701
    Total Energy =                        -95.6173468351151286
  Basis Set: (AUG-CC-PVTZ AUX)
    Blend: AUG-CC-PVTZ-RI
    Molecular point group: c1

    Geometry (in Angstrom), charge = 1, multiplicity = 1:

       Center              X                  Y                   Z               Mass
    ------------   -----------------  -----------------  -----------------  -----------------
         N           -0.697578982190    -0.000502786391    -0.000265432759    14.003074004430
         H           -1.083067682190     0.837701413609     0.492004567241     1.007825032230
         H           -1.075071982190     0.006755213609    -0.953686432759     1.007825032230
         H           -1.075660982190    -0.829954786391     0.470005567241     1.007825032230
         C            0.799129017810    -0.000502786391    -0.000298432759    12.000000000000
         H            1.136782017810    -0.890853786391    -0.523698432759     1.007825032230
         H            1.136816017810     0.897977213609    -0.509600432759     1.007825032230
         H            1.137517017810    -0.008652786391     1.032216567241     1.007825032230

  Basis Set: AUG-CC-PVTZ
    Blend: AUG-CC-PVTZ
  Basis Set: (AUG-CC-PVTZ AUX)
    Blend: AUG-CC-PVTZ-JKFIT
	 Reference Energy          =     -95.6173468351151286 [Eh]
	 Singles Energy            =      -0.0000000000000000 [Eh]
	 Same-Spin Energy          =      -0.0900848105192496 [Eh]
	 Opposite-Spin Energy      =      -0.3491235828013928 [Eh]
	 Correlation Energy        =      -0.4392083933206425 [Eh]
	 Total Energy              =     -96.0565552284357693 [Eh]

	 ================> DF-SCS-MP2 Energies <==================
	-----------------------------------------------------------
	 SCS Same-Spin Scale       =       0.3333333333333333 [-]
	 SCS Opposite-Spin Scale   =       1.2000000000000000 [-]
	 SCS Same-Spin Energy      =      -0.0300282701730832 [Eh]
	 SCS Opposite-Spin Energy  =      -0.4189482993616714 [Eh]
	 SCS Correlation Energy    =      -0.4489765695347546 [Eh]
	 SCS Total Energy          =     -96.0663234046498786 [Eh]
	-----------------------------------------------------------

  Dipole Moment: [D]
     X:    -2.1874      Y:     0.0233      Z:     0.0137     Total:     2.1875

*** Psi4 exiting successfully. Buy a developer a beer!
