                               Psi4 1.4a3.dev225

  ==> Input File <==

--------------------------------------------------------------------------
#psi4
#
memory 32 gb

molecule  {
1 1
  N       -0.7026530     0.0000020     0.0000410
  H       -1.0733963     0.8061438     0.4734810
  H       -1.0801460     0.0072600    -0.9533800
  H       -1.0807350    -0.8294500     0.4703120
  C        0.7940550     0.0000020     0.0000080
  H        1.1317080    -0.8903490    -0.5233920
  H        1.1317420     0.8984820    -0.5092940
  H        1.1324430    -0.0081480     1.0325230
units angstrom
no_reorient  #important for SAPT in psi4, default
symmetry c1  #important for SAPT in psi4, default
}

set PROPERTIES_ORIGIN ["COM"]
properties('MP2/aug-cc-pvtz', properties = ['dipole'])
--------------------------------------------------------------------------

    Molecular point group: c1
  Charge       = 1
  Multiplicity = 1
  Basis Set: AUG-CC-PVTZ
    Blend: AUG-CC-PVTZ
  Basis Set: (AUG-CC-PVTZ AUX)
    Blend: AUG-CC-PVTZ-JKFIT

    Orbital Energies [Eh]
    ---------------------

    Doubly Occupied:

       1A    -15.911558     2A    -11.491182     3A     -1.531220
       4A     -1.177894     5A     -0.991562     6A     -0.986536
       7A     -0.868001     8A     -0.782949     9A     -0.782292

  @DF-RHF Final Energy:   -95.61849707472227

   => Energetics <=

    Nuclear Repulsion Energy =             48.0414075800464815
    One-Electron Energy =                -218.2734206791136842
    Two-Electron Energy =                  74.6135160243449462
    Total Energy =                        -95.6184970747222707
  Basis Set: (AUG-CC-PVTZ AUX)
    Blend: AUG-CC-PVTZ-RI
    Molecular point group: c1

    Geometry (in Angstrom), charge = 1, multiplicity = 1:

       Center              X                  Y                   Z               Mass
    ------------   -----------------  -----------------  -----------------  -----------------
         N           -0.698042656823     0.000505427803     0.000326683654    14.003074004430
         H           -1.068785956823     0.806647227803     0.473766683654     1.007825032230
         H           -1.075535656823     0.007763427803    -0.953094316346     1.007825032230
         H           -1.076124656823    -0.828946572197     0.470597683654     1.007825032230
         C            0.798665343177     0.000505427803     0.000293683654    12.000000000000
         H            1.136318343177    -0.889845572197    -0.523106316346     1.007825032230
         H            1.136352343177     0.898985427803    -0.509008316346     1.007825032230
         H            1.137053343177    -0.007644572197     1.032808683654     1.007825032230

  Basis Set: AUG-CC-PVTZ
    Blend: AUG-CC-PVTZ
  Basis Set: (AUG-CC-PVTZ AUX)
    Blend: AUG-CC-PVTZ-JKFIT
	 Reference Energy          =     -95.6184970747222707 [Eh]
	 Singles Energy            =      -0.0000000000000000 [Eh]
	 Same-Spin Energy          =      -0.0898999521523532 [Eh]
	 Opposite-Spin Energy      =      -0.3484997109708075 [Eh]
	 Correlation Energy        =      -0.4383996631231607 [Eh]
	 Total Energy              =     -96.0568967378454346 [Eh]

	 ================> DF-SCS-MP2 Energies <==================
	-----------------------------------------------------------
	 SCS Same-Spin Scale       =       0.3333333333333333 [-]
	 SCS Opposite-Spin Scale   =       1.2000000000000000 [-]
	 SCS Same-Spin Energy      =      -0.0299666507174511 [Eh]
	 SCS Opposite-Spin Energy  =      -0.4181996531649689 [Eh]
	 SCS Correlation Energy    =      -0.4481663038824200 [Eh]
	 SCS Total Energy          =     -96.0666633786046873 [Eh]
	-----------------------------------------------------------

  Dipole Moment: [D]
     X:    -2.1641      Y:    -0.0230      Z:    -0.0135     Total:     2.1643

*** Psi4 exiting successfully. Buy a developer a beer!
