                               Psi4 1.3.2 release

  ==> Input File <==

--------------------------------------------------------------------------
#psi4
#
memory 32 gb

molecule  {
1 1
  N        0.7090220    -0.0000240     0.0000000
  H        1.1528119     0.4630091    -0.8040282
  H        1.0870090     0.4793650     0.8277210
  H        1.0871940    -0.9564710     0.0011740
  C       -0.8006150    -0.0000100     0.0000000
  H       -1.1402290    -0.5156710     0.8957280
  H       -1.1402190     1.0335470    -0.0012690
  H       -1.1402280    -0.5178690    -0.8944600
units angstrom
no_reorient  #important for SAPT in psi4, default
symmetry c1  #important for SAPT in psi4, default
}

set PROPERTIES_ORIGIN ["COM"]
properties('MP2/aug-cc-pvtz', properties = ['dipole'])
--------------------------------------------------------------------------

    Molecular point group: c1
  Charge       = 1
  Multiplicity = 1
  Basis Set: AUG-CC-PVTZ
    Blend: AUG-CC-PVTZ
  Basis Set: (AUG-CC-PVTZ AUX)
    Blend: AUG-CC-PVTZ-JKFIT

    Orbital Energies [Eh]
    ---------------------

    Doubly Occupied:

       1A    -15.912471     2A    -11.492996     3A     -1.522768
       4A     -1.176938     5A     -0.982276     6A     -0.976364
       7A     -0.866927     8A     -0.781836     9A     -0.781807

  @DF-RHF Final Energy:   -95.61724986326898

   => Energetics <=

    Nuclear Repulsion Energy =             47.6724776610387764
    One-Electron Energy =                -217.5906906036132682
    Two-Electron Energy =                  74.3009630793055038
    Total Energy =                        -95.6172498632689809
  Basis Set: (AUG-CC-PVTZ AUX)
    Blend: AUG-CC-PVTZ-RI
    Molecular point group: c1

    Geometry (in Angstrom), charge = 1, multiplicity = 1:

       Center              X                  Y                   Z               Mass
    ------------   -----------------  -----------------  -----------------  -----------------
         N            0.701948260079     0.000433292251    -0.000781914408    14.003074004430
         H            1.145738160079     0.463466392251    -0.804810114408     1.007825032230
         H            1.079935260079     0.479822292251     0.826939085592     1.007825032230
         H            1.080120260079    -0.956013707749     0.000392085592     1.007825032230
         C           -0.807688739921     0.000447292251    -0.000781914408    12.000000000000
         H           -1.147302739921    -0.515213707749     0.894946085592     1.007825032230
         H           -1.147292739921     1.034004292251    -0.002050914408     1.007825032230
         H           -1.147301739921    -0.517411707749    -0.895241914408     1.007825032230

  Basis Set: AUG-CC-PVTZ
    Blend: AUG-CC-PVTZ
  Basis Set: (AUG-CC-PVTZ AUX)
    Blend: AUG-CC-PVTZ-JKFIT
	 Reference Energy          =     -95.6172498632689809 [Eh]
	 Singles Energy            =      -0.0000000000000000 [Eh]
	 Same-Spin Energy          =      -0.0899557195954021 [Eh]
	 Opposite-Spin Energy      =      -0.3489821335712862 [Eh]
	 Correlation Energy        =      -0.4389378531666883 [Eh]
	 Total Energy              =     -96.0561877164356730 [Eh]

	 ================> DF-SCS-MP2 Energies <==================
	-----------------------------------------------------------
	 SCS Same-Spin Scale       =       0.3333333333333333 [-]
	 SCS Opposite-Spin Scale   =       1.2000000000000000 [-]
	 SCS Same-Spin Energy      =      -0.0299852398651340 [Eh]
	 SCS Opposite-Spin Energy  =      -0.4187785602855434 [Eh]
	 SCS Correlation Energy    =      -0.4487638001506775 [Eh]
	 SCS Total Energy          =     -96.0660136634196533 [Eh]
	-----------------------------------------------------------

  Dipole Moment: [D]
     X:     2.2167      Y:    -0.0125      Z:     0.0222     Total:     2.2168

*** Psi4 exiting successfully. Buy a developer a beer!
