                               Psi4 1.3.2 release

  ==> Input File <==

--------------------------------------------------------------------------
#psi4
#
memory 32 gb

molecule  {
1 1
  N        0.7090220    -0.0000240     0.0000000
  H        1.0870090     0.4773310    -0.8288960
  H        1.0870090     0.4793650     0.8277210
  H        1.0871940    -0.9564710     0.0011740
  C       -0.8006150    -0.0000100     0.0000000
  H       -1.1402290    -0.5156710     0.8957280
  H       -1.1402190     1.0335470    -0.0012690
  H       -1.1402280    -0.5178690    -0.8944600
units angstrom
no_reorient  #important for SAPT in psi4, default
symmetry c1  #important for SAPT in psi4, default
}

set PROPERTIES_ORIGIN ["COM"]
properties('MP2/aug-cc-pvtz', properties = ['dipole'])
--------------------------------------------------------------------------

    Molecular point group: c1
  Charge       = 1
  Multiplicity = 1
  Basis Set: AUG-CC-PVTZ
    Blend: AUG-CC-PVTZ
  Basis Set: (AUG-CC-PVTZ AUX)
    Blend: AUG-CC-PVTZ-JKFIT

    Orbital Energies [Eh]
    ---------------------

    Doubly Occupied:

       1A    -15.912690     2A    -11.492459     3A     -1.522907
       4A     -1.174949     5A     -0.982415     6A     -0.982387
       7A     -0.863785     8A     -0.781984     9A     -0.781982

  @DF-RHF Final Energy:   -95.61788063901071

   => Energetics <=

    Nuclear Repulsion Energy =             47.7069272315671071
    One-Electron Energy =                -217.6585013113145237
    Two-Electron Energy =                  74.3336934407367096
    Total Energy =                        -95.6178806390107070
  Basis Set: (AUG-CC-PVTZ AUX)
    Blend: AUG-CC-PVTZ-RI
    Molecular point group: c1

    Geometry (in Angstrom), charge = 1, multiplicity = 1:

       Center              X                  Y                   Z               Mass
    ------------   -----------------  -----------------  -----------------  -----------------
         N            0.704017456951    -0.000017065267     0.000000062891    14.003074004430
         H            1.082004456951     0.477337934733    -0.828895937109     1.007825032230
         H            1.082004456951     0.479371934733     0.827721062891     1.007825032230
         H            1.082189456951    -0.956464065267     0.001174062891     1.007825032230
         C           -0.805619543049    -0.000003065267     0.000000062891    12.000000000000
         H           -1.145233543049    -0.515664065267     0.895728062891     1.007825032230
         H           -1.145223543049     1.033553934733    -0.001268937109     1.007825032230
         H           -1.145232543049    -0.517862065267    -0.894459937109     1.007825032230

  Basis Set: AUG-CC-PVTZ
    Blend: AUG-CC-PVTZ
  Basis Set: (AUG-CC-PVTZ AUX)
    Blend: AUG-CC-PVTZ-JKFIT
	 Reference Energy          =     -95.6178806390107070 [Eh]
	 Singles Energy            =      -0.0000000000000000 [Eh]
	 Same-Spin Energy          =      -0.0899441583741367 [Eh]
	 Opposite-Spin Energy      =      -0.3489972087561480 [Eh]
	 Correlation Energy        =      -0.4389413671302848 [Eh]
	 Total Energy              =     -96.0568220061409903 [Eh]

	 ================> DF-SCS-MP2 Energies <==================
	-----------------------------------------------------------
	 SCS Same-Spin Scale       =       0.3333333333333333 [-]
	 SCS Opposite-Spin Scale   =       1.2000000000000000 [-]
	 SCS Same-Spin Energy      =      -0.0299813861247122 [Eh]
	 SCS Opposite-Spin Energy  =      -0.4187966505073776 [Eh]
	 SCS Correlation Energy    =      -0.4487780366320898 [Eh]
	 SCS Total Energy          =     -96.0666586756427989 [Eh]
	-----------------------------------------------------------

  Dipole Moment: [D]
     X:     2.1632      Y:     0.0003      Z:    -0.0000     Total:     2.1632

*** Psi4 exiting successfully. Buy a developer a beer!
