                               Psi4 1.3.2 release

  ==> Input File <==

--------------------------------------------------------------------------
#psi4
#
memory 32 gb

molecule  {
1 1
  N        0.7090220    -0.0000240     0.0000000
  H        1.0688568     0.4543325    -0.8496409
  H        1.0870090     0.4793650     0.8277210
  H        1.0871940    -0.9564710     0.0011740
  C       -0.8006150    -0.0000100     0.0000000
  H       -1.1402290    -0.5156710     0.8957280
  H       -1.1402190     1.0335470    -0.0012690
  H       -1.1402280    -0.5178690    -0.8944600
units angstrom
no_reorient  #important for SAPT in psi4, default
symmetry c1  #important for SAPT in psi4, default
}

set PROPERTIES_ORIGIN ["COM"]
properties('MP2/aug-cc-pvtz', properties = ['dipole'])
--------------------------------------------------------------------------

    Molecular point group: c1
  Charge       = 1
  Multiplicity = 1
  Basis Set: AUG-CC-PVTZ
    Blend: AUG-CC-PVTZ
  Basis Set: (AUG-CC-PVTZ AUX)
    Blend: AUG-CC-PVTZ-JKFIT

    Orbital Energies [Eh]
    ---------------------

    Doubly Occupied:

       1A    -15.912716     2A    -11.492353     3A     -1.522987
       4A     -1.174458     5A     -0.986246     6A     -0.980157
       7A     -0.862931     8A     -0.782465     9A     -0.781551

  @DF-RHF Final Energy:   -95.61774384020326

   => Energetics <=

    Nuclear Repulsion Energy =             47.7172267043235578
    One-Electron Energy =                -217.6782156913633344
    Two-Electron Energy =                  74.3432451468365088
    Total Energy =                        -95.6177438402032607
  Basis Set: (AUG-CC-PVTZ AUX)
    Blend: AUG-CC-PVTZ-RI
    Molecular point group: c1

    Geometry (in Angstrom), charge = 1, multiplicity = 1:

       Center              X                  Y                   Z               Mass
    ------------   -----------------  -----------------  -----------------  -----------------
         N            0.704588259688     0.000706131192     0.000652394052    14.003074004430
         H            1.064423059688     0.455062631192    -0.848988505948     1.007825032230
         H            1.082575259688     0.480095131192     0.828373394052     1.007825032230
         H            1.082760259688    -0.955740868808     0.001826394052     1.007825032230
         C           -0.805048740312     0.000720131192     0.000652394052    12.000000000000
         H           -1.144662740312    -0.514940868808     0.896380394052     1.007825032230
         H           -1.144652740312     1.034277131192    -0.000616605948     1.007825032230
         H           -1.144661740312    -0.517138868808    -0.893807605948     1.007825032230

  Basis Set: AUG-CC-PVTZ
    Blend: AUG-CC-PVTZ
  Basis Set: (AUG-CC-PVTZ AUX)
    Blend: AUG-CC-PVTZ-JKFIT
	 Reference Energy          =     -95.6177438402032607 [Eh]
	 Singles Energy            =      -0.0000000000000000 [Eh]
	 Same-Spin Energy          =      -0.0899524701534519 [Eh]
	 Opposite-Spin Energy      =      -0.3490197339367920 [Eh]
	 Correlation Energy        =      -0.4389722040902438 [Eh]
	 Total Energy              =     -96.0567160442935091 [Eh]

	 ================> DF-SCS-MP2 Energies <==================
	-----------------------------------------------------------
	 SCS Same-Spin Scale       =       0.3333333333333333 [-]
	 SCS Opposite-Spin Scale   =       1.2000000000000000 [-]
	 SCS Same-Spin Energy      =      -0.0299841567178173 [Eh]
	 SCS Opposite-Spin Energy  =      -0.4188236807241504 [Eh]
	 SCS Correlation Energy    =      -0.4488078374419677 [Eh]
	 SCS Total Energy          =     -96.0665516776452222 [Eh]
	-----------------------------------------------------------

  Dipole Moment: [D]
     X:     2.1479      Y:    -0.0235      Z:    -0.0199     Total:     2.1482

*** Psi4 exiting successfully. Buy a developer a beer!
