                               Psi4 1.3.2 release

  ==> Input File <==

--------------------------------------------------------------------------
#psi4
#
memory 32 gb

molecule  {
1 1
  N        0.7090220    -0.0000240     0.0000000
  H        1.0702578     0.4805506    -0.8344863
  H        1.0870090     0.4793650     0.8277210
  H        1.0871940    -0.9564710     0.0011740
  C       -0.8006150    -0.0000100     0.0000000
  H       -1.1402290    -0.5156710     0.8957280
  H       -1.1402190     1.0335470    -0.0012690
  H       -1.1402280    -0.5178690    -0.8944600
units angstrom
no_reorient  #important for SAPT in psi4, default
symmetry c1  #important for SAPT in psi4, default
}

set PROPERTIES_ORIGIN ["COM"]
properties('MP2/aug-cc-pvtz', properties = ['dipole'])
--------------------------------------------------------------------------

    Molecular point group: c1
  Charge       = 1
  Multiplicity = 1
  Basis Set: AUG-CC-PVTZ
    Blend: AUG-CC-PVTZ
  Basis Set: (AUG-CC-PVTZ AUX)
    Blend: AUG-CC-PVTZ-JKFIT

    Orbital Energies [Eh]
    ---------------------

    Doubly Occupied:

       1A    -15.912720     2A    -11.492361     3A     -1.522966
       4A     -1.174488     5A     -0.983864     6A     -0.982440
       7A     -0.862999     8A     -0.782053     9A     -0.781978

  @DF-RHF Final Energy:   -95.61785131896481

   => Energetics <=

    Nuclear Repulsion Energy =             47.7162969405292259
    One-Electron Energy =                -217.6765598888923137
    Two-Electron Energy =                  74.3424116293982848
    Total Energy =                        -95.6178513189648100
  Basis Set: (AUG-CC-PVTZ AUX)
    Blend: AUG-CC-PVTZ-RI
    Molecular point group: c1

    Geometry (in Angstrom), charge = 1, multiplicity = 1:

       Center              X                  Y                   Z               Mass
    ------------   -----------------  -----------------  -----------------  -----------------
         N            0.704544204718    -0.000118306796     0.000175851971    14.003074004430
         H            1.065780004718     0.480456293204    -0.834310448029     1.007825032230
         H            1.082531204718     0.479270693204     0.827896851971     1.007825032230
         H            1.082716204718    -0.956565306796     0.001349851971     1.007825032230
         C           -0.805092795282    -0.000104306796     0.000175851971    12.000000000000
         H           -1.144706795282    -0.515765306796     0.895903851971     1.007825032230
         H           -1.144696795282     1.033452693204    -0.001093148029     1.007825032230
         H           -1.144705795282    -0.517963306796    -0.894284148029     1.007825032230

  Basis Set: AUG-CC-PVTZ
    Blend: AUG-CC-PVTZ
  Basis Set: (AUG-CC-PVTZ AUX)
    Blend: AUG-CC-PVTZ-JKFIT
	 Reference Energy          =     -95.6178513189648100 [Eh]
	 Singles Energy            =      -0.0000000000000000 [Eh]
	 Same-Spin Energy          =      -0.0899481027362173 [Eh]
	 Opposite-Spin Energy      =      -0.3490121246739932 [Eh]
	 Correlation Energy        =      -0.4389602274102105 [Eh]
	 Total Energy              =     -96.0568115463750161 [Eh]

	 ================> DF-SCS-MP2 Energies <==================
	-----------------------------------------------------------
	 SCS Same-Spin Scale       =       0.3333333333333333 [-]
	 SCS Opposite-Spin Scale   =       1.2000000000000000 [-]
	 SCS Same-Spin Energy      =      -0.0299827009120724 [Eh]
	 SCS Opposite-Spin Energy  =      -0.4188145496087919 [Eh]
	 SCS Correlation Energy    =      -0.4487972505208643 [Eh]
	 SCS Total Energy          =     -96.0666485694856789 [Eh]
	-----------------------------------------------------------

  Dipole Moment: [D]
     X:     2.1490      Y:     0.0030      Z:    -0.0048     Total:     2.1491

*** Psi4 exiting successfully. Buy a developer a beer!
