                               Psi4 1.3.2 release

  ==> Input File <==

--------------------------------------------------------------------------
#psi4
#
memory 32 gb

molecule  {
1 1
  N        0.7090220    -0.0000240     0.0000000
  H        1.1219102     0.5215559    -0.7844032
  H        1.0870090     0.4793650     0.8277210
  H        1.0871940    -0.9564710     0.0011740
  C       -0.8006150    -0.0000100     0.0000000
  H       -1.1402290    -0.5156710     0.8957280
  H       -1.1402190     1.0335470    -0.0012690
  H       -1.1402280    -0.5178690    -0.8944600
units angstrom
no_reorient  #important for SAPT in psi4, default
symmetry c1  #important for SAPT in psi4, default
}

set PROPERTIES_ORIGIN ["COM"]
properties('MP2/aug-cc-pvtz', properties = ['dipole'])
--------------------------------------------------------------------------

    Molecular point group: c1
  Charge       = 1
  Multiplicity = 1
  Basis Set: AUG-CC-PVTZ
    Blend: AUG-CC-PVTZ
  Basis Set: (AUG-CC-PVTZ AUX)
    Blend: AUG-CC-PVTZ-JKFIT

    Orbital Energies [Eh]
    ---------------------

    Doubly Occupied:

       1A    -15.912568     2A    -11.492712     3A     -1.522884
       4A     -1.176005     5A     -0.986945     6A     -0.974535
       7A     -0.865435     8A     -0.782777     9A     -0.780943

  @DF-RHF Final Energy:   -95.61727519009374

   => Energetics <=

    Nuclear Repulsion Energy =             47.6887688376053589
    One-Electron Energy =                -217.6224828739855752
    Two-Electron Energy =                  74.3164388462864878
    Total Energy =                        -95.6172751900937357
  Basis Set: (AUG-CC-PVTZ AUX)
    Blend: AUG-CC-PVTZ-RI
    Molecular point group: c1

    Geometry (in Angstrom), charge = 1, multiplicity = 1:

       Center              X                  Y                   Z               Mass
    ------------   -----------------  -----------------  -----------------  -----------------
         N            0.702919975626    -0.001407733835    -0.001399029894    14.003074004430
         H            1.115808175626     0.520172166165    -0.785802229894     1.007825032230
         H            1.080906975626     0.477981266165     0.826321970106     1.007825032230
         H            1.081091975626    -0.957854733835    -0.000225029894     1.007825032230
         C           -0.806717024374    -0.001393733835    -0.001399029894    12.000000000000
         H           -1.146331024374    -0.517054733835     0.894328970106     1.007825032230
         H           -1.146321024374     1.032163266165    -0.002668029894     1.007825032230
         H           -1.146330024374    -0.519252733835    -0.895859029894     1.007825032230

  Basis Set: AUG-CC-PVTZ
    Blend: AUG-CC-PVTZ
  Basis Set: (AUG-CC-PVTZ AUX)
    Blend: AUG-CC-PVTZ-JKFIT
	 Reference Energy          =     -95.6172751900937357 [Eh]
	 Singles Energy            =      -0.0000000000000000 [Eh]
	 Same-Spin Energy          =      -0.0899611285362088 [Eh]
	 Opposite-Spin Energy      =      -0.3490066800510215 [Eh]
	 Correlation Energy        =      -0.4389678085872303 [Eh]
	 Total Energy              =     -96.0562429986809718 [Eh]

	 ================> DF-SCS-MP2 Energies <==================
	-----------------------------------------------------------
	 SCS Same-Spin Scale       =       0.3333333333333333 [-]
	 SCS Opposite-Spin Scale   =       1.2000000000000000 [-]
	 SCS Same-Spin Energy      =      -0.0299870428454029 [Eh]
	 SCS Opposite-Spin Energy  =      -0.4188080160612258 [Eh]
	 SCS Correlation Energy    =      -0.4487950589066287 [Eh]
	 SCS Total Energy          =     -96.0660702490003615 [Eh]
	-----------------------------------------------------------

  Dipole Moment: [D]
     X:     2.1923      Y:     0.0466      Z:     0.0440     Total:     2.1932

*** Psi4 exiting successfully. Buy a developer a beer!
