                               Psi4 1.4a3.dev225

  ==> Input File <==

--------------------------------------------------------------------------
#psi4
#
memory 32 gb

molecule  {
1 1
  N       -0.7026530     0.0000020     0.0000410
  H       -1.0807690     0.8221750     0.4828960
  H       -1.0801460     0.0072600    -0.9533800
  H       -1.0807350    -0.8294500     0.4703120
  C        0.7740550     0.0000020     0.0000084
  H        1.1317080    -0.8903490    -0.5233920
  H        1.1317420     0.8984820    -0.5092940
  H        1.1324430    -0.0081480     1.0325230
units angstrom
no_reorient  #important for SAPT in psi4, default
symmetry c1  #important for SAPT in psi4, default
}

set PROPERTIES_ORIGIN ["COM"]
properties('MP2/aug-cc-pvtz', properties = ['dipole'])
--------------------------------------------------------------------------

    Molecular point group: c1
  Charge       = 1
  Multiplicity = 1
  Basis Set: AUG-CC-PVTZ
    Blend: AUG-CC-PVTZ
  Basis Set: (AUG-CC-PVTZ AUX)
    Blend: AUG-CC-PVTZ-JKFIT

    Orbital Energies [Eh]
    ---------------------

    Doubly Occupied:

       1A    -15.914634     2A    -11.489994     3A     -1.533311
       4A     -1.175735     5A     -0.988886     6A     -0.988852
       7A     -0.874099     8A     -0.776654     9A     -0.776599

  @DF-RHF Final Energy:   -95.61761068578514

   => Energetics <=

    Nuclear Repulsion Energy =             48.1381820012704722
    One-Electron Energy =                -218.4740581449310639
    Two-Electron Energy =                  74.7182654578754466
    Total Energy =                        -95.6176106857851380
  Basis Set: (AUG-CC-PVTZ AUX)
    Blend: AUG-CC-PVTZ-RI
    Molecular point group: c1

    Geometry (in Angstrom), charge = 1, multiplicity = 1:

       Center              X                  Y                   Z               Mass
    ------------   -----------------  -----------------  -----------------  -----------------
         N           -0.690322525628     0.000001320706     0.000030475682    14.003074004430
         H           -1.068438525628     0.822174320706     0.482885475682     1.007825032230
         H           -1.067815525628     0.007259320706    -0.953390524318     1.007825032230
         H           -1.068404525628    -0.829450679294     0.470301475682     1.007825032230
         C            0.786385474372     0.000001320706    -0.000002124318    12.000000000000
         H            1.144038474372    -0.890349679294    -0.523402524318     1.007825032230
         H            1.144072474372     0.898481320706    -0.509304524318     1.007825032230
         H            1.144773474372    -0.008148679294     1.032512475682     1.007825032230

  Basis Set: AUG-CC-PVTZ
    Blend: AUG-CC-PVTZ
  Basis Set: (AUG-CC-PVTZ AUX)
    Blend: AUG-CC-PVTZ-JKFIT
	 Reference Energy          =     -95.6176106857851380 [Eh]
	 Singles Energy            =      -0.0000000000000000 [Eh]
	 Same-Spin Energy          =      -0.0901491033501390 [Eh]
	 Opposite-Spin Energy      =      -0.3488489114726274 [Eh]
	 Correlation Energy        =      -0.4389980148227664 [Eh]
	 Total Energy              =     -96.0566087006079101 [Eh]

	 ================> DF-SCS-MP2 Energies <==================
	-----------------------------------------------------------
	 SCS Same-Spin Scale       =       0.3333333333333333 [-]
	 SCS Opposite-Spin Scale   =       1.2000000000000000 [-]
	 SCS Same-Spin Energy      =      -0.0300497011167130 [Eh]
	 SCS Opposite-Spin Energy  =      -0.4186186937671528 [Eh]
	 SCS Correlation Energy    =      -0.4486683948838658 [Eh]
	 SCS Total Energy          =     -96.0662790806690055 [Eh]
	-----------------------------------------------------------

  Dipole Moment: [D]
     X:    -2.1913      Y:    -0.0000      Z:     0.0000     Total:     2.1913

*** Psi4 exiting successfully. Buy a developer a beer!
