                               Psi4 1.4a3.dev225

  ==> Input File <==

--------------------------------------------------------------------------
#psi4
#
memory 32 gb

molecule  {
1 1
  N       -0.7026530     0.0000020     0.0000410
  H       -1.0807690     0.8221750     0.4828960
  H       -1.0801460     0.0072600    -0.9533800
  H       -1.0807350    -0.8294500     0.4703120
  C        0.7440550     0.0000020     0.0000091
  H        1.1317080    -0.8903490    -0.5233920
  H        1.1317420     0.8984820    -0.5092940
  H        1.1324430    -0.0081480     1.0325230
units angstrom
no_reorient  #important for SAPT in psi4, default
symmetry c1  #important for SAPT in psi4, default
}

set PROPERTIES_ORIGIN ["COM"]
properties('MP2/aug-cc-pvtz', properties = ['dipole'])
--------------------------------------------------------------------------

    Molecular point group: c1
  Charge       = 1
  Multiplicity = 1
  Basis Set: AUG-CC-PVTZ
    Blend: AUG-CC-PVTZ
  Basis Set: (AUG-CC-PVTZ AUX)
    Blend: AUG-CC-PVTZ-JKFIT

    Orbital Energies [Eh]
    ---------------------

    Doubly Occupied:

       1A    -15.917255     2A    -11.488971     3A     -1.541960
       4A     -1.174513     5A     -0.993555     6A     -0.993521
       7A     -0.884332     8A     -0.768502     9A     -0.768439

  @DF-RHF Final Energy:   -95.61529200658329

   => Energetics <=

    Nuclear Repulsion Energy =             48.4288928256154634
    One-Electron Energy =                -219.0262741427826825
    Two-Electron Energy =                  74.9820893105839303
    Total Energy =                        -95.6152920065832888
  Basis Set: (AUG-CC-PVTZ AUX)
    Blend: AUG-CC-PVTZ-RI
    Molecular point group: c1

    Geometry (in Angstrom), charge = 1, multiplicity = 1:

       Center              X                  Y                   Z               Mass
    ------------   -----------------  -----------------  -----------------  -----------------
         N           -0.679090084811     0.000001320706     0.000030213592    14.003074004430
         H           -1.057206084811     0.822174320706     0.482885213592     1.007825032230
         H           -1.056583084811     0.007259320706    -0.953390786408     1.007825032230
         H           -1.057172084811    -0.829450679294     0.470301213592     1.007825032230
         C            0.767617915189     0.000001320706    -0.000001686408    12.000000000000
         H            1.155270915189    -0.890349679294    -0.523402786408     1.007825032230
         H            1.155304915189     0.898481320706    -0.509304786408     1.007825032230
         H            1.156005915189    -0.008148679294     1.032512213592     1.007825032230

  Basis Set: AUG-CC-PVTZ
    Blend: AUG-CC-PVTZ
  Basis Set: (AUG-CC-PVTZ AUX)
    Blend: AUG-CC-PVTZ-JKFIT
	 Reference Energy          =     -95.6152920065832888 [Eh]
	 Singles Energy            =      -0.0000000000000000 [Eh]
	 Same-Spin Energy          =      -0.0904147372139490 [Eh]
	 Opposite-Spin Energy      =      -0.3489668851528002 [Eh]
	 Correlation Energy        =      -0.4393816223667492 [Eh]
	 Total Energy              =     -96.0546736289500416 [Eh]

	 ================> DF-SCS-MP2 Energies <==================
	-----------------------------------------------------------
	 SCS Same-Spin Scale       =       0.3333333333333333 [-]
	 SCS Opposite-Spin Scale   =       1.2000000000000000 [-]
	 SCS Same-Spin Energy      =      -0.0301382457379830 [Eh]
	 SCS Opposite-Spin Energy  =      -0.4187602621833602 [Eh]
	 SCS Correlation Energy    =      -0.4488985079213432 [Eh]
	 SCS Total Energy          =     -96.0641905145046309 [Eh]
	-----------------------------------------------------------

  Dipole Moment: [D]
     X:    -2.2091      Y:    -0.0000      Z:     0.0000     Total:     2.2091

*** Psi4 exiting successfully. Buy a developer a beer!
