                               Psi4 1.3.2 release

  ==> Input File <==

--------------------------------------------------------------------------
#psi4
#
memory 32 gb

molecule  {
1 1
  N        0.7090220    -0.0000240     0.0000000
  H        1.1036451     0.4739660    -0.8230532
  H        1.0870090     0.4793650     0.8277210
  H        1.0871940    -0.9564710     0.0011740
  C       -0.8006150    -0.0000100     0.0000000
  H       -1.1402290    -0.5156710     0.8957280
  H       -1.1402190     1.0335470    -0.0012690
  H       -1.1402280    -0.5178690    -0.8944600
units angstrom
no_reorient  #important for SAPT in psi4, default
symmetry c1  #important for SAPT in psi4, default
}

set PROPERTIES_ORIGIN ["COM"]
properties('MP2/aug-cc-pvtz', properties = ['dipole'])
--------------------------------------------------------------------------

    Molecular point group: c1
  Charge       = 1
  Multiplicity = 1
  Basis Set: AUG-CC-PVTZ
    Blend: AUG-CC-PVTZ
  Basis Set: (AUG-CC-PVTZ AUX)
    Blend: AUG-CC-PVTZ-JKFIT

    Orbital Energies [Eh]
    ---------------------

    Doubly Occupied:

       1A    -15.912650     2A    -11.492572     3A     -1.522858
       4A     -1.175426     5A     -0.982375     6A     -0.980908
       7A     -0.864572     8A     -0.781970     9A     -0.781924

  @DF-RHF Final Energy:   -95.61783498438186

   => Energetics <=

    Nuclear Repulsion Energy =             47.6978651163969971
    One-Electron Energy =                -217.6408916905636204
    Two-Electron Energy =                  74.3251915897847653
    Total Energy =                        -95.6178349843818580
  Basis Set: (AUG-CC-PVTZ AUX)
    Blend: AUG-CC-PVTZ-RI
    Molecular point group: c1

    Geometry (in Angstrom), charge = 1, multiplicity = 1:

       Center              X                  Y                   Z               Mass
    ------------   -----------------  -----------------  -----------------  -----------------
         N            0.703494328546     0.000088748420    -0.000183666147    14.003074004430
         H            1.098117428546     0.474078748420    -0.823236866147     1.007825032230
         H            1.081481328546     0.479477748420     0.827537333853     1.007825032230
         H            1.081666328546    -0.956358251580     0.000990333853     1.007825032230
         C           -0.806142671454     0.000102748420    -0.000183666147    12.000000000000
         H           -1.145756671454    -0.515558251580     0.895544333853     1.007825032230
         H           -1.145746671454     1.033659748420    -0.001452666147     1.007825032230
         H           -1.145755671454    -0.517756251580    -0.894643666147     1.007825032230

  Basis Set: AUG-CC-PVTZ
    Blend: AUG-CC-PVTZ
  Basis Set: (AUG-CC-PVTZ AUX)
    Blend: AUG-CC-PVTZ-JKFIT
	 Reference Energy          =     -95.6178349843818580 [Eh]
	 Singles Energy            =      -0.0000000000000000 [Eh]
	 Same-Spin Energy          =      -0.0899429820307767 [Eh]
	 Opposite-Spin Energy      =      -0.3489867765140902 [Eh]
	 Correlation Energy        =      -0.4389297585448669 [Eh]
	 Total Energy              =     -96.0567647429267311 [Eh]

	 ================> DF-SCS-MP2 Energies <==================
	-----------------------------------------------------------
	 SCS Same-Spin Scale       =       0.3333333333333333 [-]
	 SCS Opposite-Spin Scale   =       1.2000000000000000 [-]
	 SCS Same-Spin Energy      =      -0.0299809940102589 [Eh]
	 SCS Opposite-Spin Energy  =      -0.4187841318169082 [Eh]
	 SCS Correlation Energy    =      -0.4487651258271670 [Eh]
	 SCS Total Energy          =     -96.0666001102090235 [Eh]
	-----------------------------------------------------------

  Dipole Moment: [D]
     X:     2.1770      Y:    -0.0026      Z:     0.0051     Total:     2.1770

*** Psi4 exiting successfully. Buy a developer a beer!
