                               Psi4 1.3.2 release

  ==> Input File <==

--------------------------------------------------------------------------
#psi4
#
memory 32 gb

molecule  {
1 1
  N        0.7090220    -0.0000240     0.0000000
  H        1.0959137     0.4886139    -0.8181432
  H        1.0870090     0.4793650     0.8277210
  H        1.0871940    -0.9564710     0.0011740
  C       -0.8006150    -0.0000100     0.0000000
  H       -1.1402290    -0.5156710     0.8957280
  H       -1.1402190     1.0335470    -0.0012690
  H       -1.1402280    -0.5178690    -0.8944600
units angstrom
no_reorient  #important for SAPT in psi4, default
symmetry c1  #important for SAPT in psi4, default
}

set PROPERTIES_ORIGIN ["COM"]
properties('MP2/aug-cc-pvtz', properties = ['dipole'])
--------------------------------------------------------------------------

    Molecular point group: c1
  Charge       = 1
  Multiplicity = 1
  Basis Set: AUG-CC-PVTZ
    Blend: AUG-CC-PVTZ
  Basis Set: (AUG-CC-PVTZ AUX)
    Blend: AUG-CC-PVTZ-JKFIT

    Orbital Energies [Eh]
    ---------------------

    Doubly Occupied:

       1A    -15.912668     2A    -11.492517     3A     -1.522884
       4A     -1.175204     5A     -0.983545     6A     -0.980441
       7A     -0.864205     8A     -0.782190     9A     -0.781732

  @DF-RHF Final Energy:   -95.61783916444510

   => Energetics <=

    Nuclear Repulsion Energy =             47.7020825504940404
    One-Electron Energy =                -217.6490705974156015
    Two-Electron Energy =                  74.3291488824764457
    Total Energy =                        -95.6178391644451011
  Basis Set: (AUG-CC-PVTZ AUX)
    Blend: AUG-CC-PVTZ-RI
    Molecular point group: c1

    Geometry (in Angstrom), charge = 1, multiplicity = 1:

       Center              X                  Y                   Z               Mass
    ------------   -----------------  -----------------  -----------------  -----------------
         N            0.703737445319    -0.000371860289    -0.000338062938    14.003074004430
         H            1.090629145319     0.488266039711    -0.818481262938     1.007825032230
         H            1.081724445319     0.479017139711     0.827382937062     1.007825032230
         H            1.081909445319    -0.956818860289     0.000835937062     1.007825032230
         C           -0.805899554681    -0.000357860289    -0.000338062938    12.000000000000
         H           -1.145513554681    -0.516018860289     0.895389937062     1.007825032230
         H           -1.145503554681     1.033199139711    -0.001607062938     1.007825032230
         H           -1.145512554681    -0.518216860289    -0.894798062938     1.007825032230

  Basis Set: AUG-CC-PVTZ
    Blend: AUG-CC-PVTZ
  Basis Set: (AUG-CC-PVTZ AUX)
    Blend: AUG-CC-PVTZ-JKFIT
	 Reference Energy          =     -95.6178391644451011 [Eh]
	 Singles Energy            =      -0.0000000000000000 [Eh]
	 Same-Spin Energy          =      -0.0899442068679436 [Eh]
	 Opposite-Spin Energy      =      -0.3489927054660071 [Eh]
	 Correlation Energy        =      -0.4389369123339507 [Eh]
	 Total Energy              =     -96.0567760767790588 [Eh]

	 ================> DF-SCS-MP2 Energies <==================
	-----------------------------------------------------------
	 SCS Same-Spin Scale       =       0.3333333333333333 [-]
	 SCS Opposite-Spin Scale   =       1.2000000000000000 [-]
	 SCS Same-Spin Energy      =      -0.0299814022893145 [Eh]
	 SCS Opposite-Spin Energy  =      -0.4187912465592085 [Eh]
	 SCS Correlation Energy    =      -0.4487726488485230 [Eh]
	 SCS Total Energy          =     -96.0666118132936191 [Eh]
	-----------------------------------------------------------

  Dipole Moment: [D]
     X:     2.1706      Y:     0.0120      Z:     0.0105     Total:     2.1707

*** Psi4 exiting successfully. Buy a developer a beer!
