                               Psi4 1.4a3.dev225

  ==> Input File <==

--------------------------------------------------------------------------
#psi4
#
memory 32 gb

molecule  {
1 1
  N       -0.7026530     0.0000020     0.0000410
  H       -1.0992008     0.8622531     0.5064335
  H       -1.0801460     0.0072600    -0.9533800
  H       -1.0807350    -0.8294500     0.4703120
  C        0.7940550     0.0000020     0.0000080
  H        1.1317080    -0.8903490    -0.5233920
  H        1.1317420     0.8984820    -0.5092940
  H        1.1324430    -0.0081480     1.0325230
units angstrom
no_reorient  #important for SAPT in psi4, default
symmetry c1  #important for SAPT in psi4, default
}

set PROPERTIES_ORIGIN ["COM"]
properties('MP2/aug-cc-pvtz', properties = ['dipole'])
--------------------------------------------------------------------------

    Molecular point group: c1
  Charge       = 1
  Multiplicity = 1
  Basis Set: AUG-CC-PVTZ
    Blend: AUG-CC-PVTZ
  Basis Set: (AUG-CC-PVTZ AUX)
    Blend: AUG-CC-PVTZ-JKFIT

    Orbital Energies [Eh]
    ---------------------

    Doubly Occupied:

       1A    -15.915276     2A    -11.490076     3A     -1.519971
       4A     -1.173874     5A     -0.984016     6A     -0.971702
       7A     -0.864952     8A     -0.781012     9A     -0.779296

  @DF-RHF Final Energy:   -95.61502659232146

   => Energetics <=

    Nuclear Repulsion Energy =             47.7325874006269828
    One-Electron Energy =                -217.7348788423477686
    Two-Electron Energy =                  74.3872648493993296
    Total Energy =                        -95.6150265923214562
  Basis Set: (AUG-CC-PVTZ AUX)
    Blend: AUG-CC-PVTZ-RI
    Molecular point group: c1

    Geometry (in Angstrom), charge = 1, multiplicity = 1:

       Center              X                  Y                   Z               Mass
    ------------   -----------------  -----------------  -----------------  -----------------
         N           -0.697231224642    -0.001258950181    -0.000709520068    14.003074004430
         H           -1.093779024642     0.860992149819     0.505682979932     1.007825032230
         H           -1.074724224642     0.005999049819    -0.954130520068     1.007825032230
         H           -1.075313224642    -0.830710950181     0.469561479932     1.007825032230
         C            0.799476775358    -0.001258950181    -0.000742520068    12.000000000000
         H            1.137129775358    -0.891609950181    -0.524142520068     1.007825032230
         H            1.137163775358     0.897221049819    -0.510044520068     1.007825032230
         H            1.137864775358    -0.009408950181     1.031772479932     1.007825032230

  Basis Set: AUG-CC-PVTZ
    Blend: AUG-CC-PVTZ
  Basis Set: (AUG-CC-PVTZ AUX)
    Blend: AUG-CC-PVTZ-JKFIT
	 Reference Energy          =     -95.6150265923214562 [Eh]
	 Singles Energy            =      -0.0000000000000000 [Eh]
	 Same-Spin Energy          =      -0.0902286592472225 [Eh]
	 Opposite-Spin Energy      =      -0.3496190935782221 [Eh]
	 Correlation Energy        =      -0.4398477528254446 [Eh]
	 Total Energy              =     -96.0548743451468994 [Eh]

	 ================> DF-SCS-MP2 Energies <==================
	-----------------------------------------------------------
	 SCS Same-Spin Scale       =       0.3333333333333333 [-]
	 SCS Opposite-Spin Scale   =       1.2000000000000000 [-]
	 SCS Same-Spin Energy      =      -0.0300762197490742 [Eh]
	 SCS Opposite-Spin Energy  =      -0.4195429122938665 [Eh]
	 SCS Correlation Energy    =      -0.4496191320429406 [Eh]
	 SCS Total Energy          =     -96.0646457243643965 [Eh]
	-----------------------------------------------------------

  Dipole Moment: [D]
     X:    -2.2050      Y:     0.0590      Z:     0.0347     Total:     2.2061

*** Psi4 exiting successfully. Buy a developer a beer!
