                               Psi4 1.3.2 release

  ==> Input File <==

--------------------------------------------------------------------------
#psi4
#
memory 32 gb

molecule  {
1 1
  N        0.7090220    -0.0000240     0.0000000
  H        1.0502577     0.4309182    -0.7483032
  H        1.0870090     0.4793650     0.8277210
  H        1.0871940    -0.9564710     0.0011740
  C       -0.8006150    -0.0000100     0.0000000
  H       -1.1402290    -0.5156710     0.8957280
  H       -1.1402190     1.0335470    -0.0012690
  H       -1.1402280    -0.5178690    -0.8944600
units angstrom
no_reorient  #important for SAPT in psi4, default
symmetry c1  #important for SAPT in psi4, default
}

set PROPERTIES_ORIGIN ["COM"]
properties('MP2/aug-cc-pvtz', properties = ['dipole'])
--------------------------------------------------------------------------

    Molecular point group: c1
  Charge       = 1
  Multiplicity = 1
  Basis Set: AUG-CC-PVTZ
    Blend: AUG-CC-PVTZ
  Basis Set: (AUG-CC-PVTZ AUX)
    Blend: AUG-CC-PVTZ-JKFIT

    Orbital Energies [Eh]
    ---------------------

    Doubly Occupied:

       1A    -15.906258     2A    -11.494022     3A     -1.542137
       4A     -1.181446     5A     -1.011594     6A     -0.986051
       7A     -0.867934     8A     -0.786510     9A     -0.783761

  @DF-RHF Final Energy:   -95.61189377684789

   => Energetics <=

    Nuclear Repulsion Energy =             48.1954462749345183
    One-Electron Energy =                -218.4952527391849912
    Two-Electron Energy =                  74.6879126874025872
    Total Energy =                        -95.6118937768478929
  Basis Set: (AUG-CC-PVTZ AUX)
    Blend: AUG-CC-PVTZ-RI
    Molecular point group: c1

    Geometry (in Angstrom), charge = 1, multiplicity = 1:

       Center              X                  Y                   Z               Mass
    ------------   -----------------  -----------------  -----------------  -----------------
         N            0.705173115364     0.001442402638    -0.002534207934    14.003074004430
         H            1.046408815364     0.432384602638    -0.750837407934     1.007825032230
         H            1.083160115364     0.480831402638     0.825186792066     1.007825032230
         H            1.083345115364    -0.955004597362    -0.001360207934     1.007825032230
         C           -0.804463884636     0.001456402638    -0.002534207934    12.000000000000
         H           -1.144077884636    -0.514204597362     0.893193792066     1.007825032230
         H           -1.144067884636     1.035013402638    -0.003803207934     1.007825032230
         H           -1.144076884636    -0.516402597362    -0.896994207934     1.007825032230

  Basis Set: AUG-CC-PVTZ
    Blend: AUG-CC-PVTZ
  Basis Set: (AUG-CC-PVTZ AUX)
    Blend: AUG-CC-PVTZ-JKFIT
	 Reference Energy          =     -95.6118937768478929 [Eh]
	 Singles Energy            =      -0.0000000000000000 [Eh]
	 Same-Spin Energy          =      -0.0895149957657035 [Eh]
	 Opposite-Spin Energy      =      -0.3475842545892271 [Eh]
	 Correlation Energy        =      -0.4370992503549306 [Eh]
	 Total Energy              =     -96.0489930272028261 [Eh]

	 ================> DF-SCS-MP2 Energies <==================
	-----------------------------------------------------------
	 SCS Same-Spin Scale       =       0.3333333333333333 [-]
	 SCS Opposite-Spin Scale   =       1.2000000000000000 [-]
	 SCS Same-Spin Energy      =      -0.0298383319219012 [Eh]
	 SCS Opposite-Spin Energy  =      -0.4171011055070726 [Eh]
	 SCS Correlation Energy    =      -0.4469394374289737 [Eh]
	 SCS Total Energy          =     -96.0588332142768735 [Eh]
	-----------------------------------------------------------

  Dipole Moment: [D]
     X:     2.1056      Y:    -0.0646      Z:     0.1126     Total:     2.1096

*** Psi4 exiting successfully. Buy a developer a beer!
