                               Psi4 1.3.2 release

  ==> Input File <==

--------------------------------------------------------------------------
#psi4
#
memory 32 gb

molecule  {
1 1
  N        0.7090220    -0.0000240     0.0000000
  H        1.0870090     0.4773310    -0.8288960
  H        1.0870090     0.4793650     0.8277210
  H        1.0871940    -0.9564710     0.0011740
  C       -0.7006150    -0.0000109     0.0000000
  H       -1.1402290    -0.5156710     0.8957280
  H       -1.1402190     1.0335470    -0.0012690
  H       -1.1402280    -0.5178690    -0.8944600
units angstrom
no_reorient  #important for SAPT in psi4, default
symmetry c1  #important for SAPT in psi4, default
}

set PROPERTIES_ORIGIN ["COM"]
properties('MP2/aug-cc-pvtz', properties = ['dipole'])
--------------------------------------------------------------------------

    Molecular point group: c1
  Charge       = 1
  Multiplicity = 1
  Basis Set: AUG-CC-PVTZ
    Blend: AUG-CC-PVTZ
  Basis Set: (AUG-CC-PVTZ AUX)
    Blend: AUG-CC-PVTZ-JKFIT

    Orbital Energies [Eh]
    ---------------------

    Doubly Occupied:

       1A    -15.921248     2A    -11.489516     3A     -1.552021
       4A     -1.170879     5A     -0.998017     6A     -0.997990
       7A     -0.897296     8A     -0.754466     9A     -0.754463

  @DF-RHF Final Energy:   -95.60798305289357

   => Energetics <=

    Nuclear Repulsion Energy =             48.6735314919324651
    One-Electron Energy =                -219.4912340001292534
    Two-Electron Energy =                  75.2097194553032153
    Total Energy =                        -95.6079830528935730
  Basis Set: (AUG-CC-PVTZ AUX)
    Blend: AUG-CC-PVTZ-RI
    Molecular point group: c1

    Geometry (in Angstrom), charge = 1, multiplicity = 1:

       Center              X                  Y                   Z               Mass
    ------------   -----------------  -----------------  -----------------  -----------------
         N            0.666575987559    -0.000016728294     0.000000062891    14.003074004430
         H            1.044562987559     0.477338271706    -0.828895937109     1.007825032230
         H            1.044562987559     0.479372271706     0.827721062891     1.007825032230
         H            1.044747987559    -0.956463728294     0.001174062891     1.007825032230
         C           -0.743061012441    -0.000003628294     0.000000062891    12.000000000000
         H           -1.182675012441    -0.515663728294     0.895728062891     1.007825032230
         H           -1.182665012441     1.033554271706    -0.001268937109     1.007825032230
         H           -1.182674012441    -0.517861728294    -0.894459937109     1.007825032230

  Basis Set: AUG-CC-PVTZ
    Blend: AUG-CC-PVTZ
  Basis Set: (AUG-CC-PVTZ AUX)
    Blend: AUG-CC-PVTZ-JKFIT
	 Reference Energy          =     -95.6079830528935730 [Eh]
	 Singles Energy            =      -0.0000000000000000 [Eh]
	 Same-Spin Energy          =      -0.0908879990078222 [Eh]
	 Opposite-Spin Energy      =      -0.3495068618244213 [Eh]
	 Correlation Energy        =      -0.4403948608322435 [Eh]
	 Total Energy              =     -96.0483779137258153 [Eh]

	 ================> DF-SCS-MP2 Energies <==================
	-----------------------------------------------------------
	 SCS Same-Spin Scale       =       0.3333333333333333 [-]
	 SCS Opposite-Spin Scale   =       1.2000000000000000 [-]
	 SCS Same-Spin Energy      =      -0.0302959996692741 [Eh]
	 SCS Opposite-Spin Energy  =      -0.4194082341893056 [Eh]
	 SCS Correlation Energy    =      -0.4497042338585796 [Eh]
	 SCS Total Energy          =     -96.0576872867521558 [Eh]
	-----------------------------------------------------------

  Dipole Moment: [D]
     X:     2.2177      Y:     0.0003      Z:    -0.0000     Total:     2.2177

*** Psi4 exiting successfully. Buy a developer a beer!
