                               Psi4 1.3.2 release

  ==> Input File <==

--------------------------------------------------------------------------
#psi4
#
memory 32 gb

molecule  {
1 1
  N        0.7090220    -0.0000240     0.0000000
  H        1.1201609     0.4704567    -0.8169598
  H        1.0870090     0.4793650     0.8277210
  H        1.0871940    -0.9564710     0.0011740
  C       -0.8006150    -0.0000100     0.0000000
  H       -1.1402290    -0.5156710     0.8957280
  H       -1.1402190     1.0335470    -0.0012690
  H       -1.1402280    -0.5178690    -0.8944600
units angstrom
no_reorient  #important for SAPT in psi4, default
symmetry c1  #important for SAPT in psi4, default
}

set PROPERTIES_ORIGIN ["COM"]
properties('MP2/aug-cc-pvtz', properties = ['dipole'])
--------------------------------------------------------------------------

    Molecular point group: c1
  Charge       = 1
  Multiplicity = 1
  Basis Set: AUG-CC-PVTZ
    Blend: AUG-CC-PVTZ
  Basis Set: (AUG-CC-PVTZ AUX)
    Blend: AUG-CC-PVTZ-JKFIT

    Orbital Energies [Eh]
    ---------------------

    Doubly Occupied:

       1A    -15.912600     2A    -11.492699     3A     -1.522818
       4A     -1.175917     5A     -0.982342     6A     -0.979407
       7A     -0.865358     8A     -0.781941     9A     -0.781875

  @DF-RHF Final Energy:   -95.61771451847257

   => Energetics <=

    Nuclear Repulsion Energy =             47.6891055685633631
    One-Electron Energy =                -217.6237238298331818
    Two-Electron Energy =                  74.3169037427972370
    Total Energy =                        -95.6177145184725674
  Basis Set: (AUG-CC-PVTZ AUX)
    Blend: AUG-CC-PVTZ-RI
    Molecular point group: c1

    Geometry (in Angstrom), charge = 1, multiplicity = 1:

       Center              X                  Y                   Z               Mass
    ------------   -----------------  -----------------  -----------------  -----------------
         N            0.702974983021     0.000199099675    -0.000375275395    14.003074004430
         H            1.114113883021     0.470679799675    -0.817335075395     1.007825032230
         H            1.080961983021     0.479588099675     0.827345724605     1.007825032230
         H            1.081146983021    -0.956247900325     0.000798724605     1.007825032230
         C           -0.806662016979     0.000213099675    -0.000375275395    12.000000000000
         H           -1.146276016979    -0.515447900325     0.895352724605     1.007825032230
         H           -1.146266016979     1.033770099675    -0.001644275395     1.007825032230
         H           -1.146275016979    -0.517645900325    -0.894835275395     1.007825032230

  Basis Set: AUG-CC-PVTZ
    Blend: AUG-CC-PVTZ
  Basis Set: (AUG-CC-PVTZ AUX)
    Blend: AUG-CC-PVTZ-JKFIT
	 Reference Energy          =     -95.6177145184725674 [Eh]
	 Singles Energy            =      -0.0000000000000000 [Eh]
	 Same-Spin Energy          =      -0.0899445390510379 [Eh]
	 Opposite-Spin Energy      =      -0.3489808044780205 [Eh]
	 Correlation Energy        =      -0.4389253435290584 [Eh]
	 Total Energy              =     -96.0566398620016315 [Eh]

	 ================> DF-SCS-MP2 Energies <==================
	-----------------------------------------------------------
	 SCS Same-Spin Scale       =       0.3333333333333333 [-]
	 SCS Opposite-Spin Scale   =       1.2000000000000000 [-]
	 SCS Same-Spin Energy      =      -0.0299815130170126 [Eh]
	 SCS Opposite-Spin Energy  =      -0.4187769653736246 [Eh]
	 SCS Correlation Energy    =      -0.4487584783906373 [Eh]
	 SCS Total Energy          =     -96.0664729968632116 [Eh]
	-----------------------------------------------------------

  Dipole Moment: [D]
     X:     2.1905      Y:    -0.0057      Z:     0.0105     Total:     2.1905

*** Psi4 exiting successfully. Buy a developer a beer!
