                               Psi4 1.3.2 release

  ==> Input File <==

--------------------------------------------------------------------------
#psi4
#
memory 32 gb

molecule  {
1 1
  N        0.7090220    -0.0000240     0.0000000
  H        1.0135064     0.3845055    -0.6677105
  H        1.0870090     0.4793650     0.8277210
  H        1.0871940    -0.9564710     0.0011740
  C       -0.8006150    -0.0000100     0.0000000
  H       -1.1402290    -0.5156710     0.8957280
  H       -1.1402190     1.0335470    -0.0012690
  H       -1.1402280    -0.5178690    -0.8944600
units angstrom
no_reorient  #important for SAPT in psi4, default
symmetry c1  #important for SAPT in psi4, default
}

set PROPERTIES_ORIGIN ["COM"]
properties('MP2/aug-cc-pvtz', properties = ['dipole'])
--------------------------------------------------------------------------

    Molecular point group: c1
  Charge       = 1
  Multiplicity = 1
  Basis Set: AUG-CC-PVTZ
    Blend: AUG-CC-PVTZ
  Basis Set: (AUG-CC-PVTZ AUX)
    Blend: AUG-CC-PVTZ-JKFIT

    Orbital Energies [Eh]
    ---------------------

    Doubly Occupied:

       1A    -15.898407     2A    -11.495568     3A     -1.567353
       4A     -1.189800     5A     -1.040471     6A     -0.989824
       7A     -0.871864     8A     -0.790303     9A     -0.785470

  @DF-RHF Final Energy:   -95.57715354736801

   => Energetics <=

    Nuclear Repulsion Energy =             48.7820546984535639
    One-Electron Energy =                -219.4602911789438053
    Two-Electron Energy =                  75.1010829331222141
    Total Energy =                        -95.5771535473680132
  Basis Set: (AUG-CC-PVTZ AUX)
    Blend: AUG-CC-PVTZ-RI
    Molecular point group: c1

    Geometry (in Angstrom), charge = 1, multiplicity = 1:

       Center              X                  Y                   Z               Mass
    ------------   -----------------  -----------------  -----------------  -----------------
         N            0.706328773777     0.002901867398    -0.005068475614    14.003074004430
         H            1.010813173777     0.387431367398    -0.672778975614     1.007825032230
         H            1.084315773777     0.482290867398     0.822652524386     1.007825032230
         H            1.084500773777    -0.953545132602    -0.003894475614     1.007825032230
         C           -0.803308226223     0.002915867398    -0.005068475614    12.000000000000
         H           -1.142922226223    -0.512745132602     0.890659524386     1.007825032230
         H           -1.142912226223     1.036472867398    -0.006337475614     1.007825032230
         H           -1.142921226223    -0.514943132602    -0.899528475614     1.007825032230

  Basis Set: AUG-CC-PVTZ
    Blend: AUG-CC-PVTZ
  Basis Set: (AUG-CC-PVTZ AUX)
    Blend: AUG-CC-PVTZ-JKFIT
	 Reference Energy          =     -95.5771535473680132 [Eh]
	 Singles Energy            =      -0.0000000000000000 [Eh]
	 Same-Spin Energy          =      -0.0892043896108501 [Eh]
	 Opposite-Spin Energy      =      -0.3465703173147630 [Eh]
	 Correlation Energy        =      -0.4357747069256130 [Eh]
	 Total Energy              =     -96.0129282542936267 [Eh]

	 ================> DF-SCS-MP2 Energies <==================
	-----------------------------------------------------------
	 SCS Same-Spin Scale       =       0.3333333333333333 [-]
	 SCS Opposite-Spin Scale   =       1.2000000000000000 [-]
	 SCS Same-Spin Energy      =      -0.0297347965369500 [Eh]
	 SCS Opposite-Spin Energy  =      -0.4158843807777156 [Eh]
	 SCS Correlation Energy    =      -0.4456191773146656 [Eh]
	 SCS Total Energy          =     -96.0227727246826817 [Eh]
	-----------------------------------------------------------

  Dipole Moment: [D]
     X:     2.0508      Y:    -0.1244      Z:     0.2166     Total:     2.0659

*** Psi4 exiting successfully. Buy a developer a beer!
