                               Psi4 1.3.2 release

  ==> Input File <==

--------------------------------------------------------------------------
#psi4
#
memory 32 gb

molecule  {
1 1
  N        0.7090220    -0.0000240     0.0000000
  H        1.0193646     0.4893273    -0.8497255
  H        1.0870090     0.4793650     0.8277210
  H        1.0871940    -0.9564710     0.0011740
  C       -0.8006150    -0.0000100     0.0000000
  H       -1.1402290    -0.5156710     0.8957280
  H       -1.1402190     1.0335470    -0.0012690
  H       -1.1402280    -0.5178690    -0.8944600
units angstrom
no_reorient  #important for SAPT in psi4, default
symmetry c1  #important for SAPT in psi4, default
}

set PROPERTIES_ORIGIN ["COM"]
properties('MP2/aug-cc-pvtz', properties = ['dipole'])
--------------------------------------------------------------------------

    Molecular point group: c1
  Charge       = 1
  Multiplicity = 1
  Basis Set: AUG-CC-PVTZ
    Blend: AUG-CC-PVTZ
  Basis Set: (AUG-CC-PVTZ AUX)
    Blend: AUG-CC-PVTZ-JKFIT

    Orbital Energies [Eh]
    ---------------------

    Doubly Occupied:

       1A    -15.912747     2A    -11.492161     3A     -1.523202
       4A     -1.173203     5A     -0.988166     6A     -0.982530
       7A     -0.860657     8A     -0.782332     9A     -0.781864

  @DF-RHF Final Energy:   -95.61731200013840

   => Energetics <=

    Nuclear Repulsion Energy =             47.7463027588911828
    One-Electron Energy =                -217.7335027003929611
    Two-Electron Energy =                  74.3698879413633875
    Total Energy =                        -95.6173120001383978
  Basis Set: (AUG-CC-PVTZ AUX)
    Blend: AUG-CC-PVTZ-RI
    Molecular point group: c1

    Geometry (in Angstrom), charge = 1, multiplicity = 1:

       Center              X                  Y                   Z               Mass
    ------------   -----------------  -----------------  -----------------  -----------------
         N            0.706144560481    -0.000394293420     0.000655054331    14.003074004430
         H            1.016487160481     0.488957006580    -0.849070445669     1.007825032230
         H            1.084131560481     0.478994706580     0.828376054331     1.007825032230
         H            1.084316560481    -0.956841293420     0.001829054331     1.007825032230
         C           -0.803492439519    -0.000380293420     0.000655054331    12.000000000000
         H           -1.143106439519    -0.516041293420     0.896383054331     1.007825032230
         H           -1.143096439519     1.033176706580    -0.000613945669     1.007825032230
         H           -1.143105439519    -0.518239293420    -0.893804945669     1.007825032230

  Basis Set: AUG-CC-PVTZ
    Blend: AUG-CC-PVTZ
  Basis Set: (AUG-CC-PVTZ AUX)
    Blend: AUG-CC-PVTZ-JKFIT
	 Reference Energy          =     -95.6173120001383978 [Eh]
	 Singles Energy            =      -0.0000000000000000 [Eh]
	 Same-Spin Energy          =      -0.0899769191421304 [Eh]
	 Opposite-Spin Energy      =      -0.3490840012531766 [Eh]
	 Correlation Energy        =      -0.4390609203953071 [Eh]
	 Total Energy              =     -96.0563729205337040 [Eh]

	 ================> DF-SCS-MP2 Energies <==================
	-----------------------------------------------------------
	 SCS Same-Spin Scale       =       0.3333333333333333 [-]
	 SCS Opposite-Spin Scale   =       1.2000000000000000 [-]
	 SCS Same-Spin Energy      =      -0.0299923063807101 [Eh]
	 SCS Opposite-Spin Energy  =      -0.4189008015038119 [Eh]
	 SCS Correlation Energy    =      -0.4488931078845221 [Eh]
	 SCS Total Energy          =     -96.0662051080229134 [Eh]
	-----------------------------------------------------------

  Dipole Moment: [D]
     X:     2.1047      Y:     0.0101      Z:    -0.0171     Total:     2.1048

*** Psi4 exiting successfully. Buy a developer a beer!
