                               Psi4 1.3.2 release

  ==> Input File <==

--------------------------------------------------------------------------
#psi4
#
memory 32 gb

molecule  {
1 1
  N        0.7090220    -0.0000240     0.0000000
  H        1.1237603     0.5237438    -0.9094888
  H        1.0870090     0.4793650     0.8277210
  H        1.0871940    -0.9564710     0.0011740
  C       -0.8006150    -0.0000100     0.0000000
  H       -1.1402290    -0.5156710     0.8957280
  H       -1.1402190     1.0335470    -0.0012690
  H       -1.1402280    -0.5178690    -0.8944600
units angstrom
no_reorient  #important for SAPT in psi4, default
symmetry c1  #important for SAPT in psi4, default
}

set PROPERTIES_ORIGIN ["COM"]
properties('MP2/aug-cc-pvtz', properties = ['dipole'])
--------------------------------------------------------------------------

    Molecular point group: c1
  Charge       = 1
  Multiplicity = 1
  Basis Set: AUG-CC-PVTZ
    Blend: AUG-CC-PVTZ
  Basis Set: (AUG-CC-PVTZ AUX)
    Blend: AUG-CC-PVTZ-JKFIT

    Orbital Energies [Eh]
    ---------------------

    Doubly Occupied:

       1A    -15.917351     2A    -11.490865     3A     -1.508210
       4A     -1.169767     5A     -0.978848     6A     -0.954873
       7A     -0.859222     8A     -0.780142     9A     -0.776480

  @DF-RHF Final Energy:   -95.60831287201512

   => Energetics <=

    Nuclear Repulsion Energy =             47.2917239062548305
    One-Electron Energy =                -216.9285584916801213
    Two-Electron Energy =                  74.0285217134101572
    Total Energy =                        -95.6083128720151194
  Basis Set: (AUG-CC-PVTZ AUX)
    Blend: AUG-CC-PVTZ-RI
    Molecular point group: c1

    Geometry (in Angstrom), charge = 1, multiplicity = 1:

       Center              X                  Y                   Z               Mass
    ------------   -----------------  -----------------  -----------------  -----------------
         N            0.702861798538    -0.001476533171     0.002534333716    14.003074004430
         H            1.117600098538     0.522291266829    -0.906954466284     1.007825032230
         H            1.080848798538     0.477912466829     0.830255333716     1.007825032230
         H            1.081033798538    -0.957923533171     0.003708333716     1.007825032230
         C           -0.806775201462    -0.001462533171     0.002534333716    12.000000000000
         H           -1.146389201462    -0.517123533171     0.898262333716     1.007825032230
         H           -1.146379201462     1.032094466829     0.001265333716     1.007825032230
         H           -1.146388201462    -0.519321533171    -0.891925666284     1.007825032230

  Basis Set: AUG-CC-PVTZ
    Blend: AUG-CC-PVTZ
  Basis Set: (AUG-CC-PVTZ AUX)
    Blend: AUG-CC-PVTZ-JKFIT
	 Reference Energy          =     -95.6083128720151194 [Eh]
	 Singles Energy            =      -0.0000000000000000 [Eh]
	 Same-Spin Energy          =      -0.0904321444541819 [Eh]
	 Opposite-Spin Energy      =      -0.3506907503891910 [Eh]
	 Correlation Energy        =      -0.4411228948433730 [Eh]
	 Total Energy              =     -96.0494357668584939 [Eh]

	 ================> DF-SCS-MP2 Energies <==================
	-----------------------------------------------------------
	 SCS Same-Spin Scale       =       0.3333333333333333 [-]
	 SCS Opposite-Spin Scale   =       1.2000000000000000 [-]
	 SCS Same-Spin Energy      =      -0.0301440481513940 [Eh]
	 SCS Opposite-Spin Energy  =      -0.4208289004670292 [Eh]
	 SCS Correlation Energy    =      -0.4509729486184232 [Eh]
	 SCS Total Energy          =     -96.0592858206335478 [Eh]
	-----------------------------------------------------------

  Dipole Moment: [D]
     X:     2.2230      Y:     0.0700      Z:    -0.1211     Total:     2.2274

*** Psi4 exiting successfully. Buy a developer a beer!
