                               Psi4 1.3.2 release

  ==> Input File <==

--------------------------------------------------------------------------
#psi4
#
memory 32 gb

molecule  {
1 1
  N        0.7090220    -0.0000240     0.0000000
  H        1.0502663     0.4307805    -0.8693505
  H        1.0870090     0.4793650     0.8277210
  H        1.0871940    -0.9564710     0.0011740
  C       -0.8006150    -0.0000100     0.0000000
  H       -1.1402290    -0.5156710     0.8957280
  H       -1.1402190     1.0335470    -0.0012690
  H       -1.1402280    -0.5178690    -0.8944600
units angstrom
no_reorient  #important for SAPT in psi4, default
symmetry c1  #important for SAPT in psi4, default
}

set PROPERTIES_ORIGIN ["COM"]
properties('MP2/aug-cc-pvtz', properties = ['dipole'])
--------------------------------------------------------------------------

    Molecular point group: c1
  Charge       = 1
  Multiplicity = 1
  Basis Set: AUG-CC-PVTZ
    Blend: AUG-CC-PVTZ
  Basis Set: (AUG-CC-PVTZ AUX)
    Blend: AUG-CC-PVTZ-JKFIT

    Orbital Energies [Eh]
    ---------------------

    Doubly Occupied:

       1A    -15.912716     2A    -11.492263     3A     -1.523111
       4A     -1.173991     5A     -0.990053     6A     -0.977907
       7A     -0.862059     8A     -0.782929     9A     -0.781091

  @DF-RHF Final Energy:   -95.61731422705354

   => Energetics <=

    Nuclear Repulsion Energy =             47.7283394770280651
    One-Electron Energy =                -217.6990673845124320
    Two-Electron Energy =                  74.3534136804308190
    Total Energy =                        -95.6173142270535408
  Basis Set: (AUG-CC-PVTZ AUX)
    Blend: AUG-CC-PVTZ-RI
    Molecular point group: c1

    Geometry (in Angstrom), charge = 1, multiplicity = 1:

       Center              X                  Y                   Z               Mass
    ------------   -----------------  -----------------  -----------------  -----------------
         N            0.705172844934     0.001446732666     0.001272169817    14.003074004430
         H            1.046417144934     0.432251232666    -0.868078330183     1.007825032230
         H            1.083159844934     0.480835732666     0.828993169817     1.007825032230
         H            1.083344844934    -0.955000267334     0.002446169817     1.007825032230
         C           -0.804464155066     0.001460732666     0.001272169817    12.000000000000
         H           -1.144078155066    -0.514200267334     0.897000169817     1.007825032230
         H           -1.144068155066     1.035017732666     0.000003169817     1.007825032230
         H           -1.144077155066    -0.516398267334    -0.893187830183     1.007825032230

  Basis Set: AUG-CC-PVTZ
    Blend: AUG-CC-PVTZ
  Basis Set: (AUG-CC-PVTZ AUX)
    Blend: AUG-CC-PVTZ-JKFIT
	 Reference Energy          =     -95.6173142270535408 [Eh]
	 Singles Energy            =      -0.0000000000000000 [Eh]
	 Same-Spin Energy          =      -0.0899720192825486 [Eh]
	 Opposite-Spin Energy      =      -0.3490599603555016 [Eh]
	 Correlation Energy        =      -0.4390319796380502 [Eh]
	 Total Energy              =     -96.0563462066915861 [Eh]

	 ================> DF-SCS-MP2 Energies <==================
	-----------------------------------------------------------
	 SCS Same-Spin Scale       =       0.3333333333333333 [-]
	 SCS Opposite-Spin Scale   =       1.2000000000000000 [-]
	 SCS Same-Spin Energy      =      -0.0299906730941829 [Eh]
	 SCS Opposite-Spin Energy  =      -0.4188719524266019 [Eh]
	 SCS Correlation Energy    =      -0.4488626255207847 [Eh]
	 SCS Total Energy          =     -96.0661768525743298 [Eh]
	-----------------------------------------------------------

  Dipole Moment: [D]
     X:     2.1322      Y:    -0.0476      Z:    -0.0384     Total:     2.1331

*** Psi4 exiting successfully. Buy a developer a beer!
