                               Psi4 1.4a3.dev225

  ==> Input File <==

--------------------------------------------------------------------------
#psi4
#
memory 32 gb

molecule  {
1 1
  N       -0.7026530     0.0000020     0.0000410
  H       -1.0623372     0.7820969     0.4593585
  H       -1.0801460     0.0072600    -0.9533800
  H       -1.0807350    -0.8294500     0.4703120
  C        0.7940550     0.0000020     0.0000080
  H        1.1317080    -0.8903490    -0.5233920
  H        1.1317420     0.8984820    -0.5092940
  H        1.1324430    -0.0081480     1.0325230
units angstrom
no_reorient  #important for SAPT in psi4, default
symmetry c1  #important for SAPT in psi4, default
}

set PROPERTIES_ORIGIN ["COM"]
properties('MP2/aug-cc-pvtz', properties = ['dipole'])
--------------------------------------------------------------------------

    Molecular point group: c1
  Charge       = 1
  Multiplicity = 1
  Basis Set: AUG-CC-PVTZ
    Blend: AUG-CC-PVTZ
  Basis Set: (AUG-CC-PVTZ AUX)
    Blend: AUG-CC-PVTZ-JKFIT

    Orbital Energies [Eh]
    ---------------------

    Doubly Occupied:

       1A    -15.909699     2A    -11.491651     3A     -1.536733
       4A     -1.179829     5A     -1.000306     6A     -0.987629
       7A     -0.869249     8A     -0.784370     9A     -0.782832

  @DF-RHF Final Energy:   -95.61756413668169

   => Energetics <=

    Nuclear Repulsion Energy =             48.1849866040538330
    One-Electron Energy =                -218.5205074916929107
    Two-Electron Energy =                  74.7179567509573701
    Total Energy =                        -95.6175641366816933
  Basis Set: (AUG-CC-PVTZ AUX)
    Blend: AUG-CC-PVTZ-RI
    Molecular point group: c1

    Geometry (in Angstrom), charge = 1, multiplicity = 1:

       Center              X                  Y                   Z               Mass
    ------------   -----------------  -----------------  -----------------  -----------------
         N           -0.698390414371     0.001261591593     0.000770770964    14.003074004430
         H           -1.058074614371     0.783356491593     0.460088270964     1.007825032230
         H           -1.075883414371     0.008519591593    -0.952650229036     1.007825032230
         H           -1.076472414371    -0.828190408407     0.471041770964     1.007825032230
         C            0.798317585629     0.001261591593     0.000737770964    12.000000000000
         H            1.135970585629    -0.889089408407    -0.522662229036     1.007825032230
         H            1.136004585629     0.899741591593    -0.508564229036     1.007825032230
         H            1.136705585629    -0.006888408407     1.033252770964     1.007825032230

  Basis Set: AUG-CC-PVTZ
    Blend: AUG-CC-PVTZ
  Basis Set: (AUG-CC-PVTZ AUX)
    Blend: AUG-CC-PVTZ-JKFIT
	 Reference Energy          =     -95.6175641366816933 [Eh]
	 Singles Energy            =      -0.0000000000000000 [Eh]
	 Same-Spin Energy          =      -0.0897684422487226 [Eh]
	 Opposite-Spin Energy      =      -0.3480626240393372 [Eh]
	 Correlation Energy        =      -0.4378310662880598 [Eh]
	 Total Energy              =     -96.0553952029697484 [Eh]

	 ================> DF-SCS-MP2 Energies <==================
	-----------------------------------------------------------
	 SCS Same-Spin Scale       =       0.3333333333333333 [-]
	 SCS Opposite-Spin Scale   =       1.2000000000000000 [-]
	 SCS Same-Spin Energy      =      -0.0299228140829075 [Eh]
	 SCS Opposite-Spin Energy  =      -0.4176751488472047 [Eh]
	 SCS Correlation Energy    =      -0.4475979629301122 [Eh]
	 SCS Total Energy          =     -96.0651620996118112 [Eh]
	-----------------------------------------------------------

  Dipole Moment: [D]
     X:    -2.1469      Y:    -0.0570      Z:    -0.0334     Total:     2.1479

*** Psi4 exiting successfully. Buy a developer a beer!
