                               Psi4 1.3.2 release

  ==> Input File <==

--------------------------------------------------------------------------
#psi4
#
memory 32 gb

molecule  {
1 1
  N        0.7090220    -0.0000240     0.0000000
  H        1.0870090     0.4773310    -0.8288960
  H        1.0870090     0.4793650     0.8277210
  H        1.0871940    -0.9564710     0.0011740
  C       -0.9006150    -0.0000091     0.0000000
  H       -1.1402290    -0.5156710     0.8957280
  H       -1.1402190     1.0335470    -0.0012690
  H       -1.1402280    -0.5178690    -0.8944600
units angstrom
no_reorient  #important for SAPT in psi4, default
symmetry c1  #important for SAPT in psi4, default
}

set PROPERTIES_ORIGIN ["COM"]
properties('MP2/aug-cc-pvtz', properties = ['dipole'])
--------------------------------------------------------------------------

    Molecular point group: c1
  Charge       = 1
  Multiplicity = 1
  Basis Set: AUG-CC-PVTZ
    Blend: AUG-CC-PVTZ
  Basis Set: (AUG-CC-PVTZ AUX)
    Blend: AUG-CC-PVTZ-JKFIT

    Orbital Energies [Eh]
    ---------------------

    Doubly Occupied:

       1A    -15.900679     2A    -11.499136     3A     -1.498031
       4A     -1.181282     5A     -0.967529     6A     -0.967502
       7A     -0.828701     8A     -0.806821     9A     -0.806819

  @DF-RHF Final Energy:   -95.61169958020949

   => Energetics <=

    Nuclear Repulsion Energy =             46.8317584262586806
    One-Electron Energy =                -215.9739154351034642
    Two-Electron Energy =                  73.5304574286352874
    Total Energy =                        -95.6116995802094891
  Basis Set: (AUG-CC-PVTZ AUX)
    Blend: AUG-CC-PVTZ-RI
    Molecular point group: c1

    Geometry (in Angstrom), charge = 1, multiplicity = 1:

       Center              X                  Y                   Z               Mass
    ------------   -----------------  -----------------  -----------------  -----------------
         N            0.741458926342    -0.000017402240     0.000000062891    14.003074004430
         H            1.119445926342     0.477337597760    -0.828895937109     1.007825032230
         H            1.119445926342     0.479371597760     0.827721062891     1.007825032230
         H            1.119630926342    -0.956464402240     0.001174062891     1.007825032230
         C           -0.868178073658    -0.000002502240     0.000000062891    12.000000000000
         H           -1.107792073658    -0.515664402240     0.895728062891     1.007825032230
         H           -1.107782073658     1.033553597760    -0.001268937109     1.007825032230
         H           -1.107791073658    -0.517862402240    -0.894459937109     1.007825032230

  Basis Set: AUG-CC-PVTZ
    Blend: AUG-CC-PVTZ
  Basis Set: (AUG-CC-PVTZ AUX)
    Blend: AUG-CC-PVTZ-JKFIT
	 Reference Energy          =     -95.6116995802094891 [Eh]
	 Singles Energy            =      -0.0000000000000000 [Eh]
	 Same-Spin Energy          =      -0.0893334602897538 [Eh]
	 Opposite-Spin Energy      =      -0.3490931455060057 [Eh]
	 Correlation Energy        =      -0.4384266057957595 [Eh]
	 Total Energy              =     -96.0501261860052438 [Eh]

	 ================> DF-SCS-MP2 Energies <==================
	-----------------------------------------------------------
	 SCS Same-Spin Scale       =       0.3333333333333333 [-]
	 SCS Opposite-Spin Scale   =       1.2000000000000000 [-]
	 SCS Same-Spin Energy      =      -0.0297778200965846 [Eh]
	 SCS Opposite-Spin Energy  =      -0.4189117746072068 [Eh]
	 SCS Correlation Energy    =      -0.4486895947037914 [Eh]
	 SCS Total Energy          =     -96.0603891749132828 [Eh]
	-----------------------------------------------------------

  Dipole Moment: [D]
     X:     2.0348      Y:     0.0003      Z:    -0.0000     Total:     2.0348

*** Psi4 exiting successfully. Buy a developer a beer!
