                               Psi4 1.3.2 release

  ==> Input File <==

--------------------------------------------------------------------------
#psi4
#
memory 32 gb

molecule  {
1 1
  N        0.7090220    -0.0000240     0.0000000
  H        1.0870090     0.4773310    -0.8288960
  H        1.0870090     0.4793650     0.8277210
  H        1.0871940    -0.9564710     0.0011740
  C       -0.6006150    -0.0000119     0.0000000
  H       -1.1402290    -0.5156710     0.8957280
  H       -1.1402190     1.0335470    -0.0012690
  H       -1.1402280    -0.5178690    -0.8944600
units angstrom
no_reorient  #important for SAPT in psi4, default
symmetry c1  #important for SAPT in psi4, default
}

set PROPERTIES_ORIGIN ["COM"]
properties('MP2/aug-cc-pvtz', properties = ['dipole'])
--------------------------------------------------------------------------

    Molecular point group: c1
  Charge       = 1
  Multiplicity = 1
  Basis Set: AUG-CC-PVTZ
    Blend: AUG-CC-PVTZ
  Basis Set: (AUG-CC-PVTZ AUX)
    Blend: AUG-CC-PVTZ-JKFIT

    Orbital Energies [Eh]
    ---------------------

    Doubly Occupied:

       1A    -15.926463     2A    -11.490196     3A     -1.587480
       4A     -1.170409     5A     -1.015316     6A     -1.015290
       7A     -0.925720     8A     -0.725279     9A     -0.725275

  @DF-RHF Final Energy:   -95.57351026180949

   => Energetics <=

    Nuclear Repulsion Energy =             49.7784330861301569
    One-Electron Energy =                -221.5410311373646266
    Two-Electron Energy =                  76.1890877894249883
    Total Energy =                        -95.5735102618094885
  Basis Set: (AUG-CC-PVTZ AUX)
    Blend: AUG-CC-PVTZ-RI
    Molecular point group: c1

    Geometry (in Angstrom), charge = 1, multiplicity = 1:

       Center              X                  Y                   Z               Mass
    ------------   -----------------  -----------------  -----------------  -----------------
         N            0.629134518168    -0.000016353879     0.000000062891    14.003074004430
         H            1.007121518168     0.477338646121    -0.828895937109     1.007825032230
         H            1.007121518168     0.479372646121     0.827721062891     1.007825032230
         H            1.007306518168    -0.956463353879     0.001174062891     1.007825032230
         C           -0.680502481832    -0.000004253879     0.000000062891    12.000000000000
         H           -1.220116481832    -0.515663353879     0.895728062891     1.007825032230
         H           -1.220106481832     1.033554646121    -0.001268937109     1.007825032230
         H           -1.220115481832    -0.517861353879    -0.894459937109     1.007825032230

  Basis Set: AUG-CC-PVTZ
    Blend: AUG-CC-PVTZ
  Basis Set: (AUG-CC-PVTZ AUX)
    Blend: AUG-CC-PVTZ-JKFIT
	 Reference Energy          =     -95.5735102618094885 [Eh]
	 Singles Energy            =      -0.0000000000000000 [Eh]
	 Same-Spin Energy          =      -0.0923165963398813 [Eh]
	 Opposite-Spin Energy      =      -0.3509431367256526 [Eh]
	 Correlation Energy        =      -0.4432597330655339 [Eh]
	 Total Energy              =     -96.0167699948750197 [Eh]

	 ================> DF-SCS-MP2 Energies <==================
	-----------------------------------------------------------
	 SCS Same-Spin Scale       =       0.3333333333333333 [-]
	 SCS Opposite-Spin Scale   =       1.2000000000000000 [-]
	 SCS Same-Spin Energy      =      -0.0307721987799604 [Eh]
	 SCS Opposite-Spin Energy  =      -0.4211317640707831 [Eh]
	 SCS Correlation Energy    =      -0.4519039628507435 [Eh]
	 SCS Total Energy          =     -96.0254142246602385 [Eh]
	-----------------------------------------------------------

  Dipole Moment: [D]
     X:     2.2022      Y:     0.0003      Z:    -0.0000     Total:     2.2022

*** Psi4 exiting successfully. Buy a developer a beer!
