                               Psi4 1.3.2 release

  ==> Input File <==

--------------------------------------------------------------------------
#psi4
#
memory 32 gb

molecule  {
1 1
  N        0.7090220    -0.0000240     0.0000000
  H        1.0312600     0.4067036    -0.8880011
  H        1.0870090     0.4793650     0.8277210
  H        1.0871940    -0.9564710     0.0011740
  C       -0.8006150    -0.0000100     0.0000000
  H       -1.1402290    -0.5156710     0.8957280
  H       -1.1402190     1.0335470    -0.0012690
  H       -1.1402280    -0.5178690    -0.8944600
units angstrom
no_reorient  #important for SAPT in psi4, default
symmetry c1  #important for SAPT in psi4, default
}

set PROPERTIES_ORIGIN ["COM"]
properties('MP2/aug-cc-pvtz', properties = ['dipole'])
--------------------------------------------------------------------------

    Molecular point group: c1
  Charge       = 1
  Multiplicity = 1
  Basis Set: AUG-CC-PVTZ
    Blend: AUG-CC-PVTZ
  Basis Set: (AUG-CC-PVTZ AUX)
    Blend: AUG-CC-PVTZ-JKFIT

    Orbital Energies [Eh]
    ---------------------

    Doubly Occupied:

       1A    -15.912691     2A    -11.492192     3A     -1.523277
       4A     -1.173551     5A     -0.993805     6A     -0.975665
       7A     -0.861170     8A     -0.783378     9A     -0.780602

  @DF-RHF Final Energy:   -95.61659217723061

   => Energetics <=

    Nuclear Repulsion Energy =             47.7402658292054838
    One-Electron Energy =                -217.7210569298204916
    Two-Electron Energy =                  74.3641989233844072
    Total Energy =                        -95.6165921772306149
  Basis Set: (AUG-CC-PVTZ AUX)
    Blend: AUG-CC-PVTZ-RI
    Molecular point group: c1

    Geometry (in Angstrom), charge = 1, multiplicity = 1:

       Center              X                  Y                   Z               Mass
    ------------   -----------------  -----------------  -----------------  -----------------
         N            0.705770505166     0.002203839817     0.001858644929    14.003074004430
         H            1.028008505166     0.408931439817    -0.886142455071     1.007825032230
         H            1.083757505166     0.481592839817     0.829579644929     1.007825032230
         H            1.083942505166    -0.954243160183     0.003032644929     1.007825032230
         C           -0.803866494834     0.002217839817     0.001858644929    12.000000000000
         H           -1.143480494834    -0.513443160183     0.897586644929     1.007825032230
         H           -1.143470494834     1.035774839817     0.000589644929     1.007825032230
         H           -1.143479494834    -0.515641160183    -0.892601355071     1.007825032230

  Basis Set: AUG-CC-PVTZ
    Blend: AUG-CC-PVTZ
  Basis Set: (AUG-CC-PVTZ AUX)
    Blend: AUG-CC-PVTZ-JKFIT
	 Reference Energy          =     -95.6165921772306149 [Eh]
	 Singles Energy            =      -0.0000000000000000 [Eh]
	 Same-Spin Energy          =      -0.0900028430530449 [Eh]
	 Opposite-Spin Energy      =      -0.3491174663552529 [Eh]
	 Correlation Energy        =      -0.4391203094082978 [Eh]
	 Total Energy              =     -96.0557124866389103 [Eh]

	 ================> DF-SCS-MP2 Energies <==================
	-----------------------------------------------------------
	 SCS Same-Spin Scale       =       0.3333333333333333 [-]
	 SCS Opposite-Spin Scale   =       1.2000000000000000 [-]
	 SCS Same-Spin Energy      =      -0.0300009476843483 [Eh]
	 SCS Opposite-Spin Energy  =      -0.4189409596263035 [Eh]
	 SCS Correlation Energy    =      -0.4489419073106518 [Eh]
	 SCS Total Energy          =     -96.0655340845412695 [Eh]
	-----------------------------------------------------------

  Dipole Moment: [D]
     X:     2.1160      Y:    -0.0721      Z:    -0.0554     Total:     2.1179

*** Psi4 exiting successfully. Buy a developer a beer!
