                               Psi4 1.3.2 release

  ==> Input File <==

--------------------------------------------------------------------------
#psi4
#
memory 32 gb

molecule  {
0 1
  N       -1.7314010     0.6447010     0.0841650
  N       -1.4345640    -1.5648400    -0.1846490
  N        1.1113180     1.0210360    -0.2929590
  N        1.3650780    -1.3052570     0.2771500
  C       -0.8211750    -0.3840720    -0.0264870
  C        0.6302560    -0.2085840    -0.0077820
  C       -2.9774260     0.0775420    -0.0074450
  C       -2.7669850    -1.2782450    -0.1740670
  C        2.4478010     1.1517920    -0.2896530
  C        2.6936640    -1.1417610     0.2510410
  C        3.2993530     0.0833730    -0.0301630
  H       -3.8759520     0.6750340     0.0629310
  H       -3.3740666    -1.9117996    -0.2675576
  H        2.8330150     2.1453150    -0.5142540
  H        3.2873230    -2.0271970     0.4738100
  H        4.3785670     0.1979470    -0.0409660
  C       -1.4969110     2.0704780     0.2948980
  H       -0.7998500     2.2172910     1.1191120
  H       -1.0792200     2.5269500    -0.6013110
  H       -2.4567070     2.5274350     0.5414280
units angstrom
no_reorient  #important for SAPT in psi4, default
symmetry c1  #important for SAPT in psi4, default
}

set PROPERTIES_ORIGIN ["COM"]
properties('MP2/aug-cc-pvtz', properties = ['dipole'])
--------------------------------------------------------------------------

    Molecular point group: c1
  Charge       = 0
  Multiplicity = 1
  Basis Set: AUG-CC-PVTZ
    Blend: AUG-CC-PVTZ
  Basis Set: (AUG-CC-PVTZ AUX)
    Blend: AUG-CC-PVTZ-JKFIT

    Orbital Energies [Eh]
    ---------------------

    Doubly Occupied:

       1A    -15.625188     2A    -15.579639     3A    -15.574561
       4A    -15.545331     5A    -11.332919     6A    -11.305543
       7A    -11.302687     8A    -11.294361     9A    -11.273011
      10A    -11.259214    11A    -11.251537    12A    -11.217130
      13A     -1.344014    14A     -1.307669    15A     -1.197640
      16A     -1.178069    17A     -1.089102    18A     -1.011671
      19A     -0.970579    20A     -0.901471    21A     -0.897205
      22A     -0.825071    23A     -0.784043    24A     -0.733385
      25A     -0.704127    26A     -0.689138    27A     -0.645864
      28A     -0.639524    29A     -0.620078    30A     -0.596051
      31A     -0.586833    32A     -0.579403    33A     -0.574045
      34A     -0.565829    35A     -0.542639    36A     -0.480874
      37A     -0.436502    38A     -0.423931    39A     -0.412145
      40A     -0.396181    41A     -0.377322    42A     -0.298321

  @DF-RHF Final Energy:  -525.52201193616884

   => Energetics <=

    Nuclear Repulsion Energy =            655.3559084736195928
    One-Electron Energy =               -2013.0161423045205993
    Two-Electron Energy =                 832.1382218947321689
    Total Energy =                       -525.5220119361688376
  Basis Set: (AUG-CC-PVTZ AUX)
    Blend: AUG-CC-PVTZ-RI
    Molecular point group: c1

    Geometry (in Angstrom), charge = 0, multiplicity = 1:

       Center              X                  Y                   Z               Mass
    ------------   -----------------  -----------------  -----------------  -----------------
         N           -1.739843564945     0.682294616243     0.088694834762    14.003074004430
         N           -1.443006564945    -1.527246383757    -0.180119165238    14.003074004430
         N            1.102875435055     1.058629616243    -0.288429165238    14.003074004430
         N            1.356635435055    -1.267663383757     0.281679834762    14.003074004430
         C           -0.829617564945    -0.346478383757    -0.021957165238    12.000000000000
         C            0.621813435055    -0.170990383757    -0.003252165238    12.000000000000
         C           -2.985868564945     0.115135616243    -0.002915165238    12.000000000000
         C           -2.775427564945    -1.240651383757    -0.169537165238    12.000000000000
         C            2.439358435055     1.189385616243    -0.285123165238    12.000000000000
         C            2.685221435055    -1.104167383757     0.255570834762    12.000000000000
         C            3.290910435055     0.120966616243    -0.025633165238    12.000000000000
         H           -3.884394564945     0.712627616243     0.067460834762     1.007825032230
         H           -3.382509164945    -1.874205983757    -0.263027765238     1.007825032230
         H            2.824572435055     2.182908616243    -0.509724165238     1.007825032230
         H            3.278880435055    -1.989603383757     0.478339834762     1.007825032230
         H            4.370124435055     0.235540616243    -0.036436165238     1.007825032230
         C           -1.505353564945     2.108071616243     0.299427834762    12.000000000000
         H           -0.808292564945     2.254884616243     1.123641834762     1.007825032230
         H           -1.087662564945     2.564543616243    -0.596781165238     1.007825032230
         H           -2.465149564945     2.565028616243     0.545957834762     1.007825032230

  Basis Set: AUG-CC-PVTZ
    Blend: AUG-CC-PVTZ
  Basis Set: (AUG-CC-PVTZ AUX)
    Blend: AUG-CC-PVTZ-JKFIT
	 Reference Energy          =    -525.5220119361688376 [Eh]
	 Singles Energy            =      -0.0000000000000000 [Eh]
	 Same-Spin Energy          =      -0.5777689956147155 [Eh]
	 Opposite-Spin Energy      =      -1.7378109168583742 [Eh]
	 Correlation Energy        =      -2.3155799124730896 [Eh]
	 Total Energy              =    -527.8375918486419778 [Eh]

	 ================> DF-SCS-MP2 Energies <==================
	-----------------------------------------------------------
	 SCS Same-Spin Scale       =       0.3333333333333333 [-]
	 SCS Opposite-Spin Scale   =       1.2000000000000000 [-]
	 SCS Same-Spin Energy      =      -0.1925896652049052 [Eh]
	 SCS Opposite-Spin Energy  =      -2.0853731002300488 [Eh]
	 SCS Correlation Energy    =      -2.2779627654349541 [Eh]
	 SCS Total Energy          =    -527.7999747016037873 [Eh]
	-----------------------------------------------------------

  Dipole Moment: [D]
     X:     1.3641      Y:     4.1216      Z:     0.4810     Total:     4.3680

*** Psi4 exiting successfully. Buy a developer a beer!
