                               Psi4 1.3.2 release

  ==> Input File <==

--------------------------------------------------------------------------
#psi4
#
memory 32 gb

molecule  {
0 1
  N       -1.7314010     0.6447010     0.0841650
  N       -1.4345640    -1.5648400    -0.1846490
  N        1.0670166     1.0361507    -0.2986217
  N        1.3650780    -1.3052570     0.2771500
  C       -0.8211750    -0.3840720    -0.0264870
  C        0.6302560    -0.2085840    -0.0077820
  C       -2.9774260     0.0775420    -0.0074450
  C       -2.7669850    -1.2782450    -0.1740670
  C        2.4478010     1.1517920    -0.2896530
  C        2.6936640    -1.1417610     0.2510410
  C        3.2993530     0.0833730    -0.0301630
  H       -3.8759520     0.6750340     0.0629310
  H       -3.5116600    -2.0553930    -0.2887470
  H        2.8330150     2.1453150    -0.5142540
  H        3.2873230    -2.0271970     0.4738100
  H        4.3785670     0.1979470    -0.0409660
  C       -1.4969110     2.0704780     0.2948980
  H       -0.7998500     2.2172910     1.1191120
  H       -1.0792200     2.5269500    -0.6013110
  H       -2.4567070     2.5274350     0.5414280
units angstrom
no_reorient  #important for SAPT in psi4, default
symmetry c1  #important for SAPT in psi4, default
}

set PROPERTIES_ORIGIN ["COM"]
properties('MP2/aug-cc-pvtz', properties = ['dipole'])
--------------------------------------------------------------------------

    Molecular point group: c1
  Charge       = 0
  Multiplicity = 1
  Basis Set: AUG-CC-PVTZ
    Blend: AUG-CC-PVTZ
  Basis Set: (AUG-CC-PVTZ AUX)
    Blend: AUG-CC-PVTZ-JKFIT

    Orbital Energies [Eh]
    ---------------------

    Doubly Occupied:

       1A    -15.624540     2A    -15.585425     3A    -15.575845
       4A    -15.545131     5A    -11.332979     6A    -11.311379
       7A    -11.306101     8A    -11.293476     9A    -11.272018
      10A    -11.258773    11A    -11.254270    12A    -11.239203
      13A     -1.343505    14A     -1.303536    15A     -1.193833
      16A     -1.176184    17A     -1.089923    18A     -1.006911
      19A     -0.967281    20A     -0.901929    21A     -0.890068
      22A     -0.801260    23A     -0.781823    24A     -0.725838
      25A     -0.699347    26A     -0.685359    27A     -0.645120
      28A     -0.640949    29A     -0.605165    30A     -0.592237
      31A     -0.585050    32A     -0.577953    33A     -0.568681
      34A     -0.554183    35A     -0.541644    36A     -0.481842
      37A     -0.436287    38A     -0.421047    39A     -0.416320
      40A     -0.398049    41A     -0.377369    42A     -0.298260

  @DF-RHF Final Energy:  -525.55339258086735

   => Energetics <=

    Nuclear Repulsion Energy =            653.7081281236535233
    One-Electron Energy =               -2009.9108474631557328
    Two-Electron Energy =                 830.6493267586348566
    Total Energy =                       -525.5533925808673530
  Basis Set: (AUG-CC-PVTZ AUX)
    Blend: AUG-CC-PVTZ-RI
    Molecular point group: c1

    Geometry (in Angstrom), charge = 0, multiplicity = 1:

       Center              X                  Y                   Z               Mass
    ------------   -----------------  -----------------  -----------------  -----------------
         N           -1.735101872942     0.681876466732     0.089323605527    14.003074004430
         N           -1.438264872942    -1.527664533268    -0.179490394473    14.003074004430
         N            1.063315727058     1.073326166732    -0.293463094473    14.003074004430
         N            1.361377127058    -1.268081533268     0.282308605527    14.003074004430
         C           -0.824875872942    -0.346896533268    -0.021328394473    12.000000000000
         C            0.626555127058    -0.171408533268    -0.002623394473    12.000000000000
         C           -2.981126872942     0.114717466732    -0.002286394473    12.000000000000
         C           -2.770685872942    -1.241069533268    -0.168908394473    12.000000000000
         C            2.444100127058     1.188967466732    -0.284494394473    12.000000000000
         C            2.689963127058    -1.104585533268     0.256199605527    12.000000000000
         C            3.295652127058     0.120548466732    -0.025004394473    12.000000000000
         H           -3.879652872942     0.712209466732     0.068089605527     1.007825032230
         H           -3.515360872942    -2.018217533268    -0.283588394473     1.007825032230
         H            2.829314127058     2.182490466732    -0.509095394473     1.007825032230
         H            3.283622127058    -1.990021533268     0.478968605527     1.007825032230
         H            4.374866127058     0.235122466732    -0.035807394473     1.007825032230
         C           -1.500611872942     2.107653466732     0.300056605527    12.000000000000
         H           -0.803550872942     2.254466466732     1.124270605527     1.007825032230
         H           -1.082920872942     2.564125466732    -0.596152394473     1.007825032230
         H           -2.460407872942     2.564610466732     0.546586605527     1.007825032230

  Basis Set: AUG-CC-PVTZ
    Blend: AUG-CC-PVTZ
  Basis Set: (AUG-CC-PVTZ AUX)
    Blend: AUG-CC-PVTZ-JKFIT
	 Reference Energy          =    -525.5533925808673530 [Eh]
	 Singles Energy            =      -0.0000000000000000 [Eh]
	 Same-Spin Energy          =      -0.5783397850135179 [Eh]
	 Opposite-Spin Energy      =      -1.7398647548027122 [Eh]
	 Correlation Energy        =      -2.3182045398162301 [Eh]
	 Total Energy              =    -527.8715971206835320 [Eh]

	 ================> DF-SCS-MP2 Energies <==================
	-----------------------------------------------------------
	 SCS Same-Spin Scale       =       0.3333333333333333 [-]
	 SCS Opposite-Spin Scale   =       1.2000000000000000 [-]
	 SCS Same-Spin Energy      =      -0.1927799283378393 [Eh]
	 SCS Opposite-Spin Energy  =      -2.0878377057632544 [Eh]
	 SCS Correlation Energy    =      -2.2806176341010937 [Eh]
	 SCS Total Energy          =    -527.8340102149684299 [Eh]
	-----------------------------------------------------------

  Dipole Moment: [D]
     X:     1.5438      Y:     4.0642      Z:     0.4917     Total:     4.3753

*** Psi4 exiting successfully. Buy a developer a beer!
