                               Psi4 1.3.2 release

  ==> Input File <==

--------------------------------------------------------------------------
#psi4
#
memory 32 gb

molecule  {
0 1
  N       -1.7314010     0.6447010     0.0841650
  N       -1.4345640    -1.5648400    -0.1846490
  N        1.1113180     1.0210360    -0.2929590
  N        1.3650780    -1.3052570     0.2771500
  C       -0.8211750    -0.3840720    -0.0264870
  C        0.6302560    -0.2085840    -0.0077820
  C       -2.9774260     0.0775420    -0.0074450
  C       -2.8627834    -1.2894675    -0.1758159
  C        2.4478010     1.1517920    -0.2896530
  C        2.6936640    -1.1417610     0.2510410
  C        3.2993530     0.0833730    -0.0301630
  H       -3.8759520     0.6750340     0.0629310
  H       -3.5116600    -2.0553930    -0.2887470
  H        2.8330150     2.1453150    -0.5142540
  H        3.2873230    -2.0271970     0.4738100
  H        4.3785670     0.1979470    -0.0409660
  C       -1.4969110     2.0704780     0.2948980
  H       -0.7998500     2.2172910     1.1191120
  H       -1.0792200     2.5269500    -0.6013110
  H       -2.4567070     2.5274350     0.5414280
units angstrom
no_reorient  #important for SAPT in psi4, default
symmetry c1  #important for SAPT in psi4, default
}

set PROPERTIES_ORIGIN ["COM"]
properties('MP2/aug-cc-pvtz', properties = ['dipole'])
--------------------------------------------------------------------------

    Molecular point group: c1
  Charge       = 0
  Multiplicity = 1
  Basis Set: AUG-CC-PVTZ
    Blend: AUG-CC-PVTZ
  Basis Set: (AUG-CC-PVTZ AUX)
    Blend: AUG-CC-PVTZ-JKFIT

    Orbital Energies [Eh]
    ---------------------

    Doubly Occupied:

       1A    -15.621774     2A    -15.581411     3A    -15.576019
       4A    -15.549506     5A    -11.334502     6A    -11.306567
       7A    -11.303593     8A    -11.297071     9A    -11.272796
      10A    -11.265769    11A    -11.253073    12A    -11.241133
      13A     -1.337268    14A     -1.306892    15A     -1.197616
      16A     -1.160552    17A     -1.088888    18A     -1.009923
      19A     -0.963089    20A     -0.900683    21A     -0.896922
      22A     -0.810713    23A     -0.780654    24A     -0.724657
      25A     -0.703902    26A     -0.686529    27A     -0.644317
      28A     -0.639867    29A     -0.612971    30A     -0.596931
      31A     -0.585421    32A     -0.579836    33A     -0.567793
      34A     -0.559124    35A     -0.537404    36A     -0.481962
      37A     -0.429599    38A     -0.424513    39A     -0.410885
      40A     -0.397305    41A     -0.365528    42A     -0.305452

  @DF-RHF Final Energy:  -525.54576679626643

   => Energetics <=

    Nuclear Repulsion Energy =            652.0866976818765579
    One-Electron Energy =               -2006.6441121806685715
    Two-Electron Energy =                 829.0116477025255790
    Total Energy =                       -525.5457667962664345
  Basis Set: (AUG-CC-PVTZ AUX)
    Blend: AUG-CC-PVTZ-RI
    Molecular point group: c1

    Geometry (in Angstrom), charge = 0, multiplicity = 1:

       Center              X                  Y                   Z               Mass
    ------------   -----------------  -----------------  -----------------  -----------------
         N           -1.731795764179     0.684039968135     0.088959348491    14.003074004430
         N           -1.434958764179    -1.525501031865    -0.179854651509    14.003074004430
         N            1.110923235821     1.060374968135    -0.288164651509    14.003074004430
         N            1.364683235821    -1.265918031865     0.281944348491    14.003074004430
         C           -0.821569764179    -0.344733031865    -0.021692651509    12.000000000000
         C            0.629861235821    -0.169245031865    -0.002987651509    12.000000000000
         C           -2.977820764179     0.116880968135    -0.002650651509    12.000000000000
         C           -2.863178164179    -1.250128531865    -0.171021551509    12.000000000000
         C            2.447406235821     1.191130968135    -0.284858651509    12.000000000000
         C            2.693269235821    -1.102422031865     0.255835348491    12.000000000000
         C            3.298958235821     0.122711968135    -0.025368651509    12.000000000000
         H           -3.876346764179     0.714372968135     0.067725348491     1.007825032230
         H           -3.512054764179    -2.016054031865    -0.283952651509     1.007825032230
         H            2.832620235821     2.184653968135    -0.509459651509     1.007825032230
         H            3.286928235821    -1.987858031865     0.478604348491     1.007825032230
         H            4.378172235821     0.237285968135    -0.036171651509     1.007825032230
         C           -1.497305764179     2.109816968135     0.299692348491    12.000000000000
         H           -0.800244764179     2.256629968135     1.123906348491     1.007825032230
         H           -1.079614764179     2.566288968135    -0.596516651509     1.007825032230
         H           -2.457101764179     2.566773968135     0.546222348491     1.007825032230

  Basis Set: AUG-CC-PVTZ
    Blend: AUG-CC-PVTZ
  Basis Set: (AUG-CC-PVTZ AUX)
    Blend: AUG-CC-PVTZ-JKFIT
	 Reference Energy          =    -525.5457667962664345 [Eh]
	 Singles Energy            =      -0.0000000000000000 [Eh]
	 Same-Spin Energy          =      -0.5773957709512043 [Eh]
	 Opposite-Spin Energy      =      -1.7396734925250166 [Eh]
	 Correlation Energy        =      -2.3170692634762209 [Eh]
	 Total Energy              =    -527.8628360597426763 [Eh]

	 ================> DF-SCS-MP2 Energies <==================
	-----------------------------------------------------------
	 SCS Same-Spin Scale       =       0.3333333333333333 [-]
	 SCS Opposite-Spin Scale   =       1.2000000000000000 [-]
	 SCS Same-Spin Energy      =      -0.1924652569837348 [Eh]
	 SCS Opposite-Spin Energy  =      -2.0876081910300197 [Eh]
	 SCS Correlation Energy    =      -2.2800734480137543 [Eh]
	 SCS Total Energy          =    -527.8258402442802435 [Eh]
	-----------------------------------------------------------

  Dipole Moment: [D]
     X:     1.5009      Y:     4.0994      Z:     0.4792     Total:     4.3917

*** Psi4 exiting successfully. Buy a developer a beer!
