                               Psi4 1.3.2 release

  ==> Input File <==

--------------------------------------------------------------------------
#psi4
#
memory 32 gb

molecule  {
0 1
  N       -1.7314010     0.6447010     0.0841650
  N       -1.5557290    -1.4948962    -0.1747242
  N        1.1113180     1.0210360    -0.2929590
  N        1.3650780    -1.3052570     0.2771500
  C       -0.8211750    -0.3840720    -0.0264870
  C        0.6302560    -0.2085840    -0.0077820
  C       -2.9774260     0.0775420    -0.0074450
  C       -2.7669850    -1.2782450    -0.1740670
  C        2.4478010     1.1517920    -0.2896530
  C        2.6936640    -1.1417610     0.2510410
  C        3.2993530     0.0833730    -0.0301630
  H       -3.8759520     0.6750340     0.0629310
  H       -3.5116600    -2.0553930    -0.2887470
  H        2.8330150     2.1453150    -0.5142540
  H        3.2873230    -2.0271970     0.4738100
  H        4.3785670     0.1979470    -0.0409660
  C       -1.4969110     2.0704780     0.2948980
  H       -0.7998500     2.2172910     1.1191120
  H       -1.0792200     2.5269500    -0.6013110
  H       -2.4567070     2.5274350     0.5414280
units angstrom
no_reorient  #important for SAPT in psi4, default
symmetry c1  #important for SAPT in psi4, default
}

set PROPERTIES_ORIGIN ["COM"]
properties('MP2/aug-cc-pvtz', properties = ['dipole'])
--------------------------------------------------------------------------

    Molecular point group: c1
  Charge       = 0
  Multiplicity = 1
  Basis Set: AUG-CC-PVTZ
    Blend: AUG-CC-PVTZ
  Basis Set: (AUG-CC-PVTZ AUX)
    Blend: AUG-CC-PVTZ-JKFIT

    Orbital Energies [Eh]
    ---------------------

    Doubly Occupied:

       1A    -15.630876     2A    -15.578631     3A    -15.573684
       4A    -15.528686     5A    -11.335203     6A    -11.305474
       7A    -11.302411     8A    -11.288811     9A    -11.272505
      10A    -11.254802    11A    -11.250083    12A    -11.227921
      13A     -1.360713    14A     -1.309782    15A     -1.205270
      16A     -1.191427    17A     -1.089013    18A     -1.004838
      19A     -0.976462    20A     -0.898732    21A     -0.893800
      22A     -0.802533    23A     -0.787750    24A     -0.735314
      25A     -0.701836    26A     -0.687460    27A     -0.648422
      28A     -0.641982    29A     -0.611358    30A     -0.594406
      31A     -0.590405    32A     -0.579831    33A     -0.578257
      34A     -0.564663    35A     -0.552867    36A     -0.481057
      37A     -0.424352    38A     -0.419014    39A     -0.403630
      40A     -0.396903    41A     -0.393677    42A     -0.288980

  @DF-RHF Final Energy:  -525.54035568663755

   => Energetics <=

    Nuclear Repulsion Energy =            656.2678498871214288
    One-Electron Energy =               -2014.8887642843635604
    Two-Electron Energy =                 833.0805587106045778
    Total Energy =                       -525.5403556866375538
  Basis Set: (AUG-CC-PVTZ AUX)
    Blend: AUG-CC-PVTZ-RI
    Molecular point group: c1

    Geometry (in Angstrom), charge = 0, multiplicity = 1:

       Center              X                  Y                   Z               Mass
    ------------   -----------------  -----------------  -----------------  -----------------
         N           -1.728377978665     0.677080112258     0.087960038090    14.003074004430
         N           -1.552705978665    -1.462517087742    -0.170929161910    14.003074004430
         N            1.114341021335     1.053415112258    -0.289163961910    14.003074004430
         N            1.368101021335    -1.272877887742     0.280945038090    14.003074004430
         C           -0.818151978665    -0.351692887742    -0.022691961910    12.000000000000
         C            0.633279021335    -0.176204887742    -0.003986961910    12.000000000000
         C           -2.974402978665     0.109921112258    -0.003649961910    12.000000000000
         C           -2.763961978665    -1.245865887742    -0.170271961910    12.000000000000
         C            2.450824021335     1.184171112258    -0.285857961910    12.000000000000
         C            2.696687021335    -1.109381887742     0.254836038090    12.000000000000
         C            3.302376021335     0.115752112258    -0.026367961910    12.000000000000
         H           -3.872928978665     0.707413112258     0.066726038090     1.007825032230
         H           -3.508636978665    -2.023013887742    -0.284951961910     1.007825032230
         H            2.836038021335     2.177694112258    -0.510458961910     1.007825032230
         H            3.290346021335    -1.994817887742     0.477605038090     1.007825032230
         H            4.381590021335     0.230326112258    -0.037170961910     1.007825032230
         C           -1.493887978665     2.102857112258     0.298693038090    12.000000000000
         H           -0.796826978665     2.249670112258     1.122907038090     1.007825032230
         H           -1.076196978665     2.559329112258    -0.597515961910     1.007825032230
         H           -2.453683978665     2.559814112258     0.545223038090     1.007825032230

  Basis Set: AUG-CC-PVTZ
    Blend: AUG-CC-PVTZ
  Basis Set: (AUG-CC-PVTZ AUX)
    Blend: AUG-CC-PVTZ-JKFIT
	 Reference Energy          =    -525.5403556866375538 [Eh]
	 Singles Energy            =      -0.0000000000000000 [Eh]
	 Same-Spin Energy          =      -0.5787364063206508 [Eh]
	 Opposite-Spin Energy      =      -1.7366647205504173 [Eh]
	 Correlation Energy        =      -2.3154011268710679 [Eh]
	 Total Energy              =    -527.8557568135086058 [Eh]

	 ================> DF-SCS-MP2 Energies <==================
	-----------------------------------------------------------
	 SCS Same-Spin Scale       =       0.3333333333333333 [-]
	 SCS Opposite-Spin Scale   =       1.2000000000000000 [-]
	 SCS Same-Spin Energy      =      -0.1929121354402169 [Eh]
	 SCS Opposite-Spin Energy  =      -2.0839976646605005 [Eh]
	 SCS Correlation Energy    =      -2.2769098001007175 [Eh]
	 SCS Total Energy          =    -527.8172654867382789 [Eh]
	-----------------------------------------------------------

  Dipole Moment: [D]
     X:     1.4578      Y:     3.8974      Z:     0.4422     Total:     4.1846

*** Psi4 exiting successfully. Buy a developer a beer!
