                               Psi4 1.3.2 release

  ==> Input File <==

--------------------------------------------------------------------------
#psi4
#
memory 32 gb

molecule  {
0 1
  N       -1.6782197     0.5122230     0.0684195
  N       -1.4345640    -1.5648400    -0.1846490
  N        1.1113180     1.0210360    -0.2929590
  N        1.3650780    -1.3052570     0.2771500
  C       -0.8211750    -0.3840720    -0.0264870
  C        0.6302560    -0.2085840    -0.0077820
  C       -2.9774260     0.0775420    -0.0074450
  C       -2.7669850    -1.2782450    -0.1740670
  C        2.4478010     1.1517920    -0.2896530
  C        2.6936640    -1.1417610     0.2510410
  C        3.2993530     0.0833730    -0.0301630
  H       -3.8759520     0.6750340     0.0629310
  H       -3.5116600    -2.0553930    -0.2887470
  H        2.8330150     2.1453150    -0.5142540
  H        3.2873230    -2.0271970     0.4738100
  H        4.3785670     0.1979470    -0.0409660
  C       -1.4969110     2.0704780     0.2948980
  H       -0.7998500     2.2172910     1.1191120
  H       -1.0792200     2.5269500    -0.6013110
  H       -2.4567070     2.5274350     0.5414280
units angstrom
no_reorient  #important for SAPT in psi4, default
symmetry c1  #important for SAPT in psi4, default
}

set PROPERTIES_ORIGIN ["COM"]
properties('MP2/aug-cc-pvtz', properties = ['dipole'])
--------------------------------------------------------------------------

    Molecular point group: c1
  Charge       = 0
  Multiplicity = 1
  Basis Set: AUG-CC-PVTZ
    Blend: AUG-CC-PVTZ
  Basis Set: (AUG-CC-PVTZ AUX)
    Blend: AUG-CC-PVTZ-JKFIT

    Orbital Energies [Eh]
    ---------------------

    Doubly Occupied:

       1A    -15.624906     2A    -15.581976     3A    -15.576368
       4A    -15.526357     5A    -11.334243     6A    -11.307082
       7A    -11.303860     8A    -11.286125     9A    -11.280560
      10A    -11.253515    11A    -11.248241    12A    -11.237366
      13A     -1.372277    14A     -1.311318    15A     -1.198047
      16A     -1.155798    17A     -1.091395    18A     -1.017035
      19A     -0.967507    20A     -0.900817    21A     -0.899995
      22A     -0.807572    23A     -0.781180    24A     -0.723518
      25A     -0.703683    26A     -0.687986    27A     -0.650421
      28A     -0.644039    29A     -0.606823    30A     -0.600432
      31A     -0.591022    32A     -0.580717    33A     -0.559702
      34A     -0.557401    35A     -0.534847    36A     -0.483103
      37A     -0.427206    38A     -0.424302    39A     -0.408991
      40A     -0.393263    41A     -0.375658    42A     -0.303121

  @DF-RHF Final Energy:  -525.53188002135346

   => Energetics <=

    Nuclear Repulsion Energy =            656.4640585142011560
    One-Electron Energy =               -2015.3523320904009779
    Two-Electron Energy =                 833.3563935548464769
    Total Energy =                       -525.5318800213534587
  Basis Set: (AUG-CC-PVTZ AUX)
    Blend: AUG-CC-PVTZ-RI
    Molecular point group: c1

    Geometry (in Angstrom), charge = 0, multiplicity = 1:

       Center              X                  Y                   Z               Mass
    ------------   -----------------  -----------------  -----------------  -----------------
         N           -1.690448190289     0.562309619878     0.074460131365    14.003074004430
         N           -1.446792490289    -1.514753380122    -0.178608368635    14.003074004430
         N            1.099089509711     1.071122619878    -0.286918368635    14.003074004430
         N            1.352849509711    -1.255170380122     0.283190631365    14.003074004430
         C           -0.833403490289    -0.333985380122    -0.020446368635    12.000000000000
         C            0.618027509711    -0.158497380122    -0.001741368635    12.000000000000
         C           -2.989654490289     0.127628619878    -0.001404368635    12.000000000000
         C           -2.779213490289    -1.228158380122    -0.168026368635    12.000000000000
         C            2.435572509711     1.201878619878    -0.283612368635    12.000000000000
         C            2.681435509711    -1.091674380122     0.257081631365    12.000000000000
         C            3.287124509711     0.133459619878    -0.024122368635    12.000000000000
         H           -3.888180490289     0.725120619878     0.068971631365     1.007825032230
         H           -3.523888490289    -2.005306380122    -0.282706368635     1.007825032230
         H            2.820786509711     2.195401619878    -0.508213368635     1.007825032230
         H            3.275094509711    -1.977110380122     0.479850631365     1.007825032230
         H            4.366338509711     0.248033619878    -0.034925368635     1.007825032230
         C           -1.509139490289     2.120564619878     0.300938631365    12.000000000000
         H           -0.812078490289     2.267377619878     1.125152631365     1.007825032230
         H           -1.091448490289     2.577036619878    -0.595270368635     1.007825032230
         H           -2.468935490289     2.577521619878     0.547468631365     1.007825032230

  Basis Set: AUG-CC-PVTZ
    Blend: AUG-CC-PVTZ
  Basis Set: (AUG-CC-PVTZ AUX)
    Blend: AUG-CC-PVTZ-JKFIT
	 Reference Energy          =    -525.5318800213534587 [Eh]
	 Singles Energy            =      -0.0000000000000000 [Eh]
	 Same-Spin Energy          =      -0.5775168933538822 [Eh]
	 Opposite-Spin Energy      =      -1.7373956384927918 [Eh]
	 Correlation Energy        =      -2.3149125318466739 [Eh]
	 Total Energy              =    -527.8467925532000891 [Eh]

	 ================> DF-SCS-MP2 Energies <==================
	-----------------------------------------------------------
	 SCS Same-Spin Scale       =       0.3333333333333333 [-]
	 SCS Opposite-Spin Scale   =       1.2000000000000000 [-]
	 SCS Same-Spin Energy      =      -0.1925056311179607 [Eh]
	 SCS Opposite-Spin Energy  =      -2.0848747661913500 [Eh]
	 SCS Correlation Energy    =      -2.2773803973093107 [Eh]
	 SCS Total Energy          =    -527.8092604186628023 [Eh]
	-----------------------------------------------------------

  Dipole Moment: [D]
     X:     1.5451      Y:     4.4709      Z:     0.5319     Total:     4.7602

*** Psi4 exiting successfully. Buy a developer a beer!
