                               Psi4 1.4a3.dev225

  ==> Input File <==

--------------------------------------------------------------------------
#psi4
#
memory 32 gb

molecule  {
0 1
  N       -1.7314010     0.6447010     0.0841650
  N       -1.4345640    -1.5648400    -0.1846490
  N        1.1113180     1.0210360    -0.2929590
  N        1.3650780    -1.3052570     0.2771500
  C       -0.8211750    -0.3840720    -0.0264870
  C        0.6302560    -0.2085840    -0.0077820
  C       -2.9592636     0.0858091    -0.0061097
  C       -2.7669850    -1.2782450    -0.1740670
  C        2.4478010     1.1517920    -0.2896530
  C        2.6936640    -1.1417610     0.2510410
  C        3.2993530     0.0833730    -0.0301630
  H       -3.8759520     0.6750340     0.0629310
  H       -3.5116600    -2.0553930    -0.2887470
  H        2.8330150     2.1453150    -0.5142540
  H        3.2873230    -2.0271970     0.4738100
  H        4.3785670     0.1979470    -0.0409660
  C       -1.4969110     2.0704780     0.2948980
  H       -0.7998500     2.2172910     1.1191120
  H       -1.0792200     2.5269500    -0.6013110
  H       -2.4567070     2.5274350     0.5414280
units angstrom
no_reorient  #important for SAPT in psi4, default
symmetry c1  #important for SAPT in psi4, default
}

set PROPERTIES_ORIGIN ["COM"]
properties('MP2/aug-cc-pvtz', properties = ['dipole'])
--------------------------------------------------------------------------

    Molecular point group: c1
  Charge       = 0
  Multiplicity = 1
  Basis Set: AUG-CC-PVTZ
    Blend: AUG-CC-PVTZ
  Basis Set: (AUG-CC-PVTZ AUX)
    Blend: AUG-CC-PVTZ-JKFIT

    Orbital Energies [Eh]
    ---------------------

    Doubly Occupied:

       1A    -15.627301     2A    -15.579226     3A    -15.574064
       4A    -15.547356     5A    -11.332865     6A    -11.305368
       7A    -11.302463     8A    -11.293754     9A    -11.274502
      10A    -11.260652    11A    -11.251049    12A    -11.239832
      13A     -1.348723    14A     -1.308283    15A     -1.197641
      16A     -1.179763    17A     -1.088469    18A     -1.007858
      19A     -0.970122    20A     -0.898836    21A     -0.892742
      22A     -0.803958    23A     -0.783586    24A     -0.728292
      25A     -0.702052    26A     -0.685734    27A     -0.648505
      28A     -0.639938    29A     -0.606781    30A     -0.593181
      31A     -0.585315    32A     -0.577822    33A     -0.570882
      34A     -0.558538    35A     -0.544515    36A     -0.480655
      37A     -0.435996    38A     -0.423796    39A     -0.411893
      40A     -0.397538    41A     -0.378684    42A     -0.296484

  @DF-RHF Final Energy:  -525.55772376423124

   => Energetics <=

    Nuclear Repulsion Energy =            654.5250335933383212
    One-Electron Energy =               -2011.4954909014395525
    Two-Electron Energy =                 831.4127335438699902
    Total Energy =                       -525.5577237642312411
  Basis Set: (AUG-CC-PVTZ AUX)
    Blend: AUG-CC-PVTZ-RI
    Molecular point group: c1

    Geometry (in Angstrom), charge = 0, multiplicity = 1:

       Center              X                  Y                   Z               Mass
    ------------   -----------------  -----------------  -----------------  -----------------
         N           -1.740338825158     0.682578932048     0.088728141720    14.003074004430
         N           -1.443501825158    -1.526962067952    -0.180085858280    14.003074004430
         N            1.102380174842     1.058913932048    -0.288395858280    14.003074004430
         N            1.356140174842    -1.267379067952     0.281713141720    14.003074004430
         C           -0.830112825158    -0.346194067952    -0.021923858280    12.000000000000
         C            0.621318174842    -0.170706067952    -0.003218858280    12.000000000000
         C           -2.968201425158     0.123687032048    -0.001546558280    12.000000000000
         C           -2.775922825158    -1.240367067952    -0.169503858280    12.000000000000
         C            2.438863174842     1.189669932048    -0.285089858280    12.000000000000
         C            2.684726174842    -1.103883067952     0.255604141720    12.000000000000
         C            3.290415174842     0.121250932048    -0.025599858280    12.000000000000
         H           -3.884889825158     0.712911932048     0.067494141720     1.007825032230
         H           -3.520597825158    -2.017515067952    -0.284183858280     1.007825032230
         H            2.824077174842     2.183192932048    -0.509690858280     1.007825032230
         H            3.278385174842    -1.989319067952     0.478373141720     1.007825032230
         H            4.369629174842     0.235824932048    -0.036402858280     1.007825032230
         C           -1.505848825158     2.108355932048     0.299461141720    12.000000000000
         H           -0.808787825158     2.255168932048     1.123675141720     1.007825032230
         H           -1.088157825158     2.564827932048    -0.596747858280     1.007825032230
         H           -2.465644825158     2.565312932048     0.545991141720     1.007825032230

  Basis Set: AUG-CC-PVTZ
    Blend: AUG-CC-PVTZ
  Basis Set: (AUG-CC-PVTZ AUX)
    Blend: AUG-CC-PVTZ-JKFIT
	 Reference Energy          =    -525.5577237642312411 [Eh]
	 Singles Energy            =      -0.0000000000000000 [Eh]
	 Same-Spin Energy          =      -0.5780987588794486 [Eh]
	 Opposite-Spin Energy      =      -1.7382013545311592 [Eh]
	 Correlation Energy        =      -2.3163001134106080 [Eh]
	 Total Energy              =    -527.8740238776418892 [Eh]

	 ================> DF-SCS-MP2 Energies <==================
	-----------------------------------------------------------
	 SCS Same-Spin Scale       =       0.3333333333333333 [-]
	 SCS Opposite-Spin Scale   =       1.2000000000000000 [-]
	 SCS Same-Spin Energy      =      -0.1926995862931495 [Eh]
	 SCS Opposite-Spin Energy  =      -2.0858416254373910 [Eh]
	 SCS Correlation Energy    =      -2.2785412117305404 [Eh]
	 SCS Total Energy          =    -527.8362649759617398 [Eh]
	-----------------------------------------------------------

  Dipole Moment: [D]
     X:     1.3611      Y:     4.1309      Z:     0.4830     Total:     4.3761

*** Psi4 exiting successfully. Buy a developer a beer!
