                               Psi4 1.3.2 release

  ==> Input File <==

--------------------------------------------------------------------------
#psi4
#
memory 32 gb

molecule  {
0 1
  N       -1.7314010     0.6447010     0.0841650
  N       -1.4120076    -1.4251303    -0.1666327
  N        1.1113180     1.0210360    -0.2929590
  N        1.3650780    -1.3052570     0.2771500
  C       -0.8211750    -0.3840720    -0.0264870
  C        0.6302560    -0.2085840    -0.0077820
  C       -2.9774260     0.0775420    -0.0074450
  C       -2.7669850    -1.2782450    -0.1740670
  C        2.4478010     1.1517920    -0.2896530
  C        2.6936640    -1.1417610     0.2510410
  C        3.2993530     0.0833730    -0.0301630
  H       -3.8759520     0.6750340     0.0629310
  H       -3.5116600    -2.0553930    -0.2887470
  H        2.8330150     2.1453150    -0.5142540
  H        3.2873230    -2.0271970     0.4738100
  H        4.3785670     0.1979470    -0.0409660
  C       -1.4969110     2.0704780     0.2948980
  H       -0.7998500     2.2172910     1.1191120
  H       -1.0792200     2.5269500    -0.6013110
  H       -2.4567070     2.5274350     0.5414280
units angstrom
no_reorient  #important for SAPT in psi4, default
symmetry c1  #important for SAPT in psi4, default
}

set PROPERTIES_ORIGIN ["COM"]
properties('MP2/aug-cc-pvtz', properties = ['dipole'])
--------------------------------------------------------------------------

    Molecular point group: c1
  Charge       = 0
  Multiplicity = 1
  Basis Set: AUG-CC-PVTZ
    Blend: AUG-CC-PVTZ
  Basis Set: (AUG-CC-PVTZ AUX)
    Blend: AUG-CC-PVTZ-JKFIT

    Orbital Energies [Eh]
    ---------------------

    Doubly Occupied:

       1A    -15.607838     2A    -15.580010     3A    -15.575444
       4A    -15.523821     5A    -11.331413     6A    -11.305594
       7A    -11.303089     8A    -11.276720     9A    -11.265734
      10A    -11.261343    11A    -11.252335    12A    -11.237874
      13A     -1.363751    14A     -1.309458    15A     -1.200888
      16A     -1.185685    17A     -1.089352    18A     -1.017279
      19A     -0.956995    20A     -0.899942    21A     -0.896443
      22A     -0.813283    23A     -0.782355    24A     -0.723135
      25A     -0.702453    26A     -0.688340    27A     -0.647031
      28A     -0.641715    29A     -0.610569    30A     -0.592022
      31A     -0.588508    32A     -0.579868    33A     -0.576360
      34A     -0.557587    35A     -0.550358    36A     -0.481997
      37A     -0.424722    38A     -0.421749    39A     -0.405499
      40A     -0.400231    41A     -0.375097    42A     -0.307130

  @DF-RHF Final Energy:  -525.54617632314012

   => Energetics <=

    Nuclear Repulsion Energy =            658.3343202356243182
    One-Electron Energy =               -2019.1389623449772444
    Two-Electron Energy =                 835.2584657862128097
    Total Energy =                       -525.5461763231401164
  Basis Set: (AUG-CC-PVTZ AUX)
    Blend: AUG-CC-PVTZ-RI
    Molecular point group: c1

    Geometry (in Angstrom), charge = 0, multiplicity = 1:

       Center              X                  Y                   Z               Mass
    ------------   -----------------  -----------------  -----------------  -----------------
         N           -1.740950477208     0.670977112454     0.087252207718    14.003074004430
         N           -1.421557077208    -1.398854187546    -0.163545492282    14.003074004430
         N            1.101768522792     1.047312112454    -0.289871792282    14.003074004430
         N            1.355528522792    -1.278980887546     0.280237207718    14.003074004430
         C           -0.830724477208    -0.357795887546    -0.023399792282    12.000000000000
         C            0.620706522792    -0.182307887546    -0.004694792282    12.000000000000
         C           -2.986975477208     0.103818112454    -0.004357792282    12.000000000000
         C           -2.776534477208    -1.251968887546    -0.170979792282    12.000000000000
         C            2.438251522792     1.178068112454    -0.286565792282    12.000000000000
         C            2.684114522792    -1.115484887546     0.254128207718    12.000000000000
         C            3.289803522792     0.109649112454    -0.027075792282    12.000000000000
         H           -3.885501477208     0.701310112454     0.066018207718     1.007825032230
         H           -3.521209477208    -2.029116887546    -0.285659792282     1.007825032230
         H            2.823465522792     2.171591112454    -0.511166792282     1.007825032230
         H            3.277773522792    -2.000920887546     0.476897207718     1.007825032230
         H            4.369017522792     0.224223112454    -0.037878792282     1.007825032230
         C           -1.506460477208     2.096754112454     0.297985207718    12.000000000000
         H           -0.809399477208     2.243567112454     1.122199207718     1.007825032230
         H           -1.088769477208     2.553226112454    -0.598223792282     1.007825032230
         H           -2.466256477208     2.553711112454     0.544515207718     1.007825032230

  Basis Set: AUG-CC-PVTZ
    Blend: AUG-CC-PVTZ
  Basis Set: (AUG-CC-PVTZ AUX)
    Blend: AUG-CC-PVTZ-JKFIT
	 Reference Energy          =    -525.5461763231401164 [Eh]
	 Singles Energy            =      -0.0000000000000000 [Eh]
	 Same-Spin Energy          =      -0.5752068125497690 [Eh]
	 Opposite-Spin Energy      =      -1.7325244414034113 [Eh]
	 Correlation Energy        =      -2.3077312539531802 [Eh]
	 Total Energy              =    -527.8539075770933096 [Eh]

	 ================> DF-SCS-MP2 Energies <==================
	-----------------------------------------------------------
	 SCS Same-Spin Scale       =       0.3333333333333333 [-]
	 SCS Opposite-Spin Scale   =       1.2000000000000000 [-]
	 SCS Same-Spin Energy      =      -0.1917356041832563 [Eh]
	 SCS Opposite-Spin Energy  =      -2.0790293296840936 [Eh]
	 SCS Correlation Energy    =      -2.2707649338673499 [Eh]
	 SCS Total Energy          =    -527.8169412570074428 [Eh]
	-----------------------------------------------------------

  Dipole Moment: [D]
     X:     1.5826      Y:     3.6855      Z:     0.4188     Total:     4.0327

*** Psi4 exiting successfully. Buy a developer a beer!
