                               Psi4 1.3.2 release

  ==> Input File <==

--------------------------------------------------------------------------
#psi4
#
memory 32 gb

molecule  {
0 1
  N       -1.7314010     0.6447010     0.0841650
  N       -1.4345640    -1.5648400    -0.1846490
  N        1.1113180     1.0210360    -0.2929590
  N        1.3650780    -1.3052570     0.2771500
  C       -0.8211750    -0.3840720    -0.0264870
  C        0.6302560    -0.2085840    -0.0077820
  C       -2.9774260     0.0775420    -0.0074450
  C       -2.7669850    -1.2782450    -0.1740670
  C        2.4478010     1.1517920    -0.2896530
  C        2.6936640    -1.1417610     0.2510410
  C        3.2993530     0.0833730    -0.0301630
  H       -3.8759520     0.6750340     0.0629310
  H       -3.4428633    -1.9835963    -0.2781523
  H        2.8330150     2.1453150    -0.5142540
  H        3.2873230    -2.0271970     0.4738100
  H        4.3785670     0.1979470    -0.0409660
  C       -1.4969110     2.0704780     0.2948980
  H       -0.7998500     2.2172910     1.1191120
  H       -1.0792200     2.5269500    -0.6013110
  H       -2.4567070     2.5274350     0.5414280
units angstrom
no_reorient  #important for SAPT in psi4, default
symmetry c1  #important for SAPT in psi4, default
}

set PROPERTIES_ORIGIN ["COM"]
properties('MP2/aug-cc-pvtz', properties = ['dipole'])
--------------------------------------------------------------------------

    Molecular point group: c1
  Charge       = 0
  Multiplicity = 1
  Basis Set: AUG-CC-PVTZ
    Blend: AUG-CC-PVTZ
  Basis Set: (AUG-CC-PVTZ AUX)
    Blend: AUG-CC-PVTZ-JKFIT

    Orbital Energies [Eh]
    ---------------------

    Doubly Occupied:

       1A    -15.625411     2A    -15.579774     3A    -15.574689
       4A    -15.545777     5A    -11.333102     6A    -11.305650
       7A    -11.302789     8A    -11.294801     9A    -11.273145
      10A    -11.259390    11A    -11.251645    12A    -11.228710
      13A     -1.344321    14A     -1.307816    15A     -1.197721
      16A     -1.177769    17A     -1.088919    18A     -1.009191
      19A     -0.969269    20A     -0.899578    21A     -0.895523
      22A     -0.812094    23A     -0.784186    24A     -0.729899
      25A     -0.703339    26A     -0.687521    27A     -0.645969
      28A     -0.639612    29A     -0.612645    30A     -0.594742
      31A     -0.586838    32A     -0.579303    33A     -0.571595
      34A     -0.563517    35A     -0.542865    36A     -0.480970
      37A     -0.436354    38A     -0.424039    39A     -0.412233
      40A     -0.396347    41A     -0.377493    42A     -0.298341

  @DF-RHF Final Energy:  -525.55186696866724

   => Energetics <=

    Nuclear Repulsion Energy =            654.6955305731489716
    One-Electron Energy =               -2011.8050138235919349
    Two-Electron Energy =                 831.5576162817757222
    Total Energy =                       -525.5518669686672411
  Basis Set: (AUG-CC-PVTZ AUX)
    Blend: AUG-CC-PVTZ-RI
    Molecular point group: c1

    Geometry (in Angstrom), charge = 0, multiplicity = 1:

       Center              X                  Y                   Z               Mass
    ------------   -----------------  -----------------  -----------------  -----------------
         N           -1.739410423722     0.682746645345     0.088761538562    14.003074004430
         N           -1.442573423722    -1.526794354655    -0.180052461438    14.003074004430
         N            1.103308576278     1.059081645345    -0.288362461438    14.003074004430
         N            1.357068576278    -1.267211354655     0.281746538562    14.003074004430
         C           -0.829184423722    -0.346026354655    -0.021890461438    12.000000000000
         C            0.622246576278    -0.170538354655    -0.003185461438    12.000000000000
         C           -2.985435423722     0.115587645345    -0.002848461438    12.000000000000
         C           -2.774994423722    -1.240199354655    -0.169470461438    12.000000000000
         C            2.439791576278     1.189837645345    -0.285056461438    12.000000000000
         C            2.685654576278    -1.103715354655     0.255637538562    12.000000000000
         C            3.291343576278     0.121418645345    -0.025566461438    12.000000000000
         H           -3.883961423722     0.713079645345     0.067527538562     1.007825032230
         H           -3.450872723722    -1.945550654655    -0.273555761438     1.007825032230
         H            2.825005576278     2.183360645345    -0.509657461438     1.007825032230
         H            3.279313576278    -1.989151354655     0.478406538562     1.007825032230
         H            4.370557576278     0.235992645345    -0.036369461438     1.007825032230
         C           -1.504920423722     2.108523645345     0.299494538562    12.000000000000
         H           -0.807859423722     2.255336645345     1.123708538562     1.007825032230
         H           -1.087229423722     2.564995645345    -0.596714461438     1.007825032230
         H           -2.464716423722     2.565480645345     0.546024538562     1.007825032230

  Basis Set: AUG-CC-PVTZ
    Blend: AUG-CC-PVTZ
  Basis Set: (AUG-CC-PVTZ AUX)
    Blend: AUG-CC-PVTZ-JKFIT
	 Reference Energy          =    -525.5518669686672411 [Eh]
	 Singles Energy            =      -0.0000000000000000 [Eh]
	 Same-Spin Energy          =      -0.5778146855564996 [Eh]
	 Opposite-Spin Energy      =      -1.7378453180628988 [Eh]
	 Correlation Energy        =      -2.3156600036193984 [Eh]
	 Total Energy              =    -527.8675269722866688 [Eh]

	 ================> DF-SCS-MP2 Energies <==================
	-----------------------------------------------------------
	 SCS Same-Spin Scale       =       0.3333333333333333 [-]
	 SCS Opposite-Spin Scale   =       1.2000000000000000 [-]
	 SCS Same-Spin Energy      =      -0.1926048951854999 [Eh]
	 SCS Opposite-Spin Energy  =      -2.0854143816754784 [Eh]
	 SCS Correlation Energy    =      -2.2780192768609782 [Eh]
	 SCS Total Energy          =    -527.8298862455282006 [Eh]
	-----------------------------------------------------------

  Dipole Moment: [D]
     X:     1.3709      Y:     4.1097      Z:     0.4796     Total:     4.3588

*** Psi4 exiting successfully. Buy a developer a beer!
