                               Psi4 1.3.2 release

  ==> Input File <==

--------------------------------------------------------------------------
#psi4
#
memory 32 gb

molecule  {
0 1
  N       -1.7416134     0.6661809     0.0869561
  N       -1.4345640    -1.5648400    -0.1846490
  N        1.1113180     1.0210360    -0.2929590
  N        1.3650780    -1.3052570     0.2771500
  C       -0.8211750    -0.3840720    -0.0264870
  C        0.6302560    -0.2085840    -0.0077820
  C       -2.9774260     0.0775420    -0.0074450
  C       -2.7669850    -1.2782450    -0.1740670
  C        2.4478010     1.1517920    -0.2896530
  C        2.6936640    -1.1417610     0.2510410
  C        3.2993530     0.0833730    -0.0301630
  H       -3.8759520     0.6750340     0.0629310
  H       -3.5116600    -2.0553930    -0.2887470
  H        2.8330150     2.1453150    -0.5142540
  H        3.2873230    -2.0271970     0.4738100
  H        4.3785670     0.1979470    -0.0409660
  C       -1.4969110     2.0704780     0.2948980
  H       -0.7998500     2.2172910     1.1191120
  H       -1.0792200     2.5269500    -0.6013110
  H       -2.4567070     2.5274350     0.5414280
units angstrom
no_reorient  #important for SAPT in psi4, default
symmetry c1  #important for SAPT in psi4, default
}

set PROPERTIES_ORIGIN ["COM"]
properties('MP2/aug-cc-pvtz', properties = ['dipole'])
--------------------------------------------------------------------------

    Molecular point group: c1
  Charge       = 0
  Multiplicity = 1
  Basis Set: AUG-CC-PVTZ
    Blend: AUG-CC-PVTZ
  Basis Set: (AUG-CC-PVTZ AUX)
    Blend: AUG-CC-PVTZ-JKFIT

    Orbital Energies [Eh]
    ---------------------

    Doubly Occupied:

       1A    -15.625652     2A    -15.579744     3A    -15.574747
       4A    -15.549797     5A    -11.333349     6A    -11.305668
       7A    -11.302868     8A    -11.297606     9A    -11.271228
      10A    -11.261992    11A    -11.251619    12A    -11.240879
      13A     -1.341815    14A     -1.307564    15A     -1.198348
      16A     -1.181500    17A     -1.088649    18A     -1.008023
      19A     -0.968077    20A     -0.899187    21A     -0.892780
      22A     -0.801298    23A     -0.785087    24A     -0.727405
      25A     -0.702597    26A     -0.685604    27A     -0.646394
      28A     -0.639745    29A     -0.607527    30A     -0.594499
      31A     -0.588363    32A     -0.578289    33A     -0.568856
      34A     -0.556839    35A     -0.541199    36A     -0.480669
      37A     -0.437847    38A     -0.424133    39A     -0.412559
      40A     -0.397472    41A     -0.377899    42A     -0.297696

  @DF-RHF Final Energy:  -525.55632084747072

   => Energetics <=

    Nuclear Repulsion Energy =            653.7640756840834229
    One-Electron Energy =               -2009.9746569313278997
    Two-Electron Energy =                 830.6542603997738752
    Total Energy =                       -525.5563208474707153
  Basis Set: (AUG-CC-PVTZ AUX)
    Blend: AUG-CC-PVTZ-RI
    Molecular point group: c1

    Geometry (in Angstrom), charge = 0, multiplicity = 1:

       Center              X                  Y                   Z               Mass
    ------------   -----------------  -----------------  -----------------  -----------------
         N           -1.748296319477     0.702799550087     0.091375181780    14.003074004430
         N           -1.441246919477    -1.528221349913    -0.180229918220    14.003074004430
         N            1.104635080523     1.057654650087    -0.288539918220    14.003074004430
         N            1.358395080523    -1.268638349913     0.281569081780    14.003074004430
         C           -0.827857919477    -0.347453349913    -0.022067918220    12.000000000000
         C            0.623573080523    -0.171965349913    -0.003362918220    12.000000000000
         C           -2.984108919477     0.114160650087    -0.003025918220    12.000000000000
         C           -2.773667919477    -1.241626349913    -0.169647918220    12.000000000000
         C            2.441118080523     1.188410650087    -0.285233918220    12.000000000000
         C            2.686981080523    -1.105142349913     0.255460081780    12.000000000000
         C            3.292670080523     0.119991650087    -0.025743918220    12.000000000000
         H           -3.882634919477     0.711652650087     0.067350081780     1.007825032230
         H           -3.518342919477    -2.018774349913    -0.284327918220     1.007825032230
         H            2.826332080523     2.181933650087    -0.509834918220     1.007825032230
         H            3.280640080523    -1.990578349913     0.478229081780     1.007825032230
         H            4.371884080523     0.234565650087    -0.036546918220     1.007825032230
         C           -1.503593919477     2.107096650087     0.299317081780    12.000000000000
         H           -0.806532919477     2.253909650087     1.123531081780     1.007825032230
         H           -1.085902919477     2.563568650087    -0.596891918220     1.007825032230
         H           -2.463389919477     2.564053650087     0.545847081780     1.007825032230

  Basis Set: AUG-CC-PVTZ
    Blend: AUG-CC-PVTZ
  Basis Set: (AUG-CC-PVTZ AUX)
    Blend: AUG-CC-PVTZ-JKFIT
	 Reference Energy          =    -525.5563208474707153 [Eh]
	 Singles Energy            =      -0.0000000000000000 [Eh]
	 Same-Spin Energy          =      -0.5781980793804278 [Eh]
	 Opposite-Spin Energy      =      -1.7388019717378882 [Eh]
	 Correlation Energy        =      -2.3170000511183160 [Eh]
	 Total Energy              =    -527.8733208985889860 [Eh]

	 ================> DF-SCS-MP2 Energies <==================
	-----------------------------------------------------------
	 SCS Same-Spin Scale       =       0.3333333333333333 [-]
	 SCS Opposite-Spin Scale   =       1.2000000000000000 [-]
	 SCS Same-Spin Energy      =      -0.1927326931268092 [Eh]
	 SCS Opposite-Spin Energy  =      -2.0865623660854657 [Eh]
	 SCS Correlation Energy    =      -2.2792950592122749 [Eh]
	 SCS Total Energy          =    -527.8356159066829605 [Eh]
	-----------------------------------------------------------

  Dipole Moment: [D]
     X:     1.3812      Y:     4.0428      Z:     0.4704     Total:     4.2981

*** Psi4 exiting successfully. Buy a developer a beer!
