                               Psi4 1.4a3.dev225

  ==> Input File <==

--------------------------------------------------------------------------
#psi4
#
memory 32 gb

molecule  {
0 1
  N       -1.7314010     0.6447010     0.0841650
  N       -1.4345640    -1.5648400    -0.1846490
  N        1.1113180     1.0210360    -0.2929590
  N        1.3650780    -1.3052570     0.2771500
  C       -0.8211750    -0.3840720    -0.0264870
  C        0.6302560    -0.2085840    -0.0077820
  C       -2.9774260     0.0775420    -0.0074450
  C       -2.7700302    -1.2586258    -0.1716559
  C        2.4478010     1.1517920    -0.2896530
  C        2.6936640    -1.1417610     0.2510410
  C        3.2993530     0.0833730    -0.0301630
  H       -3.8759520     0.6750340     0.0629310
  H       -3.5116600    -2.0553930    -0.2887470
  H        2.8330150     2.1453150    -0.5142540
  H        3.2873230    -2.0271970     0.4738100
  H        4.3785670     0.1979470    -0.0409660
  C       -1.4969110     2.0704780     0.2948980
  H       -0.7998500     2.2172910     1.1191120
  H       -1.0792200     2.5269500    -0.6013110
  H       -2.4567070     2.5274350     0.5414280
units angstrom
no_reorient  #important for SAPT in psi4, default
symmetry c1  #important for SAPT in psi4, default
}

set PROPERTIES_ORIGIN ["COM"]
properties('MP2/aug-cc-pvtz', properties = ['dipole'])
--------------------------------------------------------------------------

    Molecular point group: c1
  Charge       = 0
  Multiplicity = 1
  Basis Set: AUG-CC-PVTZ
    Blend: AUG-CC-PVTZ
  Basis Set: (AUG-CC-PVTZ AUX)
    Blend: AUG-CC-PVTZ-JKFIT

    Orbital Energies [Eh]
    ---------------------

    Doubly Occupied:

       1A    -15.623921     2A    -15.580517     3A    -15.575463
       4A    -15.546330     5A    -11.333669     6A    -11.306150
       7A    -11.303314     8A    -11.296195     9A    -11.272844
      10A    -11.257433    11A    -11.252365    12A    -11.238787
      13A     -1.345108    14A     -1.308506    15A     -1.198114
      16A     -1.176264    17A     -1.089546    18A     -1.010625
      19A     -0.967364    20A     -0.899626    21A     -0.894996
      22A     -0.800725    23A     -0.785037    24A     -0.726740
      25A     -0.702933    26A     -0.686003    27A     -0.646206
      28A     -0.640025    29A     -0.606013    30A     -0.593005
      31A     -0.587839    32A     -0.579939    33A     -0.569203
      34A     -0.551736    35A     -0.543519    36A     -0.481451
      37A     -0.437691    38A     -0.424540    39A     -0.413011
      40A     -0.397044    41A     -0.376369    42A     -0.301763

  @DF-RHF Final Energy:  -525.55791784221537

   => Energetics <=

    Nuclear Repulsion Energy =            654.3559937967428368
    One-Electron Energy =               -2011.1719668313780858
    Two-Electron Energy =                 831.2580551924197607
    Total Energy =                       -525.5579178422153745
  Basis Set: (AUG-CC-PVTZ AUX)
    Blend: AUG-CC-PVTZ-RI
    Molecular point group: c1

    Geometry (in Angstrom), charge = 0, multiplicity = 1:

       Center              X                  Y                   Z               Mass
    ------------   -----------------  -----------------  -----------------  -----------------
         N           -1.738748999358     0.681727922907     0.088647494471    14.003074004430
         N           -1.441911999358    -1.527813077093    -0.180166505529    14.003074004430
         N            1.103970000642     1.058062922907    -0.288476505529    14.003074004430
         N            1.357730000642    -1.268230077093     0.281632494471    14.003074004430
         C           -0.828522999358    -0.347045077093    -0.022004505529    12.000000000000
         C            0.622908000642    -0.171557077093    -0.003299505529    12.000000000000
         C           -2.984773999358     0.114568922907    -0.002962505529    12.000000000000
         C           -2.777378199358    -1.221598877093    -0.167173405529    12.000000000000
         C            2.440453000642     1.188818922907    -0.285170505529    12.000000000000
         C            2.686316000642    -1.104734077093     0.255523494471    12.000000000000
         C            3.292005000642     0.120399922907    -0.025680505529    12.000000000000
         H           -3.883299999358     0.712060922907     0.067413494471     1.007825032230
         H           -3.519007999358    -2.018366077093    -0.284264505529     1.007825032230
         H            2.825667000642     2.182341922907    -0.509771505529     1.007825032230
         H            3.279975000642    -1.990170077093     0.478292494471     1.007825032230
         H            4.371219000642     0.234973922907    -0.036483505529     1.007825032230
         C           -1.504258999358     2.107504922907     0.299380494471    12.000000000000
         H           -0.807197999358     2.254317922907     1.123594494471     1.007825032230
         H           -1.086567999358     2.563976922907    -0.596828505529     1.007825032230
         H           -2.464054999358     2.564461922907     0.545910494471     1.007825032230

  Basis Set: AUG-CC-PVTZ
    Blend: AUG-CC-PVTZ
  Basis Set: (AUG-CC-PVTZ AUX)
    Blend: AUG-CC-PVTZ-JKFIT
	 Reference Energy          =    -525.5579178422153745 [Eh]
	 Singles Energy            =      -0.0000000000000000 [Eh]
	 Same-Spin Energy          =      -0.5776999475508329 [Eh]
	 Opposite-Spin Energy      =      -1.7380284581431900 [Eh]
	 Correlation Energy        =      -2.3157284056940228 [Eh]
	 Total Energy              =    -527.8736462479093916 [Eh]

	 ================> DF-SCS-MP2 Energies <==================
	-----------------------------------------------------------
	 SCS Same-Spin Scale       =       0.3333333333333333 [-]
	 SCS Opposite-Spin Scale   =       1.2000000000000000 [-]
	 SCS Same-Spin Energy      =      -0.1925666491836109 [Eh]
	 SCS Opposite-Spin Energy  =      -2.0856341497718280 [Eh]
	 SCS Correlation Energy    =      -2.2782007989554391 [Eh]
	 SCS Total Energy          =    -527.8361186411708559 [Eh]
	-----------------------------------------------------------

  Dipole Moment: [D]
     X:     1.4265      Y:     4.1214      Z:     0.4814     Total:     4.3878

*** Psi4 exiting successfully. Buy a developer a beer!
