                               Psi4 1.3.2 release

  ==> Input File <==

--------------------------------------------------------------------------
#psi4
#
memory 32 gb

molecule  {
0 1
  N       -1.6570285     0.7050502     0.0930572
  N       -1.4345640    -1.5648400    -0.1846490
  N        1.1113180     1.0210360    -0.2929590
  N        1.3650780    -1.3052570     0.2771500
  C       -0.8211750    -0.3840720    -0.0264870
  C        0.6302560    -0.2085840    -0.0077820
  C       -2.9774260     0.0775420    -0.0074450
  C       -2.7669850    -1.2782450    -0.1740670
  C        2.4478010     1.1517920    -0.2896530
  C        2.6936640    -1.1417610     0.2510410
  C        3.2993530     0.0833730    -0.0301630
  H       -3.8759520     0.6750340     0.0629310
  H       -3.5116600    -2.0553930    -0.2887470
  H        2.8330150     2.1453150    -0.5142540
  H        3.2873230    -2.0271970     0.4738100
  H        4.3785670     0.1979470    -0.0409660
  C       -1.4969110     2.0704780     0.2948980
  H       -0.7998500     2.2172910     1.1191120
  H       -1.0792200     2.5269500    -0.6013110
  H       -2.4567070     2.5274350     0.5414280
units angstrom
no_reorient  #important for SAPT in psi4, default
symmetry c1  #important for SAPT in psi4, default
}

set PROPERTIES_ORIGIN ["COM"]
properties('MP2/aug-cc-pvtz', properties = ['dipole'])
--------------------------------------------------------------------------

    Molecular point group: c1
  Charge       = 0
  Multiplicity = 1
  Basis Set: AUG-CC-PVTZ
    Blend: AUG-CC-PVTZ
  Basis Set: (AUG-CC-PVTZ AUX)
    Blend: AUG-CC-PVTZ-JKFIT

    Orbital Energies [Eh]
    ---------------------

    Doubly Occupied:

       1A    -15.622905     2A    -15.581544     3A    -15.576077
       4A    -15.547299     5A    -11.332262     6A    -11.306632
       7A    -11.305015     8A    -11.303587     9A    -11.265332
      10A    -11.264188    11A    -11.253347    12A    -11.248309
      13A     -1.337460    14A     -1.305396    15A     -1.201115
      16A     -1.185939    17A     -1.089168    18A     -1.001502
      19A     -0.973748    20A     -0.899987    21A     -0.893998
      22A     -0.798560    23A     -0.785288    24A     -0.726258
      25A     -0.703415    26A     -0.683591    27A     -0.648545
      28A     -0.637401    29A     -0.609811    30A     -0.608942
      31A     -0.591645    32A     -0.580087    33A     -0.566432
      34A     -0.540395    35A     -0.535419    36A     -0.479880
      37A     -0.438331    38A     -0.424793    39A     -0.413558
      40A     -0.392898    41A     -0.375590    42A     -0.303262

  @DF-RHF Final Energy:  -525.54389309813996

   => Energetics <=

    Nuclear Repulsion Energy =            653.9890602470902650
    One-Electron Energy =               -2010.3880793539597107
    Two-Electron Energy =                 830.8551260087294850
    Total Energy =                       -525.5438930981399608
  Basis Set: (AUG-CC-PVTZ AUX)
    Blend: AUG-CC-PVTZ-RI
    Molecular point group: c1

    Geometry (in Angstrom), charge = 0, multiplicity = 1:

       Center              X                  Y                   Z               Mass
    ------------   -----------------  -----------------  -----------------  -----------------
         N           -1.671110759673     0.738268631208     0.096942568145    14.003074004430
         N           -1.448646259673    -1.531621568792    -0.180763631855    14.003074004430
         N            1.097235740327     1.054254431208    -0.289073631855    14.003074004430
         N            1.350995740327    -1.272038568792     0.281035368145    14.003074004430
         C           -0.835257259673    -0.350853568792    -0.022601631855    12.000000000000
         C            0.616173740327    -0.175365568792    -0.003896631855    12.000000000000
         C           -2.991508259673     0.110760431208    -0.003559631855    12.000000000000
         C           -2.781067259673    -1.245026568792    -0.170181631855    12.000000000000
         C            2.433718740327     1.185010431208    -0.285767631855    12.000000000000
         C            2.679581740327    -1.108542568792     0.254926368145    12.000000000000
         C            3.285270740327     0.116591431208    -0.026277631855    12.000000000000
         H           -3.890034259673     0.708252431208     0.066816368145     1.007825032230
         H           -3.525742259673    -2.022174568792    -0.284861631855     1.007825032230
         H            2.818932740327     2.178533431208    -0.510368631855     1.007825032230
         H            3.273240740327    -1.993978568792     0.477695368145     1.007825032230
         H            4.364484740327     0.231165431208    -0.037080631855     1.007825032230
         C           -1.510993259673     2.103696431208     0.298783368145    12.000000000000
         H           -0.813932259673     2.250509431208     1.122997368145     1.007825032230
         H           -1.093302259673     2.560168431208    -0.597425631855     1.007825032230
         H           -2.470789259673     2.560653431208     0.545313368145     1.007825032230

  Basis Set: AUG-CC-PVTZ
    Blend: AUG-CC-PVTZ
  Basis Set: (AUG-CC-PVTZ AUX)
    Blend: AUG-CC-PVTZ-JKFIT
	 Reference Energy          =    -525.5438930981399608 [Eh]
	 Singles Energy            =      -0.0000000000000000 [Eh]
	 Same-Spin Energy          =      -0.5783349971121239 [Eh]
	 Opposite-Spin Energy      =      -1.7402372866011415 [Eh]
	 Correlation Energy        =      -2.3185722837132654 [Eh]
	 Total Energy              =    -527.8624653818532124 [Eh]

	 ================> DF-SCS-MP2 Energies <==================
	-----------------------------------------------------------
	 SCS Same-Spin Scale       =       0.3333333333333333 [-]
	 SCS Opposite-Spin Scale   =       1.2000000000000000 [-]
	 SCS Same-Spin Energy      =      -0.1927783323707080 [Eh]
	 SCS Opposite-Spin Energy  =      -2.0882847439213696 [Eh]
	 SCS Correlation Energy    =      -2.2810630762920776 [Eh]
	 SCS Total Energy          =    -527.8249561744320317 [Eh]
	-----------------------------------------------------------

  Dipole Moment: [D]
     X:     1.3951      Y:     3.8639      Z:     0.4491     Total:     4.1325

*** Psi4 exiting successfully. Buy a developer a beer!
