                               Psi4 1.3.2 release

  ==> Input File <==

--------------------------------------------------------------------------
#psi4
#
memory 32 gb

molecule  {
0 1
  N       -1.7314010     0.6447010     0.0841650
  N       -1.4345640    -1.5648400    -0.1846490
  N        1.1550606     1.0042294    -0.2877387
  N        1.3650780    -1.3052570     0.2771500
  C       -0.8211750    -0.3840720    -0.0264870
  C        0.6302560    -0.2085840    -0.0077820
  C       -2.9774260     0.0775420    -0.0074450
  C       -2.7669850    -1.2782450    -0.1740670
  C        2.4478010     1.1517920    -0.2896530
  C        2.6936640    -1.1417610     0.2510410
  C        3.2993530     0.0833730    -0.0301630
  H       -3.8759520     0.6750340     0.0629310
  H       -3.5116600    -2.0553930    -0.2887470
  H        2.8330150     2.1453150    -0.5142540
  H        3.2873230    -2.0271970     0.4738100
  H        4.3785670     0.1979470    -0.0409660
  C       -1.4969110     2.0704780     0.2948980
  H       -0.7998500     2.2172910     1.1191120
  H       -1.0792200     2.5269500    -0.6013110
  H       -2.4567070     2.5274350     0.5414280
units angstrom
no_reorient  #important for SAPT in psi4, default
symmetry c1  #important for SAPT in psi4, default
}

set PROPERTIES_ORIGIN ["COM"]
properties('MP2/aug-cc-pvtz', properties = ['dipole'])
--------------------------------------------------------------------------

    Molecular point group: c1
  Charge       = 0
  Multiplicity = 1
  Basis Set: AUG-CC-PVTZ
    Blend: AUG-CC-PVTZ
  Basis Set: (AUG-CC-PVTZ AUX)
    Blend: AUG-CC-PVTZ-JKFIT

    Orbital Energies [Eh]
    ---------------------

    Doubly Occupied:

       1A    -15.627060     2A    -15.574267     3A    -15.574010
       4A    -15.547885     5A    -11.333926     6A    -11.299901
       7A    -11.299748     8A    -11.297400     9A    -11.274815
      10A    -11.261049    11A    -11.249350    12A    -11.241512
      13A     -1.346272    14A     -1.313458    15A     -1.202383
      16A     -1.179429    17A     -1.087821    18A     -1.008734
      19A     -0.969848    20A     -0.899880    21A     -0.894489
      22A     -0.803460    23A     -0.787339    24A     -0.728165
      25A     -0.706279    26A     -0.686184    27A     -0.647447
      28A     -0.638626    29A     -0.609431    30A     -0.593603
      31A     -0.589068    32A     -0.581087    33A     -0.571449
      34A     -0.558189    35A     -0.544927    36A     -0.479591
      37A     -0.436553    38A     -0.427898    39A     -0.407275
      40A     -0.395203    41A     -0.378186    42A     -0.298767

  @DF-RHF Final Energy:  -525.55833116911219

   => Energetics <=

    Nuclear Repulsion Energy =            654.5850537251130845
    One-Electron Energy =               -2011.5828404732781109
    Two-Electron Energy =                 831.4394555790528329
    Total Energy =                       -525.5583311691121935
  Basis Set: (AUG-CC-PVTZ AUX)
    Blend: AUG-CC-PVTZ-RI
    Molecular point group: c1

    Geometry (in Angstrom), charge = 0, multiplicity = 1:

       Center              X                  Y                   Z               Mass
    ------------   -----------------  -----------------  -----------------  -----------------
         N           -1.742803809201     0.684668886634     0.088371579582    14.003074004430
         N           -1.445966809201    -1.524872113366    -0.180442420418    14.003074004430
         N            1.143657790799     1.044197286634    -0.283532120418    14.003074004430
         N            1.353675190799    -1.265289113366     0.281356579582    14.003074004430
         C           -0.832577809201    -0.344104113366    -0.022280420418    12.000000000000
         C            0.618853190799    -0.168616113366    -0.003575420418    12.000000000000
         C           -2.988828809201     0.117509886634    -0.003238420418    12.000000000000
         C           -2.778387809201    -1.238277113366    -0.169860420418    12.000000000000
         C            2.436398190799     1.191759886634    -0.285446420418    12.000000000000
         C            2.682261190799    -1.101793113366     0.255247579582    12.000000000000
         C            3.287950190799     0.123340886634    -0.025956420418    12.000000000000
         H           -3.887354809201     0.715001886634     0.067137579582     1.007825032230
         H           -3.523062809201    -2.015425113366    -0.284540420418     1.007825032230
         H            2.821612190799     2.185282886634    -0.510047420418     1.007825032230
         H            3.275920190799    -1.987229113366     0.478016579582     1.007825032230
         H            4.367164190799     0.237914886634    -0.036759420418     1.007825032230
         C           -1.508313809201     2.110445886634     0.299104579582    12.000000000000
         H           -0.811252809201     2.257258886634     1.123318579582     1.007825032230
         H           -1.090622809201     2.566917886634    -0.597104420418     1.007825032230
         H           -2.468109809201     2.567402886634     0.545634579582     1.007825032230

  Basis Set: AUG-CC-PVTZ
    Blend: AUG-CC-PVTZ
  Basis Set: (AUG-CC-PVTZ AUX)
    Blend: AUG-CC-PVTZ-JKFIT
	 Reference Energy          =    -525.5583311691121935 [Eh]
	 Singles Energy            =      -0.0000000000000000 [Eh]
	 Same-Spin Energy          =      -0.5776667715068757 [Eh]
	 Opposite-Spin Energy      =      -1.7370731864674016 [Eh]
	 Correlation Energy        =      -2.3147399579742771 [Eh]
	 Total Energy              =    -527.8730711270865186 [Eh]

	 ================> DF-SCS-MP2 Energies <==================
	-----------------------------------------------------------
	 SCS Same-Spin Scale       =       0.3333333333333333 [-]
	 SCS Opposite-Spin Scale   =       1.2000000000000000 [-]
	 SCS Same-Spin Energy      =      -0.1925555905022919 [Eh]
	 SCS Opposite-Spin Energy  =      -2.0844878237608819 [Eh]
	 SCS Correlation Energy    =      -2.2770434142631739 [Eh]
	 SCS Total Energy          =    -527.8353745833753692 [Eh]
	-----------------------------------------------------------

  Dipole Moment: [D]
     X:     1.2299      Y:     4.1560      Z:     0.4675     Total:     4.3593

*** Psi4 exiting successfully. Buy a developer a beer!
