                               Psi4 1.3.2 release

  ==> Input File <==

--------------------------------------------------------------------------
#psi4
#
memory 32 gb

molecule  {
0 1
  N       -1.7314010     0.6447010     0.0841650
  N       -1.4345640    -1.5648400    -0.1846490
  N        1.1113180     1.0210360    -0.2929590
  N        1.3650780    -1.3052570     0.2771500
  C       -0.8211750    -0.3840720    -0.0264870
  C        0.6302560    -0.2085840    -0.0077820
  C       -2.9774260     0.0775420    -0.0074450
  C       -2.7669850    -1.2782450    -0.1740670
  C        2.4478010     1.1517920    -0.2896530
  C        2.8921289    -1.1173379     0.2471408
  C        3.2993530     0.0833730    -0.0301630
  H       -3.8759520     0.6750340     0.0629310
  H       -3.5116600    -2.0553930    -0.2887470
  H        2.8330150     2.1453150    -0.5142540
  H        3.2873230    -2.0271970     0.4738100
  H        4.3785670     0.1979470    -0.0409660
  C       -1.4969110     2.0704780     0.2948980
  H       -0.7998500     2.2172910     1.1191120
  H       -1.0792200     2.5269500    -0.6013110
  H       -2.4567070     2.5274350     0.5414280
units angstrom
no_reorient  #important for SAPT in psi4, default
symmetry c1  #important for SAPT in psi4, default
}

set PROPERTIES_ORIGIN ["COM"]
properties('MP2/aug-cc-pvtz', properties = ['dipole'])
--------------------------------------------------------------------------

    Molecular point group: c1
  Charge       = 0
  Multiplicity = 1
  Basis Set: AUG-CC-PVTZ
    Blend: AUG-CC-PVTZ
  Basis Set: (AUG-CC-PVTZ AUX)
    Blend: AUG-CC-PVTZ-JKFIT

    Orbital Energies [Eh]
    ---------------------

    Doubly Occupied:

       1A    -15.623012     2A    -15.584398     3A    -15.579581
       4A    -15.542198     5A    -11.325317     6A    -11.316939
       7A    -11.301061     8A    -11.292713     9A    -11.272402
      10A    -11.256207    11A    -11.250399    12A    -11.237350
      13A     -1.340757    14A     -1.294065    15A     -1.180635
      16A     -1.156778    17A     -1.107035    18A     -1.006577
      19A     -0.966446    20A     -0.918968    21A     -0.878970
      22A     -0.799345    23A     -0.787510    24A     -0.728590
      25A     -0.703249    26A     -0.687156    27A     -0.644860
      28A     -0.633901    29A     -0.620345    30A     -0.591805
      31A     -0.583975    32A     -0.574257    33A     -0.566815
      34A     -0.553898    35A     -0.541141    36A     -0.460906
      37A     -0.433022    38A     -0.416539    39A     -0.412984
      40A     -0.398309    41A     -0.376589    42A     -0.297465

  @DF-RHF Final Energy:  -525.51167677194508

   => Energetics <=

    Nuclear Repulsion Energy =            651.3724235376994329
    One-Electron Energy =               -2005.2792591329052811
    Two-Electron Energy =                 828.3951588232607719
    Total Energy =                       -525.5116767719450763
  Basis Set: (AUG-CC-PVTZ AUX)
    Blend: AUG-CC-PVTZ-RI
    Molecular point group: c1

    Geometry (in Angstrom), charge = 0, multiplicity = 1:

       Center              X                  Y                   Z               Mass
    ------------   -----------------  -----------------  -----------------  -----------------
         N           -1.753855185626     0.681367798982     0.089120620500    14.003074004430
         N           -1.457018185626    -1.528173201018    -0.179693379500    14.003074004430
         N            1.088863814374     1.057702798982    -0.288003379500    14.003074004430
         N            1.342623814374    -1.268590201018     0.282105620500    14.003074004430
         C           -0.843629185626    -0.347405201018    -0.021531379500    12.000000000000
         C            0.607801814374    -0.171917201018    -0.002826379500    12.000000000000
         C           -2.999880185626     0.114208798982    -0.002489379500    12.000000000000
         C           -2.789439185626    -1.241578201018    -0.169111379500    12.000000000000
         C            2.425346814374     1.188458798982    -0.284697379500    12.000000000000
         C            2.869674714374    -1.080671101018     0.252096420500    12.000000000000
         C            3.276898814374     0.120039798982    -0.025207379500    12.000000000000
         H           -3.898406185626     0.711700798982     0.067886620500     1.007825032230
         H           -3.534114185626    -2.018726201018    -0.283791379500     1.007825032230
         H            2.810560814374     2.181981798982    -0.509298379500     1.007825032230
         H            3.264868814374    -1.990530201018     0.478765620500     1.007825032230
         H            4.356112814374     0.234613798982    -0.036010379500     1.007825032230
         C           -1.519365185626     2.107144798982     0.299853620500    12.000000000000
         H           -0.822304185626     2.253957798982     1.124067620500     1.007825032230
         H           -1.101674185626     2.563616798982    -0.596355379500     1.007825032230
         H           -2.479161185626     2.564101798982     0.546383620500     1.007825032230

  Basis Set: AUG-CC-PVTZ
    Blend: AUG-CC-PVTZ
  Basis Set: (AUG-CC-PVTZ AUX)
    Blend: AUG-CC-PVTZ-JKFIT
	 Reference Energy          =    -525.5116767719450763 [Eh]
	 Singles Energy            =      -0.0000000000000000 [Eh]
	 Same-Spin Energy          =      -0.5793629599032970 [Eh]
	 Opposite-Spin Energy      =      -1.7448810289148846 [Eh]
	 Correlation Energy        =      -2.3242439888181816 [Eh]
	 Total Energy              =    -527.8359207607632015 [Eh]

	 ================> DF-SCS-MP2 Energies <==================
	-----------------------------------------------------------
	 SCS Same-Spin Scale       =       0.3333333333333333 [-]
	 SCS Opposite-Spin Scale   =       1.2000000000000000 [-]
	 SCS Same-Spin Energy      =      -0.1931209866344323 [Eh]
	 SCS Opposite-Spin Energy  =      -2.0938572346978614 [Eh]
	 SCS Correlation Energy    =      -2.2869782213322938 [Eh]
	 SCS Total Energy          =    -527.7986549932774096 [Eh]
	-----------------------------------------------------------

  Dipole Moment: [D]
     X:     1.6609      Y:     4.1926      Z:     0.4603     Total:     4.5330

*** Psi4 exiting successfully. Buy a developer a beer!
