                               Psi4 1.3.2 release

  ==> Input File <==

--------------------------------------------------------------------------
#psi4
#
memory 32 gb

molecule  {
0 1
  N       -1.7314010     0.6447010     0.0841650
  N       -1.4345640    -1.5648400    -0.1846490
  N        1.1113180     1.0210360    -0.2929590
  N        1.3650780    -1.3052570     0.2771500
  C       -0.8211750    -0.3840720    -0.0264870
  C        0.6302560    -0.2085840    -0.0077820
  C       -2.9774260     0.0775420    -0.0074450
  C       -2.7669850    -1.2782450    -0.1740670
  C        2.4478010     1.1517920    -0.2896530
  C        2.6936640    -1.1417610     0.2510410
  C        3.2993530     0.0833730    -0.0301630
  H       -3.8759520     0.6750340     0.0629310
  H       -3.5116600    -2.0553930    -0.2887470
  H        2.8330150     2.1453150    -0.5142540
  H        3.2873230    -2.0271970     0.4738100
  H        4.3785670     0.1979470    -0.0409660
  C       -1.5290281     1.8751951     0.2660348
  H       -0.7998500     2.2172910     1.1191120
  H       -1.0792200     2.5269500    -0.6013110
  H       -2.4567070     2.5274350     0.5414280
units angstrom
no_reorient  #important for SAPT in psi4, default
symmetry c1  #important for SAPT in psi4, default
}

set PROPERTIES_ORIGIN ["COM"]
properties('MP2/aug-cc-pvtz', properties = ['dipole'])
--------------------------------------------------------------------------

    Molecular point group: c1
  Charge       = 0
  Multiplicity = 1
  Basis Set: AUG-CC-PVTZ
    Blend: AUG-CC-PVTZ
  Basis Set: (AUG-CC-PVTZ AUX)
    Blend: AUG-CC-PVTZ-JKFIT

    Orbital Energies [Eh]
    ---------------------

    Doubly Occupied:

       1A    -15.627337     2A    -15.581242     3A    -15.577426
       4A    -15.554096     5A    -11.335852     6A    -11.306501
       7A    -11.304289     8A    -11.303571     9A    -11.274281
      10A    -11.265800    11A    -11.253691    12A    -11.247408
      13A     -1.376497    14A     -1.312948    15A     -1.218585
      16A     -1.195319    17A     -1.091940    18A     -1.017891
      19A     -0.969698    20A     -0.901246    21A     -0.895100
      22A     -0.817145    23A     -0.789184    24A     -0.744735
      25A     -0.705284    26A     -0.692867    27A     -0.661970
      28A     -0.647201    29A     -0.616929    30A     -0.608520
      31A     -0.592982    32A     -0.580818    33A     -0.568934
      34A     -0.524903    35A     -0.515081    36A     -0.475679
      37A     -0.440484    38A     -0.424809    39A     -0.412414
      40A     -0.397409    41A     -0.369592    42A     -0.304515

  @DF-RHF Final Energy:  -525.50875742865901

   => Energetics <=

    Nuclear Repulsion Energy =            658.4050955887011014
    One-Electron Energy =               -2018.8233540987241668
    Two-Electron Energy =                 834.9095010813639419
    Total Energy =                       -525.5087574286590097
  Basis Set: (AUG-CC-PVTZ AUX)
    Blend: AUG-CC-PVTZ-RI
    Molecular point group: c1

    Geometry (in Angstrom), charge = 0, multiplicity = 1:

       Center              X                  Y                   Z               Mass
    ------------   -----------------  -----------------  -----------------  -----------------
         N           -1.736569627026     0.697838039234     0.090991969518    14.003074004430
         N           -1.439732627026    -1.511702960766    -0.177822030482    14.003074004430
         N            1.106149372974     1.074173039234    -0.286132030482    14.003074004430
         N            1.359909372974    -1.252119960766     0.283976969518    14.003074004430
         C           -0.826343627026    -0.330934960766    -0.019660030482    12.000000000000
         C            0.625087372974    -0.155446960766    -0.000955030482    12.000000000000
         C           -2.982594627026     0.130679039234    -0.000618030482    12.000000000000
         C           -2.772153627026    -1.225107960766    -0.167240030482    12.000000000000
         C            2.442632372974     1.204929039234    -0.282826030482    12.000000000000
         C            2.688495372974    -1.088623960766     0.257867969518    12.000000000000
         C            3.294184372974     0.136510039234    -0.023336030482    12.000000000000
         H           -3.881120627026     0.728171039234     0.069757969518     1.007825032230
         H           -3.516828627026    -2.002255960766    -0.281920030482     1.007825032230
         H            2.827846372974     2.198452039234    -0.507427030482     1.007825032230
         H            3.282154372974    -1.974059960766     0.480636969518     1.007825032230
         H            4.373398372974     0.251084039234    -0.034139030482     1.007825032230
         C           -1.534196727026     1.928332139234     0.272861769518    12.000000000000
         H           -0.805018627026     2.270428039234     1.125938969518     1.007825032230
         H           -1.084388627026     2.580087039234    -0.594484030482     1.007825032230
         H           -2.461875627026     2.580572039234     0.548254969518     1.007825032230

  Basis Set: AUG-CC-PVTZ
    Blend: AUG-CC-PVTZ
  Basis Set: (AUG-CC-PVTZ AUX)
    Blend: AUG-CC-PVTZ-JKFIT
	 Reference Energy          =    -525.5087574286590097 [Eh]
	 Singles Energy            =      -0.0000000000000000 [Eh]
	 Same-Spin Energy          =      -0.5805964849319942 [Eh]
	 Opposite-Spin Energy      =      -1.7411080096611184 [Eh]
	 Correlation Energy        =      -2.3217044945931127 [Eh]
	 Total Energy              =    -527.8304619232520736 [Eh]

	 ================> DF-SCS-MP2 Energies <==================
	-----------------------------------------------------------
	 SCS Same-Spin Scale       =       0.3333333333333333 [-]
	 SCS Opposite-Spin Scale   =       1.2000000000000000 [-]
	 SCS Same-Spin Energy      =      -0.1935321616439981 [Eh]
	 SCS Opposite-Spin Energy  =      -2.0893296115933420 [Eh]
	 SCS Correlation Energy    =      -2.2828617732373400 [Eh]
	 SCS Total Energy          =    -527.7916192018963102 [Eh]
	-----------------------------------------------------------

  Dipole Moment: [D]
     X:     1.4100      Y:     3.5409      Z:     0.3998     Total:     3.8322

*** Psi4 exiting successfully. Buy a developer a beer!
