                               Psi4 1.3.2 release

  ==> Input File <==

--------------------------------------------------------------------------
#psi4
#
memory 32 gb

molecule  {
0 1
  N       -1.7314010     0.6447010     0.0841650
  N       -1.4345640    -1.5648400    -0.1846490
  N        0.9767902     1.0623945    -0.3065119
  N        1.3650780    -1.3052570     0.2771500
  C       -0.8211750    -0.3840720    -0.0264870
  C        0.6302560    -0.2085840    -0.0077820
  C       -2.9774260     0.0775420    -0.0074450
  C       -2.7669850    -1.2782450    -0.1740670
  C        2.4478010     1.1517920    -0.2896530
  C        2.6936640    -1.1417610     0.2510410
  C        3.2993530     0.0833730    -0.0301630
  H       -3.8759520     0.6750340     0.0629310
  H       -3.5116600    -2.0553930    -0.2887470
  H        2.8330150     2.1453150    -0.5142540
  H        3.2873230    -2.0271970     0.4738100
  H        4.3785670     0.1979470    -0.0409660
  C       -1.4969110     2.0704780     0.2948980
  H       -0.7998500     2.2172910     1.1191120
  H       -1.0792200     2.5269500    -0.6013110
  H       -2.4567070     2.5274350     0.5414280
units angstrom
no_reorient  #important for SAPT in psi4, default
symmetry c1  #important for SAPT in psi4, default
}

set PROPERTIES_ORIGIN ["COM"]
properties('MP2/aug-cc-pvtz', properties = ['dipole'])
--------------------------------------------------------------------------

    Molecular point group: c1
  Charge       = 0
  Multiplicity = 1
  Basis Set: AUG-CC-PVTZ
    Blend: AUG-CC-PVTZ
  Basis Set: (AUG-CC-PVTZ AUX)
    Blend: AUG-CC-PVTZ-JKFIT

    Orbital Energies [Eh]
    ---------------------

    Doubly Occupied:

       1A    -15.621957     2A    -15.595376     3A    -15.577872
       4A    -15.542224     5A    -11.332672     6A    -11.321061
       7A    -11.312141     8A    -11.289779     9A    -11.269433
      10A    -11.258964    11A    -11.256412    12A    -11.236860
      13A     -1.341246    14A     -1.296842    15A     -1.187405
      16A     -1.172678    17A     -1.091435    18A     -1.004431
      19A     -0.964816    20A     -0.907861    21A     -0.881918
      22A     -0.799059    23A     -0.777474    24A     -0.723970
      25A     -0.694301    26A     -0.683667    27A     -0.643556
      28A     -0.642631    29A     -0.600801    30A     -0.590868
      31A     -0.581844    32A     -0.576111    33A     -0.567230
      34A     -0.549285    35A     -0.538596    36A     -0.479825
      37A     -0.438144    38A     -0.421447    39A     -0.416412
      40A     -0.399883    41A     -0.376025    42A     -0.297282

  @DF-RHF Final Energy:  -525.53408971895237

   => Energetics <=

    Nuclear Repulsion Energy =            653.0701911957132779
    One-Electron Energy =               -2008.6849811455854251
    Two-Electron Energy =                 830.0807002309197742
    Total Energy =                       -525.5340897189523730
  Basis Set: (AUG-CC-PVTZ AUX)
    Blend: AUG-CC-PVTZ-RI
    Molecular point group: c1

    Geometry (in Angstrom), charge = 0, multiplicity = 1:

       Center              X                  Y                   Z               Mass
    ------------   -----------------  -----------------  -----------------  -----------------
         N           -1.727209024121     0.679580704672     0.090013826524    14.003074004430
         N           -1.430372024121    -1.529960295328    -0.178800173476    14.003074004430
         N            0.980982175879     1.097274204672    -0.300663073476    14.003074004430
         N            1.369269975879    -1.270377295328     0.282998826524    14.003074004430
         C           -0.816983024121    -0.349192295328    -0.020638173476    12.000000000000
         C            0.634447975879    -0.173704295328    -0.001933173476    12.000000000000
         C           -2.973234024121     0.112421704672    -0.001596173476    12.000000000000
         C           -2.762793024121    -1.243365295328    -0.168218173476    12.000000000000
         C            2.451992975879     1.186671704672    -0.283804173476    12.000000000000
         C            2.697855975879    -1.106881295328     0.256889826524    12.000000000000
         C            3.303544975879     0.118252704672    -0.024314173476    12.000000000000
         H           -3.871760024121     0.709913704672     0.068779826524     1.007825032230
         H           -3.507468024121    -2.020513295328    -0.282898173476     1.007825032230
         H            2.837206975879     2.180194704672    -0.508405173476     1.007825032230
         H            3.291514975879    -1.992317295328     0.479658826524     1.007825032230
         H            4.382758975879     0.232826704672    -0.035117173476     1.007825032230
         C           -1.492719024121     2.105357704672     0.300746826524    12.000000000000
         H           -0.795658024121     2.252170704672     1.124960826524     1.007825032230
         H           -1.075028024121     2.561829704672    -0.595462173476     1.007825032230
         H           -2.452515024121     2.562314704672     0.547276826524     1.007825032230

  Basis Set: AUG-CC-PVTZ
    Blend: AUG-CC-PVTZ
  Basis Set: (AUG-CC-PVTZ AUX)
    Blend: AUG-CC-PVTZ-JKFIT
	 Reference Energy          =    -525.5340897189523730 [Eh]
	 Singles Energy            =      -0.0000000000000000 [Eh]
	 Same-Spin Energy          =      -0.5792897249499486 [Eh]
	 Opposite-Spin Energy      =      -1.7437229129147984 [Eh]
	 Correlation Energy        =      -2.3230126378647471 [Eh]
	 Total Energy              =    -527.8571023568171086 [Eh]

	 ================> DF-SCS-MP2 Energies <==================
	-----------------------------------------------------------
	 SCS Same-Spin Scale       =       0.3333333333333333 [-]
	 SCS Opposite-Spin Scale   =       1.2000000000000000 [-]
	 SCS Same-Spin Energy      =      -0.1930965749833162 [Eh]
	 SCS Opposite-Spin Energy  =      -2.0924674954977580 [Eh]
	 SCS Correlation Energy    =      -2.2855640704810742 [Eh]
	 SCS Total Energy          =    -527.8196537894334597 [Eh]
	-----------------------------------------------------------

  Dipole Moment: [D]
     X:     1.8254      Y:     3.9876      Z:     0.5102     Total:     4.4151

*** Psi4 exiting successfully. Buy a developer a beer!
