                               Psi4 1.4a3.dev225

  ==> Input File <==

--------------------------------------------------------------------------
#psi4
#
memory 32 gb

molecule  {
0 1
  N       -1.7314010     0.6447010     0.0841650
  N       -1.4345640    -1.5648400    -0.1846490
  N        1.1113180     1.0210360    -0.2929590
  N        1.3650780    -1.3052570     0.2771500
  C       -0.8211750    -0.3840720    -0.0264870
  C        0.6302560    -0.2085840    -0.0077820
  C       -2.9774260     0.0775420    -0.0074450
  C       -2.7639398    -1.2978642    -0.1764781
  C        2.4478010     1.1517920    -0.2896530
  C        2.6936640    -1.1417610     0.2510410
  C        3.2993530     0.0833730    -0.0301630
  H       -3.8759520     0.6750340     0.0629310
  H       -3.5116600    -2.0553930    -0.2887470
  H        2.8330150     2.1453150    -0.5142540
  H        3.2873230    -2.0271970     0.4738100
  H        4.3785670     0.1979470    -0.0409660
  C       -1.4969110     2.0704780     0.2948980
  H       -0.7998500     2.2172910     1.1191120
  H       -1.0792200     2.5269500    -0.6013110
  H       -2.4567070     2.5274350     0.5414280
units angstrom
no_reorient  #important for SAPT in psi4, default
symmetry c1  #important for SAPT in psi4, default
}

set PROPERTIES_ORIGIN ["COM"]
properties('MP2/aug-cc-pvtz', properties = ['dipole'])
--------------------------------------------------------------------------

    Molecular point group: c1
  Charge       = 0
  Multiplicity = 1
  Basis Set: AUG-CC-PVTZ
    Blend: AUG-CC-PVTZ
  Basis Set: (AUG-CC-PVTZ AUX)
    Blend: AUG-CC-PVTZ-JKFIT

    Orbital Energies [Eh]
    ---------------------

    Doubly Occupied:

       1A    -15.627703     2A    -15.579446     3A    -15.574305
       4A    -15.546782     5A    -11.333078     6A    -11.305486
       7A    -11.302587     8A    -11.294637     9A    -11.273934
      10A    -11.262331    11A    -11.251259    12A    -11.241949
      13A     -1.344542    14A     -1.307611    15A     -1.197753
      16A     -1.179369    17A     -1.088343    18A     -1.005382
      19A     -0.969751    20A     -0.898953    21A     -0.892825
      22A     -0.804183    23A     -0.783776    24A     -0.727040
      25A     -0.702459    26A     -0.685628    27A     -0.646305
      28A     -0.639589    29A     -0.609134    30A     -0.592802
      31A     -0.586032    32A     -0.578772    33A     -0.570833
      34A     -0.560026    35A     -0.543014    36A     -0.480797
      37A     -0.434646    38A     -0.423876    39A     -0.411726
      40A     -0.396295    41A     -0.379315    42A     -0.295490

  @DF-RHF Final Energy:  -525.55693508580896

   => Energetics <=

    Nuclear Repulsion Energy =            653.8837793430029706
    One-Electron Energy =               -2010.2219039836747925
    Two-Electron Energy =                 830.7811895548628627
    Total Energy =                       -525.5569350858089592
  Basis Set: (AUG-CC-PVTZ AUX)
    Blend: AUG-CC-PVTZ-RI
    Molecular point group: c1

    Geometry (in Angstrom), charge = 0, multiplicity = 1:

       Center              X                  Y                   Z               Mass
    ------------   -----------------  -----------------  -----------------  -----------------
         N           -1.739205565639     0.684669425984     0.089008990254    14.003074004430
         N           -1.442368565639    -1.524871574016    -0.179805009746    14.003074004430
         N            1.103513434361     1.061004425984    -0.288115009746    14.003074004430
         N            1.357273434361    -1.265288574016     0.281993990254    14.003074004430
         C           -0.828979565639    -0.344103574016    -0.021643009746    12.000000000000
         C            0.622451434361    -0.168615574016    -0.002938009746    12.000000000000
         C           -2.985230565639     0.117510425984    -0.002601009746    12.000000000000
         C           -2.771744365639    -1.257895774016    -0.171634109746    12.000000000000
         C            2.439996434361     1.191760425984    -0.284809009746    12.000000000000
         C            2.685859434361    -1.101792574016     0.255884990254    12.000000000000
         C            3.291548434361     0.123341425984    -0.025319009746    12.000000000000
         H           -3.883756565639     0.715002425984     0.067774990254     1.007825032230
         H           -3.519464565639    -2.015424574016    -0.283903009746     1.007825032230
         H            2.825210434361     2.185283425984    -0.509410009746     1.007825032230
         H            3.279518434361    -1.987228574016     0.478653990254     1.007825032230
         H            4.370762434361     0.237915425984    -0.036122009746     1.007825032230
         C           -1.504715565639     2.110446425984     0.299741990254    12.000000000000
         H           -0.807654565639     2.257259425984     1.123955990254     1.007825032230
         H           -1.087024565639     2.566918425984    -0.596467009746     1.007825032230
         H           -2.464511565639     2.567403425984     0.546271990254     1.007825032230

  Basis Set: AUG-CC-PVTZ
    Blend: AUG-CC-PVTZ
  Basis Set: (AUG-CC-PVTZ AUX)
    Blend: AUG-CC-PVTZ-JKFIT
	 Reference Energy          =    -525.5569350858089592 [Eh]
	 Singles Energy            =      -0.0000000000000000 [Eh]
	 Same-Spin Energy          =      -0.5782458584193950 [Eh]
	 Opposite-Spin Energy      =      -1.7386685457206308 [Eh]
	 Correlation Energy        =      -2.3169144041400260 [Eh]
	 Total Energy              =    -527.8738494899489524 [Eh]

	 ================> DF-SCS-MP2 Energies <==================
	-----------------------------------------------------------
	 SCS Same-Spin Scale       =       0.3333333333333333 [-]
	 SCS Opposite-Spin Scale   =       1.2000000000000000 [-]
	 SCS Same-Spin Energy      =      -0.1927486194731317 [Eh]
	 SCS Opposite-Spin Energy  =      -2.0864022548647569 [Eh]
	 SCS Correlation Energy    =      -2.2791508743378888 [Eh]
	 SCS Total Energy          =    -527.8360859601468746 [Eh]
	-----------------------------------------------------------

  Dipole Moment: [D]
     X:     1.3587      Y:     4.0937      Z:     0.4778     Total:     4.3397

*** Psi4 exiting successfully. Buy a developer a beer!
