                               Psi4 1.3.2 release

  ==> Input File <==

--------------------------------------------------------------------------
#psi4
#
memory 32 gb

molecule  {
0 1
  N       -1.7314010     0.6447010     0.0841650
  N       -1.4345640    -1.5648400    -0.1846490
  N        1.0892235     1.0288787    -0.2954392
  N        1.3650780    -1.3052570     0.2771500
  C       -0.8211750    -0.3840720    -0.0264870
  C        0.6302560    -0.2085840    -0.0077820
  C       -2.9774260     0.0775420    -0.0074450
  C       -2.7669850    -1.2782450    -0.1740670
  C        2.4478010     1.1517920    -0.2896530
  C        2.6936640    -1.1417610     0.2510410
  C        3.2993530     0.0833730    -0.0301630
  H       -3.8759520     0.6750340     0.0629310
  H       -3.5116600    -2.0553930    -0.2887470
  H        2.8330150     2.1453150    -0.5142540
  H        3.2873230    -2.0271970     0.4738100
  H        4.3785670     0.1979470    -0.0409660
  C       -1.4969110     2.0704780     0.2948980
  H       -0.7998500     2.2172910     1.1191120
  H       -1.0792200     2.5269500    -0.6013110
  H       -2.4567070     2.5274350     0.5414280
units angstrom
no_reorient  #important for SAPT in psi4, default
symmetry c1  #important for SAPT in psi4, default
}

set PROPERTIES_ORIGIN ["COM"]
properties('MP2/aug-cc-pvtz', properties = ['dipole'])
--------------------------------------------------------------------------

    Molecular point group: c1
  Charge       = 0
  Multiplicity = 1
  Basis Set: AUG-CC-PVTZ
    Blend: AUG-CC-PVTZ
  Basis Set: (AUG-CC-PVTZ AUX)
    Blend: AUG-CC-PVTZ-JKFIT

    Orbital Energies [Eh]
    ---------------------

    Doubly Occupied:

       1A    -15.625180     2A    -15.582744     3A    -15.575360
       4A    -15.545839     5A    -11.333161     6A    -11.308654
       7A    -11.304537     8A    -11.294442     9A    -11.272695
      10A    -11.259355    11A    -11.253049    12A    -11.239788
      13A     -1.344142    14A     -1.305691    15A     -1.195815
      16A     -1.177030    17A     -1.089447    18A     -1.007430
      19A     -0.967918    20A     -0.900514    21A     -0.892073
      22A     -0.801809    23A     -0.783103    24A     -0.726377
      25A     -0.700978    26A     -0.685597    27A     -0.645671
      28A     -0.640383    29A     -0.606245    30A     -0.592583
      31A     -0.585953    32A     -0.578633    33A     -0.569251
      34A     -0.555297    35A     -0.542439    36A     -0.481606
      37A     -0.436184    38A     -0.422538    39A     -0.414523
      40A     -0.397344    41A     -0.377639    42A     -0.298429

  @DF-RHF Final Energy:  -525.55616109740356

   => Energetics <=

    Nuclear Repulsion Energy =            653.9061803989687860
    One-Electron Energy =               -2010.2897888810446148
    Two-Electron Energy =                 830.8274473846723822
    Total Energy =                       -525.5561610974035602
  Basis Set: (AUG-CC-PVTZ AUX)
    Blend: AUG-CC-PVTZ-RI
    Molecular point group: c1

    Geometry (in Angstrom), charge = 0, multiplicity = 1:

       Center              X                  Y                   Z               Mass
    ------------   -----------------  -----------------  -----------------  -----------------
         N           -1.737044493999     0.682512608666     0.089045205952    14.003074004430
         N           -1.440207493999    -1.527028391334    -0.179768794048    14.003074004430
         N            1.083580006001     1.066690308666    -0.290558994048    14.003074004430
         N            1.359434506001    -1.267445391334     0.282030205952    14.003074004430
         C           -0.826818493999    -0.346260391334    -0.021606794048    12.000000000000
         C            0.624612506001    -0.170772391334    -0.002901794048    12.000000000000
         C           -2.983069493999     0.115353608666    -0.002564794048    12.000000000000
         C           -2.772628493999    -1.240433391334    -0.169186794048    12.000000000000
         C            2.442157506001     1.189603608666    -0.284772794048    12.000000000000
         C            2.688020506001    -1.103949391334     0.255921205952    12.000000000000
         C            3.293709506001     0.121184608666    -0.025282794048    12.000000000000
         H           -3.881595493999     0.712845608666     0.067811205952     1.007825032230
         H           -3.517303493999    -2.017581391334    -0.283866794048     1.007825032230
         H            2.827371506001     2.183126608666    -0.509373794048     1.007825032230
         H            3.281679506001    -1.989385391334     0.478690205952     1.007825032230
         H            4.372923506001     0.235758608666    -0.036085794048     1.007825032230
         C           -1.502554493999     2.108289608666     0.299778205952    12.000000000000
         H           -0.805493493999     2.255102608666     1.123992205952     1.007825032230
         H           -1.084863493999     2.564761608666    -0.596430794048     1.007825032230
         H           -2.462350493999     2.565246608666     0.546308205952     1.007825032230

  Basis Set: AUG-CC-PVTZ
    Blend: AUG-CC-PVTZ
  Basis Set: (AUG-CC-PVTZ AUX)
    Blend: AUG-CC-PVTZ-JKFIT
	 Reference Energy          =    -525.5561610974035602 [Eh]
	 Singles Energy            =      -0.0000000000000000 [Eh]
	 Same-Spin Energy          =      -0.5781461379794948 [Eh]
	 Opposite-Spin Energy      =      -1.7390628152073939 [Eh]
	 Correlation Energy        =      -2.3172089531868885 [Eh]
	 Total Energy              =    -527.8733700505904380 [Eh]

	 ================> DF-SCS-MP2 Energies <==================
	-----------------------------------------------------------
	 SCS Same-Spin Scale       =       0.3333333333333333 [-]
	 SCS Opposite-Spin Scale   =       1.2000000000000000 [-]
	 SCS Same-Spin Energy      =      -0.1927153793264982 [Eh]
	 SCS Opposite-Spin Energy  =      -2.0868753782488727 [Eh]
	 SCS Correlation Energy    =      -2.2795907575753711 [Eh]
	 SCS Total Energy          =    -527.8357518549789802 [Eh]
	-----------------------------------------------------------

  Dipole Moment: [D]
     X:     1.4691      Y:     4.0858      Z:     0.4855     Total:     4.3689

*** Psi4 exiting successfully. Buy a developer a beer!
