                               Psi4 1.3.2 release

  ==> Input File <==

--------------------------------------------------------------------------
#psi4
#
memory 32 gb

molecule  {
0 1
  N       -1.7314010     0.6447010     0.0841650
  N       -1.4345640    -1.5648400    -0.1846490
  N        1.1113180     1.0210360    -0.2929590
  N        1.3650780    -1.3052570     0.2771500
  C       -0.9057528    -0.3442885    -0.0231337
  C        0.6302560    -0.2085840    -0.0077820
  C       -2.9774260     0.0775420    -0.0074450
  C       -2.7669850    -1.2782450    -0.1740670
  C        2.4478010     1.1517920    -0.2896530
  C        2.6936640    -1.1417610     0.2510410
  C        3.2993530     0.0833730    -0.0301630
  H       -3.8759520     0.6750340     0.0629310
  H       -3.5116600    -2.0553930    -0.2887470
  H        2.8330150     2.1453150    -0.5142540
  H        3.2873230    -2.0271970     0.4738100
  H        4.3785670     0.1979470    -0.0409660
  C       -1.4969110     2.0704780     0.2948980
  H       -0.7998500     2.2172910     1.1191120
  H       -1.0792200     2.5269500    -0.6013110
  H       -2.4567070     2.5274350     0.5414280
units angstrom
no_reorient  #important for SAPT in psi4, default
symmetry c1  #important for SAPT in psi4, default
}

set PROPERTIES_ORIGIN ["COM"]
properties('MP2/aug-cc-pvtz', properties = ['dipole'])
--------------------------------------------------------------------------

    Molecular point group: c1
  Charge       = 0
  Multiplicity = 1
  Basis Set: AUG-CC-PVTZ
    Blend: AUG-CC-PVTZ
  Basis Set: (AUG-CC-PVTZ AUX)
    Blend: AUG-CC-PVTZ-JKFIT

    Orbital Energies [Eh]
    ---------------------

    Doubly Occupied:

       1A    -15.627835     2A    -15.579564     3A    -15.575647
       4A    -15.539194     5A    -11.336639     6A    -11.305404
       7A    -11.303273     8A    -11.295016     9A    -11.279056
      10A    -11.251975    11A    -11.251634    12A    -11.240575
      13A     -1.366007    14A     -1.308799    15A     -1.198197
      16A     -1.183503    17A     -1.083299    18A     -1.005014
      19A     -0.981164    20A     -0.898016    21A     -0.888758
      22A     -0.811039    23A     -0.776174    24A     -0.731723
      25A     -0.701823    26A     -0.686199    27A     -0.657117
      28A     -0.635934    29A     -0.606372    30A     -0.596905
      31A     -0.590928    32A     -0.578896    33A     -0.564757
      34A     -0.551283    35A     -0.546901    36A     -0.475292
      37A     -0.440210    38A     -0.423843    39A     -0.412817
      40A     -0.391321    41A     -0.381814    42A     -0.302067

  @DF-RHF Final Energy:  -525.55071230453245

   => Energetics <=

    Nuclear Repulsion Energy =            654.5466823661141689
    One-Electron Energy =               -2011.4708151385143537
    Two-Electron Energy =                 831.3734204678678452
    Total Energy =                       -525.5507123045324533
  Basis Set: (AUG-CC-PVTZ AUX)
    Blend: AUG-CC-PVTZ-RI
    Molecular point group: c1

    Geometry (in Angstrom), charge = 0, multiplicity = 1:

       Center              X                  Y                   Z               Mass
    ------------   -----------------  -----------------  -----------------  -----------------
         N           -1.732636915435     0.680216307997     0.088576862534    14.003074004430
         N           -1.435799915435    -1.529324692003    -0.180237137466    14.003074004430
         N            1.110082084565     1.056551307997    -0.288547137466    14.003074004430
         N            1.363842084565    -1.269741692003     0.281561862534    14.003074004430
         C           -0.906988715435    -0.308773192003    -0.018721837466    12.000000000000
         C            0.629020084565    -0.173068692003    -0.003370137466    12.000000000000
         C           -2.978661915435     0.113057307997    -0.003033137466    12.000000000000
         C           -2.768220915435    -1.242729692003    -0.169655137466    12.000000000000
         C            2.446565084565     1.187307307997    -0.285241137466    12.000000000000
         C            2.692428084565    -1.106245692003     0.255452862534    12.000000000000
         C            3.298117084565     0.118888307997    -0.025751137466    12.000000000000
         H           -3.877187915435     0.710549307997     0.067342862534     1.007825032230
         H           -3.512895915435    -2.019877692003    -0.284335137466     1.007825032230
         H            2.831779084565     2.180830307997    -0.509842137466     1.007825032230
         H            3.286087084565    -1.991681692003     0.478221862534     1.007825032230
         H            4.377331084565     0.233462307997    -0.036554137466     1.007825032230
         C           -1.498146915435     2.105993307997     0.299309862534    12.000000000000
         H           -0.801085915435     2.252806307997     1.123523862534     1.007825032230
         H           -1.080455915435     2.562465307997    -0.596899137466     1.007825032230
         H           -2.457942915435     2.562950307997     0.545839862534     1.007825032230

  Basis Set: AUG-CC-PVTZ
    Blend: AUG-CC-PVTZ
  Basis Set: (AUG-CC-PVTZ AUX)
    Blend: AUG-CC-PVTZ-JKFIT
	 Reference Energy          =    -525.5507123045324533 [Eh]
	 Singles Energy            =      -0.0000000000000000 [Eh]
	 Same-Spin Energy          =      -0.5764892894711502 [Eh]
	 Opposite-Spin Energy      =      -1.7359688178983084 [Eh]
	 Correlation Energy        =      -2.3124581073694586 [Eh]
	 Total Energy              =    -527.8631704119019332 [Eh]

	 ================> DF-SCS-MP2 Energies <==================
	-----------------------------------------------------------
	 SCS Same-Spin Scale       =       0.3333333333333333 [-]
	 SCS Opposite-Spin Scale   =       1.2000000000000000 [-]
	 SCS Same-Spin Energy      =      -0.1921630964903834 [Eh]
	 SCS Opposite-Spin Energy  =      -2.0831625814779700 [Eh]
	 SCS Correlation Energy    =      -2.2753256779683535 [Eh]
	 SCS Total Energy          =    -527.8260379825007931 [Eh]
	-----------------------------------------------------------

  Dipole Moment: [D]
     X:     1.5228      Y:     4.2554      Z:     0.5067     Total:     4.5480

*** Psi4 exiting successfully. Buy a developer a beer!
