                               Psi4 1.4a3.dev225

  ==> Input File <==

--------------------------------------------------------------------------
#psi4
#
memory 32 gb

molecule  {
0 1
  N       -1.7314010     0.6447010     0.0841650
  N       -1.4345640    -1.5648400    -0.1846490
  N        1.1113180     1.0210360    -0.2929590
  N        1.3650780    -1.3052570     0.2771500
  C       -0.8211750    -0.3840720    -0.0264870
  C        0.6302560    -0.2085840    -0.0077820
  C       -2.9774260     0.0775420    -0.0074450
  C       -2.7669850    -1.2782450    -0.1740670
  C        2.4478010     1.1517920    -0.2896530
  C        2.6936640    -1.1417610     0.2510410
  C        3.2993530     0.0833730    -0.0301630
  H       -3.9174988     0.7026614     0.0661851
  H       -3.5116600    -2.0553930    -0.2887470
  H        2.8330150     2.1453150    -0.5142540
  H        3.2873230    -2.0271970     0.4738100
  H        4.3785670     0.1979470    -0.0409660
  C       -1.4969110     2.0704780     0.2948980
  H       -0.7998500     2.2172910     1.1191120
  H       -1.0792200     2.5269500    -0.6013110
  H       -2.4567070     2.5274350     0.5414280
units angstrom
no_reorient  #important for SAPT in psi4, default
symmetry c1  #important for SAPT in psi4, default
}

set PROPERTIES_ORIGIN ["COM"]
properties('MP2/aug-cc-pvtz', properties = ['dipole'])
--------------------------------------------------------------------------

    Molecular point group: c1
  Charge       = 0
  Multiplicity = 1
  Basis Set: AUG-CC-PVTZ
    Blend: AUG-CC-PVTZ
  Basis Set: (AUG-CC-PVTZ AUX)
    Blend: AUG-CC-PVTZ-JKFIT

    Orbital Energies [Eh]
    ---------------------

    Doubly Occupied:

       1A    -15.626224     2A    -15.580035     3A    -15.574958
       4A    -15.546865     5A    -11.333479     6A    -11.305867
       7A    -11.303010     8A    -11.295651     9A    -11.273307
      10A    -11.265376    11A    -11.251862    12A    -11.240671
      13A     -1.345050    14A     -1.308141    15A     -1.197985
      16A     -1.177979    17A     -1.088926    18A     -1.006698
      19A     -0.968637    20A     -0.899347    21A     -0.893017
      22A     -0.800535    23A     -0.782681    24A     -0.726800
      25A     -0.702520    26A     -0.683701    27A     -0.646339
      28A     -0.636892    29A     -0.605428    30A     -0.593003
      31A     -0.585370    32A     -0.577020    33A     -0.569976
      34A     -0.556363    35A     -0.543392    36A     -0.481188
      37A     -0.436215    38A     -0.424267    39A     -0.412427
      40A     -0.396720    41A     -0.378085    42A     -0.298686

  @DF-RHF Final Energy:  -525.55536225313313

   => Energetics <=

    Nuclear Repulsion Energy =            653.8549696499612764
    One-Electron Energy =               -2010.1792768274099217
    Two-Electron Energy =                 830.7689449243155195
    Total Energy =                       -525.5553622531331257
  Basis Set: (AUG-CC-PVTZ AUX)
    Blend: AUG-CC-PVTZ-RI
    Molecular point group: c1

    Geometry (in Angstrom), charge = 0, multiplicity = 1:

       Center              X                  Y                   Z               Mass
    ------------   -----------------  -----------------  -----------------  -----------------
         N           -1.738715705536     0.683024733460     0.088807754681    14.003074004430
         N           -1.441878705536    -1.526516266540    -0.180006245319    14.003074004430
         N            1.104003294464     1.059359733460    -0.288316245319    14.003074004430
         N            1.357763294464    -1.266933266540     0.281792754681    14.003074004430
         C           -0.828489705536    -0.345748266540    -0.021844245319    12.000000000000
         C            0.622941294464    -0.170260266540    -0.003139245319    12.000000000000
         C           -2.984740705536     0.115865733460    -0.002802245319    12.000000000000
         C           -2.774299705536    -1.239921266540    -0.169424245319    12.000000000000
         C            2.440486294464     1.190115733460    -0.285010245319    12.000000000000
         C            2.686349294464    -1.103437266540     0.255683754681    12.000000000000
         C            3.292038294464     0.121696733460    -0.025520245319    12.000000000000
         H           -3.924813505536     0.740985133460     0.070827854681     1.007825032230
         H           -3.518974705536    -2.017069266540    -0.284104245319     1.007825032230
         H            2.825700294464     2.183638733460    -0.509611245319     1.007825032230
         H            3.280008294464    -1.988873266540     0.478452754681     1.007825032230
         H            4.371252294464     0.236270733460    -0.036323245319     1.007825032230
         C           -1.504225705536     2.108801733460     0.299540754681    12.000000000000
         H           -0.807164705536     2.255614733460     1.123754754681     1.007825032230
         H           -1.086534705536     2.565273733460    -0.596668245319     1.007825032230
         H           -2.464021705536     2.565758733460     0.546070754681     1.007825032230

  Basis Set: AUG-CC-PVTZ
    Blend: AUG-CC-PVTZ
  Basis Set: (AUG-CC-PVTZ AUX)
    Blend: AUG-CC-PVTZ-JKFIT
	 Reference Energy          =    -525.5553622531331257 [Eh]
	 Singles Energy            =      -0.0000000000000000 [Eh]
	 Same-Spin Energy          =      -0.5781125578725024 [Eh]
	 Opposite-Spin Energy      =      -1.7387784486400082 [Eh]
	 Correlation Energy        =      -2.3168910065125106 [Eh]
	 Total Energy              =    -527.8722532596456176 [Eh]

	 ================> DF-SCS-MP2 Energies <==================
	-----------------------------------------------------------
	 SCS Same-Spin Scale       =       0.3333333333333333 [-]
	 SCS Opposite-Spin Scale   =       1.2000000000000000 [-]
	 SCS Same-Spin Energy      =      -0.1927041859575008 [Eh]
	 SCS Opposite-Spin Energy  =      -2.0865341383680098 [Eh]
	 SCS Correlation Energy    =      -2.2792383243255108 [Eh]
	 SCS Total Energy          =    -527.8346005774586729 [Eh]
	-----------------------------------------------------------

  Dipole Moment: [D]
     X:     1.3944      Y:     4.1066      Z:     0.4793     Total:     4.3633

*** Psi4 exiting successfully. Buy a developer a beer!
