                               Psi4 1.3.2 release

  ==> Input File <==

--------------------------------------------------------------------------
#psi4
#
memory 32 gb

molecule  {
0 1
  N       -1.6781977     0.5124261     0.0668627
  N       -1.4345640    -1.5648400    -0.1846490
  N        1.1113180     1.0210360    -0.2929590
  N        1.3650780    -1.3052570     0.2771500
  C       -0.8211750    -0.3840720    -0.0264870
  C        0.6302560    -0.2085840    -0.0077820
  C       -2.9774260     0.0775420    -0.0074450
  C       -2.7669850    -1.2782450    -0.1740670
  C        2.4478010     1.1517920    -0.2896530
  C        2.6936640    -1.1417610     0.2510410
  C        3.2993530     0.0833730    -0.0301630
  H       -3.8759520     0.6750340     0.0629310
  H       -3.5116600    -2.0553930    -0.2887470
  H        2.8330150     2.1453150    -0.5142540
  H        3.2873230    -2.0271970     0.4738100
  H        4.3785670     0.1979470    -0.0409660
  C       -1.4969110     2.0704780     0.2948980
  H       -0.7998500     2.2172910     1.1191120
  H       -1.0792200     2.5269500    -0.6013110
  H       -2.4567070     2.5274350     0.5414280
units angstrom
no_reorient  #important for SAPT in psi4, default
symmetry c1  #important for SAPT in psi4, default
}

set PROPERTIES_ORIGIN ["COM"]
properties('MP2/aug-cc-pvtz', properties = ['dipole'])
--------------------------------------------------------------------------

    Molecular point group: c1
  Charge       = 0
  Multiplicity = 1
  Basis Set: AUG-CC-PVTZ
    Blend: AUG-CC-PVTZ
  Basis Set: (AUG-CC-PVTZ AUX)
    Blend: AUG-CC-PVTZ-JKFIT

    Orbital Energies [Eh]
    ---------------------

    Doubly Occupied:

       1A    -15.624906     2A    -15.581969     3A    -15.576363
       4A    -15.526363     5A    -11.334240     6A    -11.307079
       7A    -11.303857     8A    -11.286126     9A    -11.280559
      10A    -11.253508    11A    -11.248249    12A    -11.237368
      13A     -1.372275    14A     -1.311313    15A     -1.198043
      16A     -1.155798    17A     -1.091392    18A     -1.017033
      19A     -0.967505    20A     -0.900815    21A     -0.899990
      22A     -0.807570    23A     -0.781178    24A     -0.723519
      25A     -0.703673    26A     -0.687981    27A     -0.650428
      28A     -0.644040    29A     -0.606818    30A     -0.600437
      31A     -0.591023    32A     -0.580703    33A     -0.559704
      34A     -0.557402    35A     -0.534847    36A     -0.483100
      37A     -0.427203    38A     -0.424301    39A     -0.408992
      40A     -0.393266    41A     -0.375660    42A     -0.303116

  @DF-RHF Final Energy:  -525.53188165479253

   => Energetics <=

    Nuclear Repulsion Energy =            656.4641746223189784
    One-Electron Energy =               -2015.3526820708332252
    Two-Electron Energy =                 833.3566257937217188
    Total Energy =                       -525.5318816547925280
  Basis Set: (AUG-CC-PVTZ AUX)
    Blend: AUG-CC-PVTZ-RI
    Molecular point group: c1

    Geometry (in Angstrom), charge = 0, multiplicity = 1:

       Center              X                  Y                   Z               Mass
    ------------   -----------------  -----------------  -----------------  -----------------
         N           -1.690428114811     0.562494953042     0.073039517526    14.003074004430
         N           -1.446794414811    -1.514771146958    -0.178472182474    14.003074004430
         N            1.099087585189     1.071104853042    -0.286782182474    14.003074004430
         N            1.352847585189    -1.255188146958     0.283326817526    14.003074004430
         C           -0.833405414811    -0.334003146958    -0.020310182474    12.000000000000
         C            0.618025585189    -0.158515146958    -0.001605182474    12.000000000000
         C           -2.989656414811     0.127610853042    -0.001268182474    12.000000000000
         C           -2.779215414811    -1.228176146958    -0.167890182474    12.000000000000
         C            2.435570585189     1.201860853042    -0.283476182474    12.000000000000
         C            2.681433585189    -1.091692146958     0.257217817526    12.000000000000
         C            3.287122585189     0.133441853042    -0.023986182474    12.000000000000
         H           -3.888182414811     0.725102853042     0.069107817526     1.007825032230
         H           -3.523890414811    -2.005324146958    -0.282570182474     1.007825032230
         H            2.820784585189     2.195383853042    -0.508077182474     1.007825032230
         H            3.275092585189    -1.977128146958     0.479986817526     1.007825032230
         H            4.366336585189     0.248015853042    -0.034789182474     1.007825032230
         C           -1.509141414811     2.120546853042     0.301074817526    12.000000000000
         H           -0.812080414811     2.267359853042     1.125288817526     1.007825032230
         H           -1.091450414811     2.577018853042    -0.595134182474     1.007825032230
         H           -2.468937414811     2.577503853042     0.547604817526     1.007825032230

  Basis Set: AUG-CC-PVTZ
    Blend: AUG-CC-PVTZ
  Basis Set: (AUG-CC-PVTZ AUX)
    Blend: AUG-CC-PVTZ-JKFIT
	 Reference Energy          =    -525.5318816547925280 [Eh]
	 Singles Energy            =      -0.0000000000000000 [Eh]
	 Same-Spin Energy          =      -0.5775176755751349 [Eh]
	 Opposite-Spin Energy      =      -1.7373973542071135 [Eh]
	 Correlation Energy        =      -2.3149150297822483 [Eh]
	 Total Energy              =    -527.8467966845747696 [Eh]

	 ================> DF-SCS-MP2 Energies <==================
	-----------------------------------------------------------
	 SCS Same-Spin Scale       =       0.3333333333333333 [-]
	 SCS Opposite-Spin Scale   =       1.2000000000000000 [-]
	 SCS Same-Spin Energy      =      -0.1925058918583783 [Eh]
	 SCS Opposite-Spin Energy  =      -2.0848768250485361 [Eh]
	 SCS Correlation Energy    =      -2.2773827169069145 [Eh]
	 SCS Total Energy          =    -527.8092643716994417 [Eh]
	-----------------------------------------------------------

  Dipole Moment: [D]
     X:     1.5444      Y:     4.4709      Z:     0.5325     Total:     4.7600

*** Psi4 exiting successfully. Buy a developer a beer!
