                               Psi4 1.4a3.dev225

  ==> Input File <==

--------------------------------------------------------------------------
#psi4
#
memory 32 gb

molecule  {
0 1
  N       -1.7314010     0.6447010     0.0841650
  N       -1.4345640    -1.5648400    -0.1846490
  N        1.1113180     1.0210360    -0.2929590
  N        1.3650780    -1.3052570     0.2771500
  C       -0.8211750    -0.3840720    -0.0264870
  C        0.6302560    -0.2085840    -0.0077820
  C       -2.9774260     0.0775420    -0.0074450
  C       -2.7745981    -1.2291970    -0.1680392
  C        2.4478010     1.1517920    -0.2896530
  C        2.6936640    -1.1417610     0.2510410
  C        3.2993530     0.0833730    -0.0301630
  H       -3.8759520     0.6750340     0.0629310
  H       -3.5116600    -2.0553930    -0.2887470
  H        2.8330150     2.1453150    -0.5142540
  H        3.2873230    -2.0271970     0.4738100
  H        4.3785670     0.1979470    -0.0409660
  C       -1.4969110     2.0704780     0.2948980
  H       -0.7998500     2.2172910     1.1191120
  H       -1.0792200     2.5269500    -0.6013110
  H       -2.4567070     2.5274350     0.5414280
units angstrom
no_reorient  #important for SAPT in psi4, default
symmetry c1  #important for SAPT in psi4, default
}

set PROPERTIES_ORIGIN ["COM"]
properties('MP2/aug-cc-pvtz', properties = ['dipole'])
--------------------------------------------------------------------------

    Molecular point group: c1
  Charge       = 0
  Multiplicity = 1
  Basis Set: AUG-CC-PVTZ
    Blend: AUG-CC-PVTZ
  Basis Set: (AUG-CC-PVTZ AUX)
    Blend: AUG-CC-PVTZ-JKFIT

    Orbital Energies [Eh]
    ---------------------

    Doubly Occupied:

       1A    -15.621087     2A    -15.581280     3A    -15.576293
       4A    -15.546095     5A    -11.334082     6A    -11.306620
       7A    -11.303832     8A    -11.297349     9A    -11.272022
      10A    -11.253521    11A    -11.253155    12A    -11.236402
      13A     -1.345609    14A     -1.309172    15A     -1.198462
      16A     -1.173767    17A     -1.090507    18A     -1.015069
      19A     -0.965565    20A     -0.900113    21A     -0.896722
      22A     -0.798805    23A     -0.785540    24A     -0.726206
      25A     -0.703281    26A     -0.686348    27A     -0.646198
      28A     -0.640385    29A     -0.604860    30A     -0.593056
      31A     -0.589160    32A     -0.580638    33A     -0.568416
      34A     -0.544149    35A     -0.543409    36A     -0.481885
      37A     -0.439775    38A     -0.425004    39A     -0.413872
      40A     -0.397862    41A     -0.374064    42A     -0.306737

  @DF-RHF Final Energy:  -525.55569254869442

   => Energetics <=

    Nuclear Repulsion Energy =            654.7213364190827178
    One-Electron Energy =               -2011.9013119054079652
    Two-Electron Energy =                 831.6242829376308237
    Total Energy =                       -525.5556925486944237
  Basis Set: (AUG-CC-PVTZ AUX)
    Blend: AUG-CC-PVTZ-RI
    Molecular point group: c1

    Geometry (in Angstrom), charge = 0, multiplicity = 1:

       Center              X                  Y                   Z               Mass
    ------------   -----------------  -----------------  -----------------  -----------------
         N           -1.738406567151     0.679521795599     0.088376368885    14.003074004430
         N           -1.441569567151    -1.530019204401    -0.180437631115    14.003074004430
         N            1.104312432849     1.055856795599    -0.288747631115    14.003074004430
         N            1.358072432849    -1.270436204401     0.281361368885    14.003074004430
         C           -0.828180567151    -0.349251204401    -0.022275631115    12.000000000000
         C            0.623250432849    -0.173763204401    -0.003570631115    12.000000000000
         C           -2.984431567151     0.112362795599    -0.003233631115    12.000000000000
         C           -2.781603667151    -1.194376204401    -0.163827831115    12.000000000000
         C            2.440795432849     1.186612795599    -0.285441631115    12.000000000000
         C            2.686658432849    -1.106940204401     0.255252368885    12.000000000000
         C            3.292347432849     0.118193795599    -0.025951631115    12.000000000000
         H           -3.882957567151     0.709854795599     0.067142368885     1.007825032230
         H           -3.518665567151    -2.020572204401    -0.284535631115     1.007825032230
         H            2.826009432849     2.180135795599    -0.510042631115     1.007825032230
         H            3.280317432849    -1.992376204401     0.478021368885     1.007825032230
         H            4.371561432849     0.232767795599    -0.036754631115     1.007825032230
         C           -1.503916567151     2.105298795599     0.299109368885    12.000000000000
         H           -0.806855567151     2.252111795599     1.123323368885     1.007825032230
         H           -1.086225567151     2.561770795599    -0.597099631115     1.007825032230
         H           -2.463712567151     2.562255795599     0.545639368885     1.007825032230

  Basis Set: AUG-CC-PVTZ
    Blend: AUG-CC-PVTZ
  Basis Set: (AUG-CC-PVTZ AUX)
    Blend: AUG-CC-PVTZ-JKFIT
	 Reference Energy          =    -525.5556925486944237 [Eh]
	 Singles Energy            =      -0.0000000000000000 [Eh]
	 Same-Spin Energy          =      -0.5773136724558524 [Eh]
	 Opposite-Spin Energy      =      -1.7376543734819405 [Eh]
	 Correlation Energy        =      -2.3149680459377930 [Eh]
	 Total Energy              =    -527.8706605946322270 [Eh]

	 ================> DF-SCS-MP2 Energies <==================
	-----------------------------------------------------------
	 SCS Same-Spin Scale       =       0.3333333333333333 [-]
	 SCS Opposite-Spin Scale   =       1.2000000000000000 [-]
	 SCS Same-Spin Energy      =      -0.1924378908186175 [Eh]
	 SCS Opposite-Spin Energy  =      -2.0851852481783286 [Eh]
	 SCS Correlation Energy    =      -2.2776231389969461 [Eh]
	 SCS Total Energy          =    -527.8333156876914245 [Eh]
	-----------------------------------------------------------

  Dipole Moment: [D]
     X:     1.4803      Y:     4.1378      Z:     0.4836     Total:     4.4212

*** Psi4 exiting successfully. Buy a developer a beer!
