                               Psi4 1.4a3.dev225

  ==> Input File <==

--------------------------------------------------------------------------
#psi4
#
memory 32 gb

molecule  {
0 1
  N       -1.7314010     0.6447010     0.0841650
  N       -1.4345640    -1.5648400    -0.1846490
  N        1.1113180     1.0210360    -0.2929590
  N        1.3650780    -1.3052570     0.2771500
  C       -0.8211750    -0.3840720    -0.0264870
  C        0.6302560    -0.2085840    -0.0077820
  C       -2.9774260     0.0775420    -0.0074450
  C       -2.7669850    -1.2782450    -0.1740670
  C        2.4975633     1.1566605    -0.2895299
  C        2.6936640    -1.1417610     0.2510410
  C        3.2993530     0.0833730    -0.0301630
  H       -3.8759520     0.6750340     0.0629310
  H       -3.5116600    -2.0553930    -0.2887470
  H        2.8330150     2.1453150    -0.5142540
  H        3.2873230    -2.0271970     0.4738100
  H        4.3785670     0.1979470    -0.0409660
  C       -1.4969110     2.0704780     0.2948980
  H       -0.7998500     2.2172910     1.1191120
  H       -1.0792200     2.5269500    -0.6013110
  H       -2.4567070     2.5274350     0.5414280
units angstrom
no_reorient  #important for SAPT in psi4, default
symmetry c1  #important for SAPT in psi4, default
}

set PROPERTIES_ORIGIN ["COM"]
properties('MP2/aug-cc-pvtz', properties = ['dipole'])
--------------------------------------------------------------------------

    Molecular point group: c1
  Charge       = 0
  Multiplicity = 1
  Basis Set: AUG-CC-PVTZ
    Blend: AUG-CC-PVTZ
  Basis Set: (AUG-CC-PVTZ AUX)
    Blend: AUG-CC-PVTZ-JKFIT

    Orbital Energies [Eh]
    ---------------------

    Doubly Occupied:

       1A    -15.624916     2A    -15.581272     3A    -15.575642
       4A    -15.545833     5A    -11.331899     6A    -11.305791
       7A    -11.305239     8A    -11.294800     9A    -11.272362
      10A    -11.259111    11A    -11.251436    12A    -11.239632
      13A     -1.343409    14A     -1.302394    15A     -1.189856
      16A     -1.175570    17A     -1.093340    18A     -1.007741
      19A     -0.967464    20A     -0.904120    21A     -0.889732
      22A     -0.801932    23A     -0.784398    24A     -0.727112
      25A     -0.699723    26A     -0.686828    27A     -0.645182
      28A     -0.638563    29A     -0.609858    30A     -0.593998
      31A     -0.586029    32A     -0.577404    33A     -0.570394
      34A     -0.555079    35A     -0.541958    36A     -0.477276
      37A     -0.436043    38A     -0.417643    39A     -0.413550
      40A     -0.400388    41A     -0.378050    42A     -0.298854

  @DF-RHF Final Energy:  -525.55350209355572

   => Energetics <=

    Nuclear Repulsion Energy =            653.3373974669777908
    One-Electron Energy =               -2009.1781528532405900
    Two-Electron Energy =                 830.2872532927070779
    Total Energy =                       -525.5535020935557213
  Basis Set: (AUG-CC-PVTZ AUX)
    Blend: AUG-CC-PVTZ-RI
    Molecular point group: c1

    Geometry (in Angstrom), charge = 0, multiplicity = 1:

       Center              X                  Y                   Z               Mass
    ------------   -----------------  -----------------  -----------------  -----------------
         N           -1.742707708779     0.682833707787     0.088819014182    14.003074004430
         N           -1.445870708779    -1.526707292213    -0.179994985818    14.003074004430
         N            1.100011291221     1.059168707787    -0.288304985818    14.003074004430
         N            1.353771291221    -1.267124292213     0.281804014182    14.003074004430
         C           -0.832481708779    -0.345939292213    -0.021832985818    12.000000000000
         C            0.618949291221    -0.170451292213    -0.003127985818    12.000000000000
         C           -2.988732708779     0.115674707787    -0.002790985818    12.000000000000
         C           -2.778291708779    -1.240112292213    -0.169412985818    12.000000000000
         C            2.486256591221     1.194793207787    -0.284875885818    12.000000000000
         C            2.682357291221    -1.103628292213     0.255695014182    12.000000000000
         C            3.288046291221     0.121505707787    -0.025508985818    12.000000000000
         H           -3.887258708779     0.713166707787     0.067585014182     1.007825032230
         H           -3.522966708779    -2.017260292213    -0.284092985818     1.007825032230
         H            2.821708291221     2.183447707787    -0.509599985818     1.007825032230
         H            3.276016291221    -1.989064292213     0.478464014182     1.007825032230
         H            4.367260291221     0.236079707787    -0.036311985818     1.007825032230
         C           -1.508217708779     2.108610707787     0.299552014182    12.000000000000
         H           -0.811156708779     2.255423707787     1.123766014182     1.007825032230
         H           -1.090526708779     2.565082707787    -0.596656985818     1.007825032230
         H           -2.468013708779     2.565567707787     0.546082014182     1.007825032230

  Basis Set: AUG-CC-PVTZ
    Blend: AUG-CC-PVTZ
  Basis Set: (AUG-CC-PVTZ AUX)
    Blend: AUG-CC-PVTZ-JKFIT
	 Reference Energy          =    -525.5535020935557213 [Eh]
	 Singles Energy            =      -0.0000000000000000 [Eh]
	 Same-Spin Energy          =      -0.5781901752688157 [Eh]
	 Opposite-Spin Energy      =      -1.7394459296121281 [Eh]
	 Correlation Energy        =      -2.3176361048809437 [Eh]
	 Total Energy              =    -527.8711381984367108 [Eh]

	 ================> DF-SCS-MP2 Energies <==================
	-----------------------------------------------------------
	 SCS Same-Spin Scale       =       0.3333333333333333 [-]
	 SCS Opposite-Spin Scale   =       1.2000000000000000 [-]
	 SCS Same-Spin Energy      =      -0.1927300584229386 [Eh]
	 SCS Opposite-Spin Energy  =      -2.0873351155345534 [Eh]
	 SCS Correlation Energy    =      -2.2800651739574920 [Eh]
	 SCS Total Energy          =    -527.8335672675132173 [Eh]
	-----------------------------------------------------------

  Dipole Moment: [D]
     X:     1.4764      Y:     4.0958      Z:     0.4845     Total:     4.3807

*** Psi4 exiting successfully. Buy a developer a beer!
