                               Psi4 1.3.2 release

  ==> Input File <==

--------------------------------------------------------------------------
#psi4
#
memory 32 gb

molecule  {
0 1
  N       -1.7744964     0.7295189     0.0951535
  N       -1.4345640    -1.5648400    -0.1846490
  N        1.1113180     1.0210360    -0.2929590
  N        1.3650780    -1.3052570     0.2771500
  C       -0.8211750    -0.3840720    -0.0264870
  C        0.6302560    -0.2085840    -0.0077820
  C       -2.9774260     0.0775420    -0.0074450
  C       -2.7669850    -1.2782450    -0.1740670
  C        2.4478010     1.1517920    -0.2896530
  C        2.6936640    -1.1417610     0.2510410
  C        3.2993530     0.0833730    -0.0301630
  H       -3.8759520     0.6750340     0.0629310
  H       -3.5116600    -2.0553930    -0.2887470
  H        2.8330150     2.1453150    -0.5142540
  H        3.2873230    -2.0271970     0.4738100
  H        4.3785670     0.1979470    -0.0409660
  C       -1.4969110     2.0704780     0.2948980
  H       -0.7998500     2.2172910     1.1191120
  H       -1.0792200     2.5269500    -0.6013110
  H       -2.4567070     2.5274350     0.5414280
units angstrom
no_reorient  #important for SAPT in psi4, default
symmetry c1  #important for SAPT in psi4, default
}

set PROPERTIES_ORIGIN ["COM"]
properties('MP2/aug-cc-pvtz', properties = ['dipole'])
--------------------------------------------------------------------------

    Molecular point group: c1
  Charge       = 0
  Multiplicity = 1
  Basis Set: AUG-CC-PVTZ
    Blend: AUG-CC-PVTZ
  Basis Set: (AUG-CC-PVTZ AUX)
    Blend: AUG-CC-PVTZ-JKFIT

    Orbital Energies [Eh]
    ---------------------

    Doubly Occupied:

       1A    -15.624723     2A    -15.579158     3A    -15.574479
       4A    -15.559161     5A    -11.333431     6A    -11.305292
       7A    -11.303480     8A    -11.302707     9A    -11.268290
      10A    -11.265036    11A    -11.251159    12A    -11.242393
      13A     -1.335180    14A     -1.306363    15A     -1.202596
      16A     -1.189938    17A     -1.087993    18A     -1.010848
      19A     -0.965910    20A     -0.898973    21A     -0.889587
      22A     -0.797838    23A     -0.786952    24A     -0.728643
      25A     -0.702462    26A     -0.685355    27A     -0.648111
      28A     -0.640842    29A     -0.608454    30A     -0.603859
      31A     -0.590791    32A     -0.578896    33A     -0.563726
      34A     -0.550509    35A     -0.535844    36A     -0.478979
      37A     -0.442015    38A     -0.423950    39A     -0.412869
      40A     -0.400159    41A     -0.377540    42A     -0.294951

  @DF-RHF Final Energy:  -525.54255742531745

   => Energetics <=

    Nuclear Repulsion Energy =            652.7597549611874683
    One-Electron Energy =               -2007.9057334184217325
    Two-Electron Energy =                 829.6034210319169233
    Total Energy =                       -525.5425574253174545
  Basis Set: (AUG-CC-PVTZ AUX)
    Blend: AUG-CC-PVTZ-RI
    Molecular point group: c1

    Geometry (in Angstrom), charge = 0, multiplicity = 1:

       Center              X                  Y                   Z               Mass
    ------------   -----------------  -----------------  -----------------  -----------------
         N           -1.778302771728     0.760596851814     0.098855487461    14.003074004430
         N           -1.438370371728    -1.533762048186    -0.180947012539    14.003074004430
         N            1.107511628272     1.052113951814    -0.289257012539    14.003074004430
         N            1.361271628272    -1.274179048186     0.280851987461    14.003074004430
         C           -0.824981371728    -0.352994048186    -0.022785012539    12.000000000000
         C            0.626449628272    -0.177506048186    -0.004080012539    12.000000000000
         C           -2.981232371728     0.108619951814    -0.003743012539    12.000000000000
         C           -2.770791371728    -1.247167048186    -0.170365012539    12.000000000000
         C            2.443994628272     1.182869951814    -0.285951012539    12.000000000000
         C            2.689857628272    -1.110683048186     0.254742987461    12.000000000000
         C            3.295546628272     0.114450951814    -0.026461012539    12.000000000000
         H           -3.879758371728     0.706111951814     0.066632987461     1.007825032230
         H           -3.515466371728    -2.024315048186    -0.285045012539     1.007825032230
         H            2.829208628272     2.176392951814    -0.510552012539     1.007825032230
         H            3.283516628272    -1.996119048186     0.477511987461     1.007825032230
         H            4.374760628272     0.229024951814    -0.037264012539     1.007825032230
         C           -1.500717371728     2.101555951814     0.298599987461    12.000000000000
         H           -0.803656371728     2.248368951814     1.122813987461     1.007825032230
         H           -1.083026371728     2.558027951814    -0.597609012539     1.007825032230
         H           -2.460513371728     2.558512951814     0.545129987461     1.007825032230

  Basis Set: AUG-CC-PVTZ
    Blend: AUG-CC-PVTZ
  Basis Set: (AUG-CC-PVTZ AUX)
    Blend: AUG-CC-PVTZ-JKFIT
	 Reference Energy          =    -525.5425574253174545 [Eh]
	 Singles Energy            =      -0.0000000000000000 [Eh]
	 Same-Spin Energy          =      -0.5791535370028935 [Eh]
	 Opposite-Spin Energy      =      -1.7407718219571164 [Eh]
	 Correlation Energy        =      -2.3199253589600097 [Eh]
	 Total Energy              =    -527.8624827842775176 [Eh]

	 ================> DF-SCS-MP2 Energies <==================
	-----------------------------------------------------------
	 SCS Same-Spin Scale       =       0.3333333333333333 [-]
	 SCS Opposite-Spin Scale   =       1.2000000000000000 [-]
	 SCS Same-Spin Energy      =      -0.1930511790009645 [Eh]
	 SCS Opposite-Spin Energy  =      -2.0889261863485395 [Eh]
	 SCS Correlation Energy    =      -2.2819773653495039 [Eh]
	 SCS Total Energy          =    -527.8245347906669167 [Eh]
	-----------------------------------------------------------

  Dipole Moment: [D]
     X:     1.3696      Y:     3.8475      Z:     0.4434     Total:     4.1080

*** Psi4 exiting successfully. Buy a developer a beer!
