                               Psi4 1.3.2 release

  ==> Input File <==

--------------------------------------------------------------------------
#psi4
#
memory 32 gb

molecule  {
0 1
  N       -1.7314010     0.6447010     0.0841650
  N       -1.4577337    -1.6563286    -0.1966076
  N        1.1113180     1.0210360    -0.2929590
  N        1.3650780    -1.3052570     0.2771500
  C       -0.8211750    -0.3840720    -0.0264870
  C        0.6302560    -0.2085840    -0.0077820
  C       -2.9774260     0.0775420    -0.0074450
  C       -2.7669850    -1.2782450    -0.1740670
  C        2.4478010     1.1517920    -0.2896530
  C        2.6936640    -1.1417610     0.2510410
  C        3.2993530     0.0833730    -0.0301630
  H       -3.8759520     0.6750340     0.0629310
  H       -3.5116600    -2.0553930    -0.2887470
  H        2.8330150     2.1453150    -0.5142540
  H        3.2873230    -2.0271970     0.4738100
  H        4.3785670     0.1979470    -0.0409660
  C       -1.4969110     2.0704780     0.2948980
  H       -0.7998500     2.2172910     1.1191120
  H       -1.0792200     2.5269500    -0.6013110
  H       -2.4567070     2.5274350     0.5414280
units angstrom
no_reorient  #important for SAPT in psi4, default
symmetry c1  #important for SAPT in psi4, default
}

set PROPERTIES_ORIGIN ["COM"]
properties('MP2/aug-cc-pvtz', properties = ['dipole'])
--------------------------------------------------------------------------

    Molecular point group: c1
  Charge       = 0
  Multiplicity = 1
  Basis Set: AUG-CC-PVTZ
    Blend: AUG-CC-PVTZ
  Basis Set: (AUG-CC-PVTZ AUX)
    Blend: AUG-CC-PVTZ-JKFIT

    Orbital Energies [Eh]
    ---------------------

    Doubly Occupied:

       1A    -15.636999     2A    -15.579922     3A    -15.574635
       4A    -15.559791     5A    -11.334085     6A    -11.305918
       7A    -11.305415     8A    -11.302885     9A    -11.277797
      10A    -11.258920    11A    -11.251534    12A    -11.242862
      13A     -1.338729    14A     -1.307358    15A     -1.196837
      16A     -1.170670    17A     -1.088693    18A     -1.003305
      19A     -0.975435    20A     -0.899006    21A     -0.892861
      22A     -0.797980    23A     -0.783152    24A     -0.729181
      25A     -0.702662    26A     -0.684525    27A     -0.647231
      28A     -0.639697    29A     -0.606278    30A     -0.594517
      31A     -0.588040    32A     -0.579927    33A     -0.567934
      34A     -0.543746    35A     -0.540110    36A     -0.481444
      37A     -0.444166    38A     -0.424463    39A     -0.413701
      40A     -0.394626    41A     -0.380703    42A     -0.292156

  @DF-RHF Final Energy:  -525.54174883952851

   => Energetics <=

    Nuclear Repulsion Energy =            651.5031063276246641
    One-Electron Energy =               -2005.4099195460034935
    Two-Electron Energy =                 828.3650643788503203
    Total Energy =                       -525.5417488395285091
  Basis Set: (AUG-CC-PVTZ AUX)
    Blend: AUG-CC-PVTZ-RI
    Molecular point group: c1

    Geometry (in Angstrom), charge = 0, multiplicity = 1:

       Center              X                  Y                   Z               Mass
    ------------   -----------------  -----------------  -----------------  -----------------
         N           -1.736950437370     0.691201938331     0.089874359928    14.003074004430
         N           -1.463283137370    -1.609827661669    -0.190898240072    14.003074004430
         N            1.105768562630     1.067536938331    -0.287249640072    14.003074004430
         N            1.359528562630    -1.258756061669     0.282859359928    14.003074004430
         C           -0.826724437370    -0.337571061669    -0.020777640072    12.000000000000
         C            0.624706562630    -0.162083061669    -0.002072640072    12.000000000000
         C           -2.982975437370     0.124042938331    -0.001735640072    12.000000000000
         C           -2.772534437370    -1.231744061669    -0.168357640072    12.000000000000
         C            2.442251562630     1.198292938331    -0.283943640072    12.000000000000
         C            2.688114562630    -1.095260061669     0.256750359928    12.000000000000
         C            3.293803562630     0.129873938331    -0.024453640072    12.000000000000
         H           -3.881501437370     0.721534938331     0.068640359928     1.007825032230
         H           -3.517209437370    -2.008892061669    -0.283037640072     1.007825032230
         H            2.827465562630     2.191815938331    -0.508544640072     1.007825032230
         H            3.281773562630    -1.980696061669     0.479519359928     1.007825032230
         H            4.373017562630     0.244447938331    -0.035256640072     1.007825032230
         C           -1.502460437370     2.116978938331     0.300607359928    12.000000000000
         H           -0.805399437370     2.263791938331     1.124821359928     1.007825032230
         H           -1.084769437370     2.573450938331    -0.595601640072     1.007825032230
         H           -2.462256437370     2.573935938331     0.547137359928     1.007825032230

  Basis Set: AUG-CC-PVTZ
    Blend: AUG-CC-PVTZ
  Basis Set: (AUG-CC-PVTZ AUX)
    Blend: AUG-CC-PVTZ-JKFIT
	 Reference Energy          =    -525.5417488395285091 [Eh]
	 Singles Energy            =      -0.0000000000000000 [Eh]
	 Same-Spin Energy          =      -0.5802996021112247 [Eh]
	 Opposite-Spin Energy      =      -1.7434439691082131 [Eh]
	 Correlation Energy        =      -2.3237435712194379 [Eh]
	 Total Energy              =    -527.8654924107479474 [Eh]

	 ================> DF-SCS-MP2 Energies <==================
	-----------------------------------------------------------
	 SCS Same-Spin Scale       =       0.3333333333333333 [-]
	 SCS Opposite-Spin Scale   =       1.2000000000000000 [-]
	 SCS Same-Spin Energy      =      -0.1934332007037415 [Eh]
	 SCS Opposite-Spin Energy  =      -2.0921327629298556 [Eh]
	 SCS Correlation Energy    =      -2.2855659636335970 [Eh]
	 SCS Total Energy          =    -527.8273148031621531 [Eh]
	-----------------------------------------------------------

  Dipole Moment: [D]
     X:     1.2675      Y:     4.3112      Z:     0.5081     Total:     4.5223

*** Psi4 exiting successfully. Buy a developer a beer!
