                               Psi4 1.3.2 release

  ==> Input File <==

--------------------------------------------------------------------------
#psi4
#
memory 32 gb

molecule  {
0 1
  N       -1.7314010     0.6447010     0.0841650
  N       -1.4345640    -1.5648400    -0.1846490
  N        1.1113180     1.0210360    -0.2929590
  N        1.3650780    -1.3052570     0.2771500
  C       -0.8211750    -0.3840720    -0.0264870
  C        0.6302560    -0.2085840    -0.0077820
  C       -2.8866140     0.1188773    -0.0007683
  C       -2.7669850    -1.2782450    -0.1740670
  C        2.4478010     1.1517920    -0.2896530
  C        2.6936640    -1.1417610     0.2510410
  C        3.2993530     0.0833730    -0.0301630
  H       -3.8759520     0.6750340     0.0629310
  H       -3.5116600    -2.0553930    -0.2887470
  H        2.8330150     2.1453150    -0.5142540
  H        3.2873230    -2.0271970     0.4738100
  H        4.3785670     0.1979470    -0.0409660
  C       -1.4969110     2.0704780     0.2948980
  H       -0.7998500     2.2172910     1.1191120
  H       -1.0792200     2.5269500    -0.6013110
  H       -2.4567070     2.5274350     0.5414280
units angstrom
no_reorient  #important for SAPT in psi4, default
symmetry c1  #important for SAPT in psi4, default
}

set PROPERTIES_ORIGIN ["COM"]
properties('MP2/aug-cc-pvtz', properties = ['dipole'])
--------------------------------------------------------------------------

    Molecular point group: c1
  Charge       = 0
  Multiplicity = 1
  Basis Set: AUG-CC-PVTZ
    Blend: AUG-CC-PVTZ
  Basis Set: (AUG-CC-PVTZ AUX)
    Blend: AUG-CC-PVTZ-JKFIT

    Orbital Energies [Eh]
    ---------------------

    Doubly Occupied:

       1A    -15.632919     2A    -15.575870     3A    -15.570443
       4A    -15.550939     5A    -11.330601     6A    -11.303356
       7A    -11.300290     8A    -11.286667     9A    -11.279261
      10A    -11.264464    11A    -11.247664    12A    -11.238206
      13A     -1.369301    14A     -1.307850    15A     -1.198191
      16A     -1.185919    17A     -1.086417    18A     -1.009686
      19A     -0.975722    20A     -0.896828    21A     -0.887740
      22A     -0.812618    23A     -0.779286    24A     -0.734215
      25A     -0.699551    26A     -0.685543    27A     -0.659257
      28A     -0.641702    29A     -0.607306    30A     -0.592940
      31A     -0.583631    32A     -0.577049    33A     -0.564267
      34A     -0.561209    35A     -0.550171    36A     -0.478369
      37A     -0.434931    38A     -0.421951    39A     -0.410125
      40A     -0.403509    41A     -0.380033    42A     -0.287888

  @DF-RHF Final Energy:  -525.54594882612071

   => Energetics <=

    Nuclear Repulsion Energy =            656.2228192979677033
    One-Electron Energy =               -2014.8097645602279044
    Two-Electron Energy =                 833.0409964361393804
    Total Energy =                       -525.5459488261207071
  Basis Set: (AUG-CC-PVTZ AUX)
    Blend: AUG-CC-PVTZ-RI
    Molecular point group: c1

    Geometry (in Angstrom), charge = 0, multiplicity = 1:

       Center              X                  Y                   Z               Mass
    ------------   -----------------  -----------------  -----------------  -----------------
         N           -1.745784995796     0.680099977451     0.088327724156    14.003074004430
         N           -1.448947995796    -1.529441022549    -0.180486275844    14.003074004430
         N            1.096934004204     1.056434977451    -0.288796275844    14.003074004430
         N            1.350694004204    -1.269858022549     0.281312724156    14.003074004430
         C           -0.835558995796    -0.348673022549    -0.022324275844    12.000000000000
         C            0.615872004204    -0.173185022549    -0.003619275844    12.000000000000
         C           -2.900997995796     0.154276277451     0.003394424156    12.000000000000
         C           -2.781368995796    -1.242846022549    -0.169904275844    12.000000000000
         C            2.433417004204     1.187190977451    -0.285490275844    12.000000000000
         C            2.679280004204    -1.106362022549     0.255203724156    12.000000000000
         C            3.284969004204     0.118771977451    -0.026000275844    12.000000000000
         H           -3.890335995796     0.710432977451     0.067093724156     1.007825032230
         H           -3.526043995796    -2.019994022549    -0.284584275844     1.007825032230
         H            2.818631004204     2.180713977451    -0.510091275844     1.007825032230
         H            3.272939004204    -1.991798022549     0.477972724156     1.007825032230
         H            4.364183004204     0.233345977451    -0.036803275844     1.007825032230
         C           -1.511294995796     2.105876977451     0.299060724156    12.000000000000
         H           -0.814233995796     2.252689977451     1.123274724156     1.007825032230
         H           -1.093603995796     2.562348977451    -0.597148275844     1.007825032230
         H           -2.471090995796     2.562833977451     0.545590724156     1.007825032230

  Basis Set: AUG-CC-PVTZ
    Blend: AUG-CC-PVTZ
  Basis Set: (AUG-CC-PVTZ AUX)
    Blend: AUG-CC-PVTZ-JKFIT
	 Reference Energy          =    -525.5459488261207071 [Eh]
	 Singles Energy            =      -0.0000000000000000 [Eh]
	 Same-Spin Energy          =      -0.5785945366795753 [Eh]
	 Opposite-Spin Energy      =      -1.7378301038728634 [Eh]
	 Correlation Energy        =      -2.3164246405524387 [Eh]
	 Total Energy              =    -527.8623734666731480 [Eh]

	 ================> DF-SCS-MP2 Energies <==================
	-----------------------------------------------------------
	 SCS Same-Spin Scale       =       0.3333333333333333 [-]
	 SCS Opposite-Spin Scale   =       1.2000000000000000 [-]
	 SCS Same-Spin Energy      =      -0.1928648455598584 [Eh]
	 SCS Opposite-Spin Energy  =      -2.0853961246474362 [Eh]
	 SCS Correlation Energy    =      -2.2782609702072945 [Eh]
	 SCS Total Energy          =    -527.8242097963279775 [Eh]
	-----------------------------------------------------------

  Dipole Moment: [D]
     X:     1.2221      Y:     4.2320      Z:     0.4975     Total:     4.4330

*** Psi4 exiting successfully. Buy a developer a beer!
