                               Psi4 1.3.2 release

  ==> Input File <==

--------------------------------------------------------------------------
#psi4
#
memory 32 gb

molecule  {
0 1
  N       -1.7314010     0.6447010     0.0841650
  N       -1.4345640    -1.5648400    -0.1846490
  N        1.0892372     1.0287818    -0.2958342
  N        1.3650780    -1.3052570     0.2771500
  C       -0.8211750    -0.3840720    -0.0264870
  C        0.6302560    -0.2085840    -0.0077820
  C       -2.9774260     0.0775420    -0.0074450
  C       -2.7669850    -1.2782450    -0.1740670
  C        2.4478010     1.1517920    -0.2896530
  C        2.6936640    -1.1417610     0.2510410
  C        3.2993530     0.0833730    -0.0301630
  H       -3.8759520     0.6750340     0.0629310
  H       -3.5116600    -2.0553930    -0.2887470
  H        2.8330150     2.1453150    -0.5142540
  H        3.2873230    -2.0271970     0.4738100
  H        4.3785670     0.1979470    -0.0409660
  C       -1.4969110     2.0704780     0.2948980
  H       -0.7998500     2.2172910     1.1191120
  H       -1.0792200     2.5269500    -0.6013110
  H       -2.4567070     2.5274350     0.5414280
units angstrom
no_reorient  #important for SAPT in psi4, default
symmetry c1  #important for SAPT in psi4, default
}

set PROPERTIES_ORIGIN ["COM"]
properties('MP2/aug-cc-pvtz', properties = ['dipole'])
--------------------------------------------------------------------------

    Molecular point group: c1
  Charge       = 0
  Multiplicity = 1
  Basis Set: AUG-CC-PVTZ
    Blend: AUG-CC-PVTZ
  Basis Set: (AUG-CC-PVTZ AUX)
    Blend: AUG-CC-PVTZ-JKFIT

    Orbital Energies [Eh]
    ---------------------

    Doubly Occupied:

       1A    -15.625180     2A    -15.582745     3A    -15.575360
       4A    -15.545839     5A    -11.333160     6A    -11.308653
       7A    -11.304537     8A    -11.294442     9A    -11.272698
      10A    -11.259355    11A    -11.253049    12A    -11.239788
      13A     -1.344142    14A     -1.305691    15A     -1.195815
      16A     -1.177030    17A     -1.089447    18A     -1.007430
      19A     -0.967919    20A     -0.900514    21A     -0.892073
      22A     -0.801810    23A     -0.783103    24A     -0.726378
      25A     -0.700979    26A     -0.685597    27A     -0.645671
      28A     -0.640382    29A     -0.606247    30A     -0.592584
      31A     -0.585954    32A     -0.578632    33A     -0.569250
      34A     -0.555299    35A     -0.542440    36A     -0.481608
      37A     -0.436185    38A     -0.422531    39A     -0.414528
      40A     -0.397342    41A     -0.377639    42A     -0.298431

  @DF-RHF Final Energy:  -525.55616090660465

   => Energetics <=

    Nuclear Repulsion Energy =            653.9056775669971557
    One-Electron Energy =               -2010.2887600972908331
    Two-Electron Energy =                 830.8269216236890315
    Total Energy =                       -525.5561609066046458
  Basis Set: (AUG-CC-PVTZ AUX)
    Blend: AUG-CC-PVTZ-RI
    Molecular point group: c1

    Geometry (in Angstrom), charge = 0, multiplicity = 1:

       Center              X                  Y                   Z               Mass
    ------------   -----------------  -----------------  -----------------  -----------------
         N           -1.737045692451     0.682521085310     0.089079759867    14.003074004430
         N           -1.440208692451    -1.527019914690    -0.179734240133    14.003074004430
         N            1.083592507549     1.066601885310    -0.290919440133    14.003074004430
         N            1.359433307549    -1.267436914690     0.282064759867    14.003074004430
         C           -0.826819692451    -0.346251914690    -0.021572240133    12.000000000000
         C            0.624611307549    -0.170763914690    -0.002867240133    12.000000000000
         C           -2.983070692451     0.115362085310    -0.002530240133    12.000000000000
         C           -2.772629692451    -1.240424914690    -0.169152240133    12.000000000000
         C            2.442156307549     1.189612085310    -0.284738240133    12.000000000000
         C            2.688019307549    -1.103940914690     0.255955759867    12.000000000000
         C            3.293708307549     0.121193085310    -0.025248240133    12.000000000000
         H           -3.881596692451     0.712854085310     0.067845759867     1.007825032230
         H           -3.517304692451    -2.017572914690    -0.283832240133     1.007825032230
         H            2.827370307549     2.183135085310    -0.509339240133     1.007825032230
         H            3.281678307549    -1.989376914690     0.478724759867     1.007825032230
         H            4.372922307549     0.235767085310    -0.036051240133     1.007825032230
         C           -1.502555692451     2.108298085310     0.299812759867    12.000000000000
         H           -0.805494692451     2.255111085310     1.124026759867     1.007825032230
         H           -1.084864692451     2.564770085310    -0.596396240133     1.007825032230
         H           -2.462351692451     2.565255085310     0.546342759867     1.007825032230

  Basis Set: AUG-CC-PVTZ
    Blend: AUG-CC-PVTZ
  Basis Set: (AUG-CC-PVTZ AUX)
    Blend: AUG-CC-PVTZ-JKFIT
	 Reference Energy          =    -525.5561609066046458 [Eh]
	 Singles Energy            =      -0.0000000000000000 [Eh]
	 Same-Spin Energy          =      -0.5781459715150147 [Eh]
	 Opposite-Spin Energy      =      -1.7390623216139107 [Eh]
	 Correlation Energy        =      -2.3172082931289255 [Eh]
	 Total Energy              =    -527.8733691997335882 [Eh]

	 ================> DF-SCS-MP2 Energies <==================
	-----------------------------------------------------------
	 SCS Same-Spin Scale       =       0.3333333333333333 [-]
	 SCS Opposite-Spin Scale   =       1.2000000000000000 [-]
	 SCS Same-Spin Energy      =      -0.1927153238383382 [Eh]
	 SCS Opposite-Spin Energy  =      -2.0868747859366930 [Eh]
	 SCS Correlation Energy    =      -2.2795901097750311 [Eh]
	 SCS Total Energy          =    -527.8357510163797315 [Eh]
	-----------------------------------------------------------

  Dipole Moment: [D]
     X:     1.4690      Y:     4.0859      Z:     0.4858     Total:     4.3690

*** Psi4 exiting successfully. Buy a developer a beer!
