                               Psi4 1.3.2 release

  ==> Input File <==

--------------------------------------------------------------------------
#psi4
#
memory 32 gb

molecule  {
0 1
  N       -1.7314010     0.6447010     0.0841650
  N       -1.3499686    -1.6043237    -0.1903088
  N        1.1113180     1.0210360    -0.2929590
  N        1.3650780    -1.3052570     0.2771500
  C       -0.8211750    -0.3840720    -0.0264870
  C        0.6302560    -0.2085840    -0.0077820
  C       -2.9774260     0.0775420    -0.0074450
  C       -2.7669850    -1.2782450    -0.1740670
  C        2.4478010     1.1517920    -0.2896530
  C        2.6936640    -1.1417610     0.2510410
  C        3.2993530     0.0833730    -0.0301630
  H       -3.8759520     0.6750340     0.0629310
  H       -3.5116600    -2.0553930    -0.2887470
  H        2.8330150     2.1453150    -0.5142540
  H        3.2873230    -2.0271970     0.4738100
  H        4.3785670     0.1979470    -0.0409660
  C       -1.4969110     2.0704780     0.2948980
  H       -0.7998500     2.2172910     1.1191120
  H       -1.0792200     2.5269500    -0.6013110
  H       -2.4567070     2.5274350     0.5414280
units angstrom
no_reorient  #important for SAPT in psi4, default
symmetry c1  #important for SAPT in psi4, default
}

set PROPERTIES_ORIGIN ["COM"]
properties('MP2/aug-cc-pvtz', properties = ['dipole'])
--------------------------------------------------------------------------

    Molecular point group: c1
  Charge       = 0
  Multiplicity = 1
  Basis Set: AUG-CC-PVTZ
    Blend: AUG-CC-PVTZ
  Basis Set: (AUG-CC-PVTZ AUX)
    Blend: AUG-CC-PVTZ-JKFIT

    Orbital Energies [Eh]
    ---------------------

    Doubly Occupied:

       1A    -15.622957     2A    -15.580112     3A    -15.574921
       4A    -15.557081     5A    -11.331811     6A    -11.305574
       7A    -11.302851     8A    -11.299781     9A    -11.273941
      10A    -11.264032    11A    -11.252235    12A    -11.247558
      13A     -1.339061    14A     -1.306319    15A     -1.197274
      16A     -1.167663    17A     -1.087675    18A     -1.010666
      19A     -0.963578    20A     -0.899087    21A     -0.893726
      22A     -0.805143    23A     -0.780538    24A     -0.721049
      25A     -0.702744    26A     -0.685203    27A     -0.645680
      28A     -0.639293    29A     -0.605948    30A     -0.592576
      31A     -0.585771    32A     -0.579909    33A     -0.565798
      34A     -0.543753    35A     -0.538988    36A     -0.480302
      37A     -0.446673    38A     -0.423971    39A     -0.412869
      40A     -0.398099    41A     -0.368184    42A     -0.304435

  @DF-RHF Final Energy:  -525.54773576838681

   => Energetics <=

    Nuclear Repulsion Energy =            653.0122581917649995
    One-Electron Energy =               -2008.5103338462358806
    Two-Electron Energy =                 829.9503398860841799
    Total Energy =                       -525.5477357683868149
  Basis Set: (AUG-CC-PVTZ AUX)
    Blend: AUG-CC-PVTZ-RI
    Molecular point group: c1

    Geometry (in Angstrom), charge = 0, multiplicity = 1:

       Center              X                  Y                   Z               Mass
    ------------   -----------------  -----------------  -----------------  -----------------
         N           -1.746377541216     0.686652639970     0.089323351840    14.003074004430
         N           -1.364945141216    -1.562372060030    -0.185150448160    14.003074004430
         N            1.096341458784     1.062987639970    -0.287800648160    14.003074004430
         N            1.350101458784    -1.263305360030     0.282308351840    14.003074004430
         C           -0.836151541216    -0.342120360030    -0.021328648160    12.000000000000
         C            0.615279458784    -0.166632360030    -0.002623648160    12.000000000000
         C           -2.992402541216     0.119493639970    -0.002286648160    12.000000000000
         C           -2.781961541216    -1.236293360030    -0.168908648160    12.000000000000
         C            2.432824458784     1.193743639970    -0.284494648160    12.000000000000
         C            2.678687458784    -1.099809360030     0.256199351840    12.000000000000
         C            3.284376458784     0.125324639970    -0.025004648160    12.000000000000
         H           -3.890928541216     0.716985639970     0.068089351840     1.007825032230
         H           -3.526636541216    -2.013441360030    -0.283588648160     1.007825032230
         H            2.818038458784     2.187266639970    -0.509095648160     1.007825032230
         H            3.272346458784    -1.985245360030     0.478968351840     1.007825032230
         H            4.363590458784     0.239898639970    -0.035807648160     1.007825032230
         C           -1.511887541216     2.112429639970     0.300056351840    12.000000000000
         H           -0.814826541216     2.259242639970     1.124270351840     1.007825032230
         H           -1.094196541216     2.568901639970    -0.596152648160     1.007825032230
         H           -2.471683541216     2.569386639970     0.546586351840     1.007825032230

  Basis Set: AUG-CC-PVTZ
    Blend: AUG-CC-PVTZ
  Basis Set: (AUG-CC-PVTZ AUX)
    Blend: AUG-CC-PVTZ-JKFIT
	 Reference Energy          =    -525.5477357683868149 [Eh]
	 Singles Energy            =      -0.0000000000000000 [Eh]
	 Same-Spin Energy          =      -0.5777973593624652 [Eh]
	 Opposite-Spin Energy      =      -1.7406159287967489 [Eh]
	 Correlation Energy        =      -2.3184132881592143 [Eh]
	 Total Energy              =    -527.8661490565460781 [Eh]

	 ================> DF-SCS-MP2 Energies <==================
	-----------------------------------------------------------
	 SCS Same-Spin Scale       =       0.3333333333333333 [-]
	 SCS Opposite-Spin Scale   =       1.2000000000000000 [-]
	 SCS Same-Spin Energy      =      -0.1925991197874884 [Eh]
	 SCS Opposite-Spin Energy  =      -2.0887391145560987 [Eh]
	 SCS Correlation Energy    =      -2.2813382343435871 [Eh]
	 SCS Total Energy          =    -527.8290740027304082 [Eh]
	-----------------------------------------------------------

  Dipole Moment: [D]
     X:     1.3655      Y:     4.1878      Z:     0.4976     Total:     4.4328

*** Psi4 exiting successfully. Buy a developer a beer!
