                               Psi4 1.4a3.dev225

  ==> Input File <==

--------------------------------------------------------------------------
#psi4
#
memory 32 gb

molecule  {
0 1
  N       -1.7314010     0.6447010     0.0841650
  N       -1.4345640    -1.5648400    -0.1846490
  N        1.1113180     1.0210360    -0.2929590
  N        1.3650780    -1.3052570     0.2771500
  C       -0.8211750    -0.3840720    -0.0264870
  C        0.6302560    -0.2085840    -0.0077820
  C       -2.9774260     0.0775420    -0.0074450
  C       -2.7669850    -1.2782450    -0.1740670
  C        2.4478010     1.1517920    -0.2896530
  C        2.6936640    -1.1417610     0.2510410
  C        3.2993530     0.0833730    -0.0301630
  H       -3.8759520     0.6750340     0.0629310
  H       -3.5116600    -2.0553930    -0.2887470
  H        2.8330150     2.1453150    -0.5142540
  H        3.2873230    -2.0271970     0.4738100
  H        4.3785670     0.1979470    -0.0409660
  C       -1.5049403     2.0216573     0.2876822
  H       -0.7998500     2.2172910     1.1191120
  H       -1.0792200     2.5269500    -0.6013110
  H       -2.4567070     2.5274350     0.5414280
units angstrom
no_reorient  #important for SAPT in psi4, default
symmetry c1  #important for SAPT in psi4, default
}

set PROPERTIES_ORIGIN ["COM"]
properties('MP2/aug-cc-pvtz', properties = ['dipole'])
--------------------------------------------------------------------------

    Molecular point group: c1
  Charge       = 0
  Multiplicity = 1
  Basis Set: AUG-CC-PVTZ
    Blend: AUG-CC-PVTZ
  Basis Set: (AUG-CC-PVTZ AUX)
    Blend: AUG-CC-PVTZ-JKFIT

    Orbital Energies [Eh]
    ---------------------

    Doubly Occupied:

       1A    -15.626878     2A    -15.580290     3A    -15.575491
       4A    -15.548255     5A    -11.333976     6A    -11.306004
       7A    -11.303282     8A    -11.297362     9A    -11.272388
      10A    -11.261363    11A    -11.252264    12A    -11.241947
      13A     -1.350388    14A     -1.309325    15A     -1.199616
      16A     -1.184600    17A     -1.089622    18A     -1.010003
      19A     -0.967445    20A     -0.899753    21A     -0.894247
      22A     -0.805514    23A     -0.785830    24A     -0.731789
      25A     -0.703288    26A     -0.687605    27A     -0.648091
      28A     -0.641197    29A     -0.607038    30A     -0.597010
      31A     -0.590053    32A     -0.579601    33A     -0.567619
      34A     -0.551724    35A     -0.536618    36A     -0.480511
      37A     -0.437540    38A     -0.424380    39A     -0.412636
      40A     -0.397016    41A     -0.377370    42A     -0.299996

  @DF-RHF Final Energy:  -525.55545452363049

   => Energetics <=

    Nuclear Repulsion Energy =            655.1232262528898218
    One-Electron Energy =               -2012.6235161938805049
    Two-Electron Energy =                 831.9448354173600819
    Total Energy =                       -525.5554545236304875
  Basis Set: (AUG-CC-PVTZ AUX)
    Blend: AUG-CC-PVTZ-RI
    Molecular point group: c1

    Geometry (in Angstrom), charge = 0, multiplicity = 1:

       Center              X                  Y                   Z               Mass
    ------------   -----------------  -----------------  -----------------  -----------------
         N           -1.738375366756     0.686858513769     0.089369174151    14.003074004430
         N           -1.441538366756    -1.522682486231    -0.179444825849    14.003074004430
         N            1.104343633244     1.063193513769    -0.287754825849    14.003074004430
         N            1.358103633244    -1.263099486231     0.282354174151    14.003074004430
         C           -0.828149366756    -0.341914486231    -0.021282825849    12.000000000000
         C            0.623281633244    -0.166426486231    -0.002577825849    12.000000000000
         C           -2.984400366756     0.119699513769    -0.002240825849    12.000000000000
         C           -2.773959366756    -1.236087486231    -0.168862825849    12.000000000000
         C            2.440826633244     1.193949513769    -0.284448825849    12.000000000000
         C            2.686689633244    -1.099603486231     0.256245174151    12.000000000000
         C            3.292378633244     0.125530513769    -0.024958825849    12.000000000000
         H           -3.882926366756     0.717191513769     0.068135174151     1.007825032230
         H           -3.518634366756    -2.013235486231    -0.283542825849     1.007825032230
         H            2.826040633244     2.187472513769    -0.509049825849     1.007825032230
         H            3.280348633244    -1.985039486231     0.479014174151     1.007825032230
         H            4.371592633244     0.240104513769    -0.035761825849     1.007825032230
         C           -1.511914666756     2.063814813769     0.292886374151    12.000000000000
         H           -0.806824366756     2.259448513769     1.124316174151     1.007825032230
         H           -1.086194366756     2.569107513769    -0.596106825849     1.007825032230
         H           -2.463681366756     2.569592513769     0.546632174151     1.007825032230

  Basis Set: AUG-CC-PVTZ
    Blend: AUG-CC-PVTZ
  Basis Set: (AUG-CC-PVTZ AUX)
    Blend: AUG-CC-PVTZ-JKFIT
	 Reference Energy          =    -525.5554545236304875 [Eh]
	 Singles Energy            =      -0.0000000000000000 [Eh]
	 Same-Spin Energy          =      -0.5783224988767625 [Eh]
	 Opposite-Spin Energy      =      -1.7385222622699095 [Eh]
	 Correlation Energy        =      -2.3168447611466720 [Eh]
	 Total Energy              =    -527.8722992847771138 [Eh]

	 ================> DF-SCS-MP2 Energies <==================
	-----------------------------------------------------------
	 SCS Same-Spin Scale       =       0.3333333333333333 [-]
	 SCS Opposite-Spin Scale   =       1.2000000000000000 [-]
	 SCS Same-Spin Energy      =      -0.1927741662922541 [Eh]
	 SCS Opposite-Spin Energy  =      -2.0862267147238911 [Eh]
	 SCS Correlation Energy    =      -2.2790008810161453 [Eh]
	 SCS Total Energy          =    -527.8344554046466328 [Eh]
	-----------------------------------------------------------

  Dipole Moment: [D]
     X:     1.3979      Y:     3.9786      Z:     0.4606     Total:     4.2421

*** Psi4 exiting successfully. Buy a developer a beer!
