                               Psi4 1.3.2 release

  ==> Input File <==

--------------------------------------------------------------------------
#psi4
#
memory 32 gb

molecule  {
0 1
  N       -1.7314010     0.6447010     0.0841650
  N       -1.4345640    -1.5648400    -0.1846490
  N        1.1113180     1.0210360    -0.2929590
  N        1.3650780    -1.3052570     0.2771500
  C       -0.8211750    -0.3840720    -0.0264870
  C        0.6302560    -0.2085840    -0.0077820
  C       -2.9774260     0.0775420    -0.0074450
  C       -2.7669850    -1.2782450    -0.1740670
  C        2.4478010     1.1517920    -0.2896530
  C        2.7928964    -1.1295494     0.2490909
  C        3.2993530     0.0833730    -0.0301630
  H       -3.8759520     0.6750340     0.0629310
  H       -3.5116600    -2.0553930    -0.2887470
  H        2.8330150     2.1453150    -0.5142540
  H        3.2873230    -2.0271970     0.4738100
  H        4.3785670     0.1979470    -0.0409660
  C       -1.4969110     2.0704780     0.2948980
  H       -0.7998500     2.2172910     1.1191120
  H       -1.0792200     2.5269500    -0.6013110
  H       -2.4567070     2.5274350     0.5414280
units angstrom
no_reorient  #important for SAPT in psi4, default
symmetry c1  #important for SAPT in psi4, default
}

set PROPERTIES_ORIGIN ["COM"]
properties('MP2/aug-cc-pvtz', properties = ['dipole'])
--------------------------------------------------------------------------

    Molecular point group: c1
  Charge       = 0
  Multiplicity = 1
  Basis Set: AUG-CC-PVTZ
    Blend: AUG-CC-PVTZ
  Basis Set: (AUG-CC-PVTZ AUX)
    Blend: AUG-CC-PVTZ-JKFIT

    Orbital Energies [Eh]
    ---------------------

    Doubly Occupied:

       1A    -15.624330     2A    -15.581860     3A    -15.578248
       4A    -15.544229     5A    -11.329204     6A    -11.311820
       7A    -11.302363     8A    -11.293954     9A    -11.272821
      10A    -11.257932    11A    -11.250903    12A    -11.238736
      13A     -1.342450    14A     -1.298972    15A     -1.185122
      16A     -1.169449    17A     -1.097837    18A     -1.007478
      19A     -0.967386    20A     -0.909825    21A     -0.885432
      22A     -0.800780    23A     -0.785367    24A     -0.727497
      25A     -0.699533    26A     -0.687027    27A     -0.645360
      28A     -0.637677    29A     -0.612032    30A     -0.596213
      31A     -0.585381    32A     -0.576586    33A     -0.568306
      34A     -0.555069    35A     -0.541957    36A     -0.472592
      37A     -0.434934    38A     -0.415087    39A     -0.411272
      40A     -0.403113    41A     -0.377600    42A     -0.298262

  @DF-RHF Final Energy:  -525.54333138712445

   => Energetics <=

    Nuclear Repulsion Energy =            652.6784810747354868
    One-Electron Energy =               -2007.8796282952300771
    Two-Electron Energy =                 829.6578158333700230
    Total Energy =                       -525.5433313871244536
  Basis Set: (AUG-CC-PVTZ AUX)
    Blend: AUG-CC-PVTZ-RI
    Molecular point group: c1

    Geometry (in Angstrom), charge = 0, multiplicity = 1:

       Center              X                  Y                   Z               Mass
    ------------   -----------------  -----------------  -----------------  -----------------
         N           -1.746416230314     0.682283232966     0.088974431431    14.003074004430
         N           -1.449579230314    -1.527257767034    -0.179839568569    14.003074004430
         N            1.096302769686     1.058618232966    -0.288149568569    14.003074004430
         N            1.350062769686    -1.267674767034     0.281959431431    14.003074004430
         C           -0.836190230314    -0.346489767034    -0.021677568569    12.000000000000
         C            0.615240769686    -0.171001767034    -0.002972568569    12.000000000000
         C           -2.992441230314     0.115124232966    -0.002635568569    12.000000000000
         C           -2.782000230314    -1.240662767034    -0.169257568569    12.000000000000
         C            2.432785769686     1.189374232966    -0.284843568569    12.000000000000
         C            2.777881169686    -1.091967167034     0.253900331431    12.000000000000
         C            3.284337769686     0.120955232966    -0.025353568569    12.000000000000
         H           -3.890967230314     0.712616232966     0.067740431431     1.007825032230
         H           -3.526675230314    -2.017810767034    -0.283937568569     1.007825032230
         H            2.817999769686     2.182897232966    -0.509444568569     1.007825032230
         H            3.272307769686    -1.989614767034     0.478619431431     1.007825032230
         H            4.363551769686     0.235529232966    -0.036156568569     1.007825032230
         C           -1.511926230314     2.108060232966     0.299707431431    12.000000000000
         H           -0.814865230314     2.254873232966     1.123921431431     1.007825032230
         H           -1.094235230314     2.564532232966    -0.596501568569     1.007825032230
         H           -2.471722230314     2.565017232966     0.546237431431     1.007825032230

  Basis Set: AUG-CC-PVTZ
    Blend: AUG-CC-PVTZ
  Basis Set: (AUG-CC-PVTZ AUX)
    Blend: AUG-CC-PVTZ-JKFIT
	 Reference Energy          =    -525.5433313871244536 [Eh]
	 Singles Energy            =      -0.0000000000000000 [Eh]
	 Same-Spin Energy          =      -0.5786883450252518 [Eh]
	 Opposite-Spin Energy      =      -1.7410868300105449 [Eh]
	 Correlation Energy        =      -2.3197751750357964 [Eh]
	 Total Energy              =    -527.8631065621602829 [Eh]

	 ================> DF-SCS-MP2 Energies <==================
	-----------------------------------------------------------
	 SCS Same-Spin Scale       =       0.3333333333333333 [-]
	 SCS Opposite-Spin Scale   =       1.2000000000000000 [-]
	 SCS Same-Spin Energy      =      -0.1928961150084172 [Eh]
	 SCS Opposite-Spin Energy  =      -2.0893041960126539 [Eh]
	 SCS Correlation Energy    =      -2.2822003110210711 [Eh]
	 SCS Total Energy          =    -527.8255316981454826 [Eh]
	-----------------------------------------------------------

  Dipole Moment: [D]
     X:     1.5488      Y:     4.1533      Z:     0.4696     Total:     4.4575

*** Psi4 exiting successfully. Buy a developer a beer!
