                               Psi4 1.3.2 release

  ==> Input File <==

--------------------------------------------------------------------------
#psi4
#
memory 32 gb

molecule  {
0 1
  N       -1.7314010     0.6447010     0.0841650
  N       -1.4345640    -1.5648400    -0.1846490
  N        1.1113180     1.0210360    -0.2929590
  N        1.3650780    -1.3052570     0.2771500
  C       -0.9127288    -0.5603122    -0.0500941
  C        0.6302560    -0.2085840    -0.0077820
  C       -2.9774260     0.0775420    -0.0074450
  C       -2.7669850    -1.2782450    -0.1740670
  C        2.4478010     1.1517920    -0.2896530
  C        2.6936640    -1.1417610     0.2510410
  C        3.2993530     0.0833730    -0.0301630
  H       -3.8759520     0.6750340     0.0629310
  H       -3.5116600    -2.0553930    -0.2887470
  H        2.8330150     2.1453150    -0.5142540
  H        3.2873230    -2.0271970     0.4738100
  H        4.3785670     0.1979470    -0.0409660
  C       -1.4969110     2.0704780     0.2948980
  H       -0.7998500     2.2172910     1.1191120
  H       -1.0792200     2.5269500    -0.6013110
  H       -2.4567070     2.5274350     0.5414280
units angstrom
no_reorient  #important for SAPT in psi4, default
symmetry c1  #important for SAPT in psi4, default
}

set PROPERTIES_ORIGIN ["COM"]
properties('MP2/aug-cc-pvtz', properties = ['dipole'])
--------------------------------------------------------------------------

    Molecular point group: c1
  Charge       = 0
  Multiplicity = 1
  Basis Set: AUG-CC-PVTZ
    Blend: AUG-CC-PVTZ
  Basis Set: (AUG-CC-PVTZ AUX)
    Blend: AUG-CC-PVTZ-JKFIT

    Orbital Energies [Eh]
    ---------------------

    Doubly Occupied:

       1A    -15.599836     2A    -15.582291     3A    -15.573809
       4A    -15.536031     5A    -11.334758     6A    -11.306866
       7A    -11.302117     8A    -11.293631     9A    -11.268130
      10A    -11.262351    11A    -11.252541    12A    -11.236127
      13A     -1.368723    14A     -1.308365    15A     -1.216450
      16A     -1.193136    17A     -1.080698    18A     -1.011451
      19A     -0.951524    20A     -0.897607    21A     -0.884596
      22A     -0.812888    23A     -0.772191    24A     -0.724223
      25A     -0.701734    26A     -0.684757    27A     -0.641559
      28A     -0.636047    29A     -0.607359    30A     -0.598223
      31A     -0.589426    32A     -0.578365    33A     -0.560936
      34A     -0.558262    35A     -0.545777    36A     -0.480658
      37A     -0.433980    38A     -0.423856    39A     -0.414069
      40A     -0.410337    41A     -0.380078    42A     -0.302827

  @DF-RHF Final Energy:  -525.50527578969331

   => Energetics <=

    Nuclear Repulsion Energy =            654.2545394381475035
    One-Electron Energy =               -2010.8824527534286517
    Two-Electron Energy =                 831.1226375255878338
    Total Energy =                       -525.5052757896933144
  Basis Set: (AUG-CC-PVTZ AUX)
    Blend: AUG-CC-PVTZ-RI
    Molecular point group: c1

    Geometry (in Angstrom), charge = 0, multiplicity = 1:

       Center              X                  Y                   Z               Mass
    ------------   -----------------  -----------------  -----------------  -----------------
         N           -1.732113960231     0.696410504965     0.090597946461    14.003074004430
         N           -1.435276960231    -1.513130495035    -0.178216053539    14.003074004430
         N            1.110605039769     1.072745504965    -0.286526053539    14.003074004430
         N            1.364365039769    -1.253547495035     0.283582946461    14.003074004430
         C           -0.913441760231    -0.508602695035    -0.043661153539    12.000000000000
         C            0.629543039769    -0.156874495035    -0.001349053539    12.000000000000
         C           -2.978138960231     0.129251504965    -0.001012053539    12.000000000000
         C           -2.767697960231    -1.226535495035    -0.167634053539    12.000000000000
         C            2.447088039769     1.203501504965    -0.283220053539    12.000000000000
         C            2.692951039769    -1.090051495035     0.257473946461    12.000000000000
         C            3.298640039769     0.135082504965    -0.023730053539    12.000000000000
         H           -3.876664960231     0.726743504965     0.069363946461     1.007825032230
         H           -3.512372960231    -2.003683495035    -0.282314053539     1.007825032230
         H            2.832302039769     2.197024504965    -0.507821053539     1.007825032230
         H            3.286610039769    -1.975487495035     0.480242946461     1.007825032230
         H            4.377854039769     0.249656504965    -0.034533053539     1.007825032230
         C           -1.497623960231     2.122187504965     0.301330946461    12.000000000000
         H           -0.800562960231     2.269000504965     1.125544946461     1.007825032230
         H           -1.079932960231     2.578659504965    -0.594878053539     1.007825032230
         H           -2.457419960231     2.579144504965     0.547860946461     1.007825032230

  Basis Set: AUG-CC-PVTZ
    Blend: AUG-CC-PVTZ
  Basis Set: (AUG-CC-PVTZ AUX)
    Blend: AUG-CC-PVTZ-JKFIT
	 Reference Energy          =    -525.5052757896933144 [Eh]
	 Singles Energy            =      -0.0000000000000000 [Eh]
	 Same-Spin Energy          =      -0.5735864666910913 [Eh]
	 Opposite-Spin Energy      =      -1.7324002054533718 [Eh]
	 Correlation Energy        =      -2.3059866721444631 [Eh]
	 Total Energy              =    -527.8112624618378277 [Eh]

	 ================> DF-SCS-MP2 Energies <==================
	-----------------------------------------------------------
	 SCS Same-Spin Scale       =       0.3333333333333333 [-]
	 SCS Opposite-Spin Scale   =       1.2000000000000000 [-]
	 SCS Same-Spin Energy      =      -0.1911954888970304 [Eh]
	 SCS Opposite-Spin Energy  =      -2.0788802465440459 [Eh]
	 SCS Correlation Energy    =      -2.2700757354410763 [Eh]
	 SCS Total Energy          =    -527.7753515251343970 [Eh]
	-----------------------------------------------------------

  Dipole Moment: [D]
     X:     1.8329      Y:     3.6199      Z:     0.4012     Total:     4.0773

*** Psi4 exiting successfully. Buy a developer a beer!
