                               Psi4 1.3.2 release

  ==> Input File <==

--------------------------------------------------------------------------
#psi4
#
memory 32 gb

molecule  {
0 1
  N       -1.7314010     0.6447010     0.0841650
  N       -1.4345640    -1.5648400    -0.1846490
  N        1.1113180     1.0210360    -0.2929590
  N        1.3650780    -1.3052570     0.2771500
  C       -0.8211750    -0.3840720    -0.0264870
  C        0.6302560    -0.2085840    -0.0077820
  C       -2.9774260     0.0775420    -0.0074450
  C       -2.7669850    -1.2782450    -0.1740670
  C        2.4478010     1.1517920    -0.2896530
  C        2.6936640    -1.1417610     0.2510410
  C        3.1768876     0.2370270    -0.0674814
  H       -3.8759520     0.6750340     0.0629310
  H       -3.5116600    -2.0553930    -0.2887470
  H        2.8330150     2.1453150    -0.5142540
  H        3.2873230    -2.0271970     0.4738100
  H        4.3785670     0.1979470    -0.0409660
  C       -1.4969110     2.0704780     0.2948980
  H       -0.7998500     2.2172910     1.1191120
  H       -1.0792200     2.5269500    -0.6013110
  H       -2.4567070     2.5274350     0.5414280
units angstrom
no_reorient  #important for SAPT in psi4, default
symmetry c1  #important for SAPT in psi4, default
}

set PROPERTIES_ORIGIN ["COM"]
properties('MP2/aug-cc-pvtz', properties = ['dipole'])
--------------------------------------------------------------------------

    Molecular point group: c1
  Charge       = 0
  Multiplicity = 1
  Basis Set: AUG-CC-PVTZ
    Blend: AUG-CC-PVTZ
  Basis Set: (AUG-CC-PVTZ AUX)
    Blend: AUG-CC-PVTZ-JKFIT

    Orbital Energies [Eh]
    ---------------------

    Doubly Occupied:

       1A    -15.624767     2A    -15.580116     3A    -15.571870
       4A    -15.546262     5A    -11.332350     6A    -11.321611
       7A    -11.295022     8A    -11.271652     9A    -11.265701
      10A    -11.259332    11A    -11.246139    12A    -11.239758
      13A     -1.344637    14A     -1.313006    15A     -1.201881
      16A     -1.177563    17A     -1.104335    18A     -1.009978
      19A     -0.967964    20A     -0.915610    21A     -0.877094
      22A     -0.801588    23A     -0.785452    24A     -0.727562
      25A     -0.710380    26A     -0.680987    27A     -0.645682
      28A     -0.636993    29A     -0.604446    30A     -0.590943
      31A     -0.584095    32A     -0.578555    33A     -0.570416
      34A     -0.554501    35A     -0.543708    36A     -0.461357
      37A     -0.438794    38A     -0.434935    39A     -0.411487
      40A     -0.400199    41A     -0.378664    42A     -0.299573

  @DF-RHF Final Energy:  -525.49422184430159

   => Energetics <=

    Nuclear Repulsion Energy =            656.8268235261155041
    One-Electron Energy =               -2016.0281647889471515
    Two-Electron Energy =                 833.7071194185300556
    Total Energy =                       -525.4942218443015918
  Basis Set: (AUG-CC-PVTZ AUX)
    Blend: AUG-CC-PVTZ-RI
    Molecular point group: c1

    Geometry (in Angstrom), charge = 0, multiplicity = 1:

       Center              X                  Y                   Z               Mass
    ------------   -----------------  -----------------  -----------------  -----------------
         N           -1.729796674957     0.671680016349     0.091625812815    14.003074004430
         N           -1.432959674957    -1.537860983651    -0.177188187185    14.003074004430
         N            1.112922325043     1.048015016349    -0.285498187185    14.003074004430
         N            1.366682325043    -1.278277983651     0.284610812815    14.003074004430
         C           -0.819570674957    -0.357092983651    -0.019026187185    12.000000000000
         C            0.631860325043    -0.181604983651    -0.000321187185    12.000000000000
         C           -2.975821674957     0.104521016349     0.000015812815    12.000000000000
         C           -2.765380674957    -1.251265983651    -0.166606187185    12.000000000000
         C            2.449405325043     1.178771016349    -0.282192187185    12.000000000000
         C            2.695268325043    -1.114781983651     0.258501812815    12.000000000000
         C            3.178491925043     0.264006016349    -0.060020587185    12.000000000000
         H           -3.874347674957     0.702013016349     0.070391812815     1.007825032230
         H           -3.510055674957    -2.028413983651    -0.281286187185     1.007825032230
         H            2.834619325043     2.172294016349    -0.506793187185     1.007825032230
         H            3.288927325043    -2.000217983651     0.481270812815     1.007825032230
         H            4.380171325043     0.224926016349    -0.033505187185     1.007825032230
         C           -1.495306674957     2.097457016349     0.302358812815    12.000000000000
         H           -0.798245674957     2.244270016349     1.126572812815     1.007825032230
         H           -1.077615674957     2.553929016349    -0.593850187185     1.007825032230
         H           -2.455102674957     2.554414016349     0.548888812815     1.007825032230

  Basis Set: AUG-CC-PVTZ
    Blend: AUG-CC-PVTZ
  Basis Set: (AUG-CC-PVTZ AUX)
    Blend: AUG-CC-PVTZ-JKFIT
	 Reference Energy          =    -525.4942218443015918 [Eh]
	 Singles Energy            =      -0.0000000000000000 [Eh]
	 Same-Spin Energy          =      -0.5776502267887185 [Eh]
	 Opposite-Spin Energy      =      -1.7397117343064417 [Eh]
	 Correlation Energy        =      -2.3173619610951599 [Eh]
	 Total Energy              =    -527.8115838053967082 [Eh]

	 ================> DF-SCS-MP2 Energies <==================
	-----------------------------------------------------------
	 SCS Same-Spin Scale       =       0.3333333333333333 [-]
	 SCS Opposite-Spin Scale   =       1.2000000000000000 [-]
	 SCS Same-Spin Energy      =      -0.1925500755962395 [Eh]
	 SCS Opposite-Spin Energy  =      -2.0876540811677300 [Eh]
	 SCS Correlation Energy    =      -2.2802041567639693 [Eh]
	 SCS Total Energy          =    -527.7744260010655353 [Eh]
	-----------------------------------------------------------

  Dipole Moment: [D]
     X:     1.3468      Y:     3.7825      Z:     0.5571     Total:     4.0536

*** Psi4 exiting successfully. Buy a developer a beer!
