                               Psi4 1.3.2 release

  ==> Input File <==

--------------------------------------------------------------------------
#psi4
#
memory 32 gb

molecule  {
0 1
  N       -1.7314010     0.6447010     0.0841650
  N       -1.4345640    -1.5648400    -0.1846490
  N        1.1113180     1.0210360    -0.2929590
  N        1.3650780    -1.3052570     0.2771500
  C       -0.8211750    -0.3840720    -0.0264870
  C        0.6302560    -0.2085840    -0.0077820
  C       -2.8816505     0.0885443    -0.0039331
  C       -2.7669850    -1.2782450    -0.1740670
  C        2.4478010     1.1517920    -0.2896530
  C        2.6936640    -1.1417610     0.2510410
  C        3.2993530     0.0833730    -0.0301630
  H       -3.8759520     0.6750340     0.0629310
  H       -3.5116600    -2.0553930    -0.2887470
  H        2.8330150     2.1453150    -0.5142540
  H        3.2873230    -2.0271970     0.4738100
  H        4.3785670     0.1979470    -0.0409660
  C       -1.4969110     2.0704780     0.2948980
  H       -0.7998500     2.2172910     1.1191120
  H       -1.0792200     2.5269500    -0.6013110
  H       -2.4567070     2.5274350     0.5414280
units angstrom
no_reorient  #important for SAPT in psi4, default
symmetry c1  #important for SAPT in psi4, default
}

set PROPERTIES_ORIGIN ["COM"]
properties('MP2/aug-cc-pvtz', properties = ['dipole'])
--------------------------------------------------------------------------

    Molecular point group: c1
  Charge       = 0
  Multiplicity = 1
  Basis Set: AUG-CC-PVTZ
    Blend: AUG-CC-PVTZ
  Basis Set: (AUG-CC-PVTZ AUX)
    Blend: AUG-CC-PVTZ-JKFIT

    Orbital Energies [Eh]
    ---------------------

    Doubly Occupied:

       1A    -15.630282     2A    -15.576646     3A    -15.571164
       4A    -15.549397     5A    -11.330916     6A    -11.303812
       7A    -11.300729     8A    -11.287831     9A    -11.279039
      10A    -11.262554    11A    -11.248431    12A    -11.234839
      13A     -1.367986    14A     -1.308284    15A     -1.197967
      16A     -1.185360    17A     -1.087224    18A     -1.010730
      19A     -0.975645    20A     -0.897392    21A     -0.889244
      22A     -0.811484    23A     -0.779031    24A     -0.734347
      25A     -0.700062    26A     -0.684307    27A     -0.658240
      28A     -0.639462    29A     -0.606962    30A     -0.594218
      31A     -0.584369    32A     -0.576101    33A     -0.563893
      34A     -0.560705    35A     -0.550726    36A     -0.478775
      37A     -0.434544    38A     -0.422324    39A     -0.410274
      40A     -0.402157    41A     -0.380375    42A     -0.292001

  @DF-RHF Final Energy:  -525.54698950876229

   => Energetics <=

    Nuclear Repulsion Energy =            656.4808768745417638
    One-Electron Energy =               -2015.3360777067646268
    Two-Electron Energy =                 833.3082113234605686
    Total Energy =                       -525.5469895087622945
  Basis Set: (AUG-CC-PVTZ AUX)
    Blend: AUG-CC-PVTZ-RI
    Molecular point group: c1

    Geometry (in Angstrom), charge = 0, multiplicity = 1:

       Center              X                  Y                   Z               Mass
    ------------   -----------------  -----------------  -----------------  -----------------
         N           -1.746157084121     0.682373888030     0.088564973099    14.003074004430
         N           -1.449320084121    -1.527167111970    -0.180249026901    14.003074004430
         N            1.096561915879     1.058708888030    -0.288559026901    14.003074004430
         N            1.350321915879    -1.267584111970     0.281549973099    14.003074004430
         C           -0.835931084121    -0.346399111970    -0.022087026901    12.000000000000
         C            0.615499915879    -0.170911111970    -0.003382026901    12.000000000000
         C           -2.896406584121     0.126217188030     0.000466873099    12.000000000000
         C           -2.781741084121    -1.240572111970    -0.169667026901    12.000000000000
         C            2.433044915879     1.189464888030    -0.285253026901    12.000000000000
         C            2.678907915879    -1.104088111970     0.255440973099    12.000000000000
         C            3.284596915879     0.121045888030    -0.025763026901    12.000000000000
         H           -3.890708084121     0.712706888030     0.067330973099     1.007825032230
         H           -3.526416084121    -2.017720111970    -0.284347026901     1.007825032230
         H            2.818258915879     2.182987888030    -0.509854026901     1.007825032230
         H            3.272566915879    -1.989524111970     0.478209973099     1.007825032230
         H            4.363810915879     0.235619888030    -0.036566026901     1.007825032230
         C           -1.511667084121     2.108150888030     0.299297973099    12.000000000000
         H           -0.814606084121     2.254963888030     1.123511973099     1.007825032230
         H           -1.093976084121     2.564622888030    -0.596911026901     1.007825032230
         H           -2.471463084121     2.565107888030     0.545827973099     1.007825032230

  Basis Set: AUG-CC-PVTZ
    Blend: AUG-CC-PVTZ
  Basis Set: (AUG-CC-PVTZ AUX)
    Blend: AUG-CC-PVTZ-JKFIT
	 Reference Energy          =    -525.5469895087622945 [Eh]
	 Singles Energy            =      -0.0000000000000000 [Eh]
	 Same-Spin Energy          =      -0.5782626206856669 [Eh]
	 Opposite-Spin Energy      =      -1.7374193400345219 [Eh]
	 Correlation Energy        =      -2.3156819607201888 [Eh]
	 Total Energy              =    -527.8626714694825068 [Eh]

	 ================> DF-SCS-MP2 Energies <==================
	-----------------------------------------------------------
	 SCS Same-Spin Scale       =       0.3333333333333333 [-]
	 SCS Opposite-Spin Scale   =       1.2000000000000000 [-]
	 SCS Same-Spin Energy      =      -0.1927542068952223 [Eh]
	 SCS Opposite-Spin Energy  =      -2.0849032080414260 [Eh]
	 SCS Correlation Energy    =      -2.2776574149366482 [Eh]
	 SCS Total Energy          =    -527.8246469236989924 [Eh]
	-----------------------------------------------------------

  Dipole Moment: [D]
     X:     1.2705      Y:     4.2086      Z:     0.4947     Total:     4.4240

*** Psi4 exiting successfully. Buy a developer a beer!
