                               Psi4 1.3.2 release

  ==> Input File <==

--------------------------------------------------------------------------
#psi4
#
memory 32 gb

molecule  {
0 1
  N       -1.7314010     0.6447010     0.0841650
  N       -1.4717110    -1.7013592    -0.2029463
  N        1.1113180     1.0210360    -0.2929590
  N        1.3650780    -1.3052570     0.2771500
  C       -0.8211750    -0.3840720    -0.0264870
  C        0.6302560    -0.2085840    -0.0077820
  C       -2.9774260     0.0775420    -0.0074450
  C       -2.7669850    -1.2782450    -0.1740670
  C        2.4478010     1.1517920    -0.2896530
  C        2.6936640    -1.1417610     0.2510410
  C        3.2993530     0.0833730    -0.0301630
  H       -3.8759520     0.6750340     0.0629310
  H       -3.5116600    -2.0553930    -0.2887470
  H        2.8330150     2.1453150    -0.5142540
  H        3.2873230    -2.0271970     0.4738100
  H        4.3785670     0.1979470    -0.0409660
  C       -1.4969110     2.0704780     0.2948980
  H       -0.7998500     2.2172910     1.1191120
  H       -1.0792200     2.5269500    -0.6013110
  H       -2.4567070     2.5274350     0.5414280
units angstrom
no_reorient  #important for SAPT in psi4, default
symmetry c1  #important for SAPT in psi4, default
}

set PROPERTIES_ORIGIN ["COM"]
properties('MP2/aug-cc-pvtz', properties = ['dipole'])
--------------------------------------------------------------------------

    Molecular point group: c1
  Charge       = 0
  Multiplicity = 1
  Basis Set: AUG-CC-PVTZ
    Blend: AUG-CC-PVTZ
  Basis Set: (AUG-CC-PVTZ AUX)
    Blend: AUG-CC-PVTZ-JKFIT

    Orbital Energies [Eh]
    ---------------------

    Doubly Occupied:

       1A    -15.642238     2A    -15.579924     3A    -15.574568
       4A    -15.565757     5A    -11.334333     6A    -11.309534
       7A    -11.305975     8A    -11.302872     9A    -11.279794
      10A    -11.258352    11A    -11.251449    12A    -11.244310
      13A     -1.336959    14A     -1.307172    15A     -1.196516
      16A     -1.167091    17A     -1.088604    18A     -1.001630
      19A     -0.978469    20A     -0.898902    21A     -0.892547
      22A     -0.797723    23A     -0.780852    24A     -0.730120
      25A     -0.702647    26A     -0.683990    27A     -0.647907
      28A     -0.639814    29A     -0.606037    30A     -0.595436
      31A     -0.588571    32A     -0.580122    33A     -0.568146
      34A     -0.539017    35A     -0.535444    36A     -0.481971
      37A     -0.446534    38A     -0.424574    39A     -0.414126
      40A     -0.393911    41A     -0.382328    42A     -0.288989

  @DF-RHF Final Energy:  -525.52926933801461

   => Energetics <=

    Nuclear Repulsion Energy =            650.2529215669126188
    One-Electron Energy =               -2002.8738741258248410
    Two-Electron Energy =                 827.0916832208976075
    Total Energy =                       -525.5292693380146147
  Basis Set: (AUG-CC-PVTZ AUX)
    Blend: AUG-CC-PVTZ-RI
    Molecular point group: c1

    Geometry (in Angstrom), charge = 0, multiplicity = 1:

       Center              X                  Y                   Z               Mass
    ------------   -----------------  -----------------  -----------------  -----------------
         N           -1.735727727433     0.695141137037     0.090428858399    14.003074004430
         N           -1.476037727433    -1.650919062963    -0.196682441601    14.003074004430
         N            1.106991272567     1.071476137037    -0.286695141601    14.003074004430
         N            1.360751272567    -1.254816862963     0.283413858399    14.003074004430
         C           -0.825501727433    -0.333631862963    -0.020223141601    12.000000000000
         C            0.625929272567    -0.158143862963    -0.001518141601    12.000000000000
         C           -2.981752727433     0.127982137037    -0.001181141601    12.000000000000
         C           -2.771311727433    -1.227804862963    -0.167803141601    12.000000000000
         C            2.443474272567     1.202232137037    -0.283389141601    12.000000000000
         C            2.689337272567    -1.091320862963     0.257304858399    12.000000000000
         C            3.295026272567     0.133813137037    -0.023899141601    12.000000000000
         H           -3.880278727433     0.725474137037     0.069194858399     1.007825032230
         H           -3.515986727433    -2.004952862963    -0.282483141601     1.007825032230
         H            2.828688272567     2.195755137037    -0.507990141601     1.007825032230
         H            3.282996272567    -1.976756862963     0.480073858399     1.007825032230
         H            4.374240272567     0.248387137037    -0.034702141601     1.007825032230
         C           -1.501237727433     2.120918137037     0.301161858399    12.000000000000
         H           -0.804176727433     2.267731137037     1.125375858399     1.007825032230
         H           -1.083546727433     2.577390137037    -0.595047141601     1.007825032230
         H           -2.461033727433     2.577875137037     0.547691858399     1.007825032230

  Basis Set: AUG-CC-PVTZ
    Blend: AUG-CC-PVTZ
  Basis Set: (AUG-CC-PVTZ AUX)
    Blend: AUG-CC-PVTZ-JKFIT
	 Reference Energy          =    -525.5292693380146147 [Eh]
	 Singles Energy            =      -0.0000000000000000 [Eh]
	 Same-Spin Energy          =      -0.5815326854761040 [Eh]
	 Opposite-Spin Energy      =      -1.7462699403320090 [Eh]
	 Correlation Energy        =      -2.3278026258081130 [Eh]
	 Total Energy              =    -527.8570719638227047 [Eh]

	 ================> DF-SCS-MP2 Energies <==================
	-----------------------------------------------------------
	 SCS Same-Spin Scale       =       0.3333333333333333 [-]
	 SCS Opposite-Spin Scale   =       1.2000000000000000 [-]
	 SCS Same-Spin Energy      =      -0.1938442284920347 [Eh]
	 SCS Opposite-Spin Energy  =      -2.0955239283984106 [Eh]
	 SCS Correlation Energy    =      -2.2893681568904451 [Eh]
	 SCS Total Energy          =    -527.8186374949050332 [Eh]
	-----------------------------------------------------------

  Dipole Moment: [D]
     X:     1.2063      Y:     4.3914      Z:     0.5195     Total:     4.5836

*** Psi4 exiting successfully. Buy a developer a beer!
