                               Psi4 1.3.2 release

  ==> Input File <==

--------------------------------------------------------------------------
#psi4
#
memory 32 gb

molecule  {
0 1
  N       -1.7314010     0.6447010     0.0841650
  N       -1.4345640    -1.5648400    -0.1846490
  N        1.1113180     1.0210360    -0.2929590
  N        1.3650780    -1.3052570     0.2771500
  C       -0.8211750    -0.3840720    -0.0264870
  C        0.6302560    -0.2085840    -0.0077820
  C       -2.9774260     0.0775420    -0.0074450
  C       -2.9625072    -1.2361895    -0.1725142
  C        2.4478010     1.1517920    -0.2896530
  C        2.6936640    -1.1417610     0.2510410
  C        3.2993530     0.0833730    -0.0301630
  H       -3.8759520     0.6750340     0.0629310
  H       -3.5116600    -2.0553930    -0.2887470
  H        2.8330150     2.1453150    -0.5142540
  H        3.2873230    -2.0271970     0.4738100
  H        4.3785670     0.1979470    -0.0409660
  C       -1.4969110     2.0704780     0.2948980
  H       -0.7998500     2.2172910     1.1191120
  H       -1.0792200     2.5269500    -0.6013110
  H       -2.4567070     2.5274350     0.5414280
units angstrom
no_reorient  #important for SAPT in psi4, default
symmetry c1  #important for SAPT in psi4, default
}

set PROPERTIES_ORIGIN ["COM"]
properties('MP2/aug-cc-pvtz', properties = ['dipole'])
--------------------------------------------------------------------------

    Molecular point group: c1
  Charge       = 0
  Multiplicity = 1
  Basis Set: AUG-CC-PVTZ
    Blend: AUG-CC-PVTZ
  Basis Set: (AUG-CC-PVTZ AUX)
    Blend: AUG-CC-PVTZ-JKFIT

    Orbital Energies [Eh]
    ---------------------

    Doubly Occupied:

       1A    -15.613863     2A    -15.583342     3A    -15.577878
       4A    -15.549663     5A    -11.335738     6A    -11.307619
       7A    -11.304654     8A    -11.299686     9A    -11.270787
      10A    -11.263932    11A    -11.254967    12A    -11.238874
      13A     -1.333562    14A     -1.306175    15A     -1.198657
      16A     -1.144457    17A     -1.089922    18A     -1.020537
      19A     -0.955867    20A     -0.904769    21A     -0.899674
      22A     -0.812219    23A     -0.779596    24A     -0.725881
      25A     -0.704784    26A     -0.686811    27A     -0.642732
      28A     -0.640758    29A     -0.618180    30A     -0.600375
      31A     -0.587466    32A     -0.581291    33A     -0.567524
      34A     -0.537869    35A     -0.534353    36A     -0.482845
      37A     -0.426582    38A     -0.423475    39A     -0.406755
      40A     -0.399516    41A     -0.352768    42A     -0.321497

  @DF-RHF Final Energy:  -525.52250594031284

   => Energetics <=

    Nuclear Repulsion Energy =            651.0296335205731566
    One-Electron Energy =               -2004.5284795662739725
    Two-Electron Energy =                 827.9763401053878624
    Total Energy =                       -525.5225059403128398
  Basis Set: (AUG-CC-PVTZ AUX)
    Blend: AUG-CC-PVTZ-RI
    Molecular point group: c1

    Geometry (in Angstrom), charge = 0, multiplicity = 1:

       Center              X                  Y                   Z               Mass
    ------------   -----------------  -----------------  -----------------  -----------------
         N           -1.724319978608     0.680045987724     0.088711836852    14.003074004430
         N           -1.427482978608    -1.529495012276    -0.180102163148    14.003074004430
         N            1.118399021392     1.056380987724    -0.288412163148    14.003074004430
         N            1.372159021392    -1.269912012276     0.281696836852    14.003074004430
         C           -0.814093978608    -0.348727012276    -0.021940163148    12.000000000000
         C            0.637337021392    -0.173239012276    -0.003235163148    12.000000000000
         C           -2.970344978608     0.112886987724    -0.002898163148    12.000000000000
         C           -2.955426178608    -1.200844512276    -0.167967363148    12.000000000000
         C            2.454882021392     1.187136987724    -0.285106163148    12.000000000000
         C            2.700745021392    -1.106416012276     0.255587836852    12.000000000000
         C            3.306434021392     0.118717987724    -0.025616163148    12.000000000000
         H           -3.868870978608     0.710378987724     0.067477836852     1.007825032230
         H           -3.504578978608    -2.020048012276    -0.284200163148     1.007825032230
         H            2.840096021392     2.180659987724    -0.509707163148     1.007825032230
         H            3.294404021392    -1.991852012276     0.478356836852     1.007825032230
         H            4.385648021392     0.233291987724    -0.036419163148     1.007825032230
         C           -1.489829978608     2.105822987724     0.299444836852    12.000000000000
         H           -0.792768978608     2.252635987724     1.123658836852     1.007825032230
         H           -1.072138978608     2.562294987724    -0.596764163148     1.007825032230
         H           -2.449625978608     2.562779987724     0.545974836852     1.007825032230

  Basis Set: AUG-CC-PVTZ
    Blend: AUG-CC-PVTZ
  Basis Set: (AUG-CC-PVTZ AUX)
    Blend: AUG-CC-PVTZ-JKFIT
	 Reference Energy          =    -525.5225059403128398 [Eh]
	 Singles Energy            =      -0.0000000000000000 [Eh]
	 Same-Spin Energy          =      -0.5764702857907311 [Eh]
	 Opposite-Spin Energy      =      -1.7408979230517458 [Eh]
	 Correlation Energy        =      -2.3173682088424767 [Eh]
	 Total Energy              =    -527.8398741491553210 [Eh]

	 ================> DF-SCS-MP2 Energies <==================
	-----------------------------------------------------------
	 SCS Same-Spin Scale       =       0.3333333333333333 [-]
	 SCS Opposite-Spin Scale   =       1.2000000000000000 [-]
	 SCS Same-Spin Energy      =      -0.1921567619302437 [Eh]
	 SCS Opposite-Spin Energy  =      -2.0890775076620951 [Eh]
	 SCS Correlation Energy    =      -2.2812342695923387 [Eh]
	 SCS Total Energy          =    -527.8037402099051860 [Eh]
	-----------------------------------------------------------

  Dipole Moment: [D]
     X:     1.6946      Y:     4.0690      Z:     0.4782     Total:     4.4336

*** Psi4 exiting successfully. Buy a developer a beer!
