                               Psi4 1.3.2 release

  ==> Input File <==

--------------------------------------------------------------------------
#psi4
#
memory 32 gb

molecule  {
0 1
  N       -1.7314010     0.6447010     0.0841650
  N       -1.4345640    -1.5648400    -0.1846490
  N        1.1113180     1.0210360    -0.2929590
  N        1.3650780    -1.3052570     0.2771500
  C       -0.8211750    -0.3840720    -0.0264870
  C        0.6302560    -0.2085840    -0.0077820
  C       -2.9774260     0.0775420    -0.0074450
  C       -2.7974373    -1.0820530    -0.1499556
  C        2.4478010     1.1517920    -0.2896530
  C        2.6936640    -1.1417610     0.2510410
  C        3.2993530     0.0833730    -0.0301630
  H       -3.8759520     0.6750340     0.0629310
  H       -3.5116600    -2.0553930    -0.2887470
  H        2.8330150     2.1453150    -0.5142540
  H        3.2873230    -2.0271970     0.4738100
  H        4.3785670     0.1979470    -0.0409660
  C       -1.4969110     2.0704780     0.2948980
  H       -0.7998500     2.2172910     1.1191120
  H       -1.0792200     2.5269500    -0.6013110
  H       -2.4567070     2.5274350     0.5414280
units angstrom
no_reorient  #important for SAPT in psi4, default
symmetry c1  #important for SAPT in psi4, default
}

set PROPERTIES_ORIGIN ["COM"]
properties('MP2/aug-cc-pvtz', properties = ['dipole'])
--------------------------------------------------------------------------

    Molecular point group: c1
  Charge       = 0
  Multiplicity = 1
  Basis Set: AUG-CC-PVTZ
    Blend: AUG-CC-PVTZ
  Basis Set: (AUG-CC-PVTZ AUX)
    Blend: AUG-CC-PVTZ-JKFIT

    Orbital Energies [Eh]
    ---------------------

    Doubly Occupied:

       1A    -15.607846     2A    -15.584559     3A    -15.579919
       4A    -15.546115     5A    -11.335809     6A    -11.308624
       7A    -11.306068     8A    -11.302851     9A    -11.268108
      10A    -11.256575    11A    -11.231963    12A    -11.223767
      13A     -1.349666    14A     -1.312547    15A     -1.200446
      16A     -1.160442    17A     -1.097200    18A     -1.042671
      19A     -0.956921    20A     -0.906029    21A     -0.901922
      22A     -0.800673    23A     -0.778779    24A     -0.719555
      25A     -0.703970    26A     -0.688911    27A     -0.647522
      28A     -0.642718    29A     -0.606550    30A     -0.595019
      31A     -0.590340    32A     -0.582942    33A     -0.566218
      34A     -0.548350    35A     -0.495232    36A     -0.481507
      37A     -0.447173    38A     -0.426965    39A     -0.417261
      40A     -0.405130    41A     -0.363244    42A     -0.333553

  @DF-RHF Final Energy:  -525.49488060431702

   => Energetics <=

    Nuclear Repulsion Energy =            656.7476577364344621
    One-Electron Energy =               -2015.8417528396932994
    Two-Electron Energy =                 833.5992144989419330
    Total Energy =                       -525.4948806043170180
  Basis Set: (AUG-CC-PVTZ AUX)
    Blend: AUG-CC-PVTZ-RI
    Molecular point group: c1

    Geometry (in Angstrom), charge = 0, multiplicity = 1:

       Center              X                  Y                   Z               Mass
    ------------   -----------------  -----------------  -----------------  -----------------
         N           -1.736694428606     0.668491159059     0.087020733461    14.003074004430
         N           -1.439857428606    -1.541049840941    -0.181793266539    14.003074004430
         N            1.106024571394     1.044826159059    -0.290103266539    14.003074004430
         N            1.359784571394    -1.281466840941     0.280005733461    14.003074004430
         C           -0.826468428606    -0.360281840941    -0.023631266539    12.000000000000
         C            0.624962571394    -0.184793840941    -0.004926266539    12.000000000000
         C           -2.982719428606     0.101332159059    -0.004589266539    12.000000000000
         C           -2.802730728606    -1.058262840941    -0.147099866539    12.000000000000
         C            2.442507571394     1.175582159059    -0.286797266539    12.000000000000
         C            2.688370571394    -1.117970840941     0.253896733461    12.000000000000
         C            3.294059571394     0.107163159059    -0.027307266539    12.000000000000
         H           -3.881245428606     0.698824159059     0.065786733461     1.007825032230
         H           -3.516953428606    -2.031602840941    -0.285891266539     1.007825032230
         H            2.827721571394     2.169105159059    -0.511398266539     1.007825032230
         H            3.282029571394    -2.003406840941     0.476665733461     1.007825032230
         H            4.373273571394     0.221737159059    -0.038110266539     1.007825032230
         C           -1.502204428606     2.094268159059     0.297753733461    12.000000000000
         H           -0.805143428606     2.241081159059     1.121967733461     1.007825032230
         H           -1.084513428606     2.550740159059    -0.598455266539     1.007825032230
         H           -2.462000428606     2.551225159059     0.544283733461     1.007825032230

  Basis Set: AUG-CC-PVTZ
    Blend: AUG-CC-PVTZ
  Basis Set: (AUG-CC-PVTZ AUX)
    Blend: AUG-CC-PVTZ-JKFIT
	 Reference Energy          =    -525.4948806043170180 [Eh]
	 Singles Energy            =      -0.0000000000000000 [Eh]
	 Same-Spin Energy          =      -0.5759404395095469 [Eh]
	 Opposite-Spin Energy      =      -1.7372504975466936 [Eh]
	 Correlation Energy        =      -2.3131909370562402 [Eh]
	 Total Energy              =    -527.8080715413732378 [Eh]

	 ================> DF-SCS-MP2 Energies <==================
	-----------------------------------------------------------
	 SCS Same-Spin Scale       =       0.3333333333333333 [-]
	 SCS Opposite-Spin Scale   =       1.2000000000000000 [-]
	 SCS Same-Spin Energy      =      -0.1919801465031823 [Eh]
	 SCS Opposite-Spin Energy  =      -2.0847005970560324 [Eh]
	 SCS Correlation Energy    =      -2.2766807435592149 [Eh]
	 SCS Total Energy          =    -527.7715613478762862 [Eh]
	-----------------------------------------------------------

  Dipole Moment: [D]
     X:     1.7625      Y:     4.1749      Z:     0.4893     Total:     4.5580

*** Psi4 exiting successfully. Buy a developer a beer!
