                               Psi4 1.3.2 release

  ==> Input File <==

--------------------------------------------------------------------------
#psi4
#
memory 32 gb

molecule  {
0 1
  N       -1.7314010     0.6447010     0.0841650
  N       -1.4345640    -1.5648400    -0.1846490
  N        1.1113180     1.0210360    -0.2929590
  N        1.3650780    -1.3052570     0.2771500
  C       -0.8578306    -0.4149021    -0.0309226
  C        0.6302560    -0.2085840    -0.0077820
  C       -2.9774260     0.0775420    -0.0074450
  C       -2.7669850    -1.2782450    -0.1740670
  C        2.4478010     1.1517920    -0.2896530
  C        2.6936640    -1.1417610     0.2510410
  C        3.2993530     0.0833730    -0.0301630
  H       -3.8759520     0.6750340     0.0629310
  H       -3.5116600    -2.0553930    -0.2887470
  H        2.8330150     2.1453150    -0.5142540
  H        3.2873230    -2.0271970     0.4738100
  H        4.3785670     0.1979470    -0.0409660
  C       -1.4969110     2.0704780     0.2948980
  H       -0.7998500     2.2172910     1.1191120
  H       -1.0792200     2.5269500    -0.6013110
  H       -2.4567070     2.5274350     0.5414280
units angstrom
no_reorient  #important for SAPT in psi4, default
symmetry c1  #important for SAPT in psi4, default
}

set PROPERTIES_ORIGIN ["COM"]
properties('MP2/aug-cc-pvtz', properties = ['dipole'])
--------------------------------------------------------------------------

    Molecular point group: c1
  Charge       = 0
  Multiplicity = 1
  Basis Set: AUG-CC-PVTZ
    Blend: AUG-CC-PVTZ
  Basis Set: (AUG-CC-PVTZ AUX)
    Blend: AUG-CC-PVTZ-JKFIT

    Orbital Energies [Eh]
    ---------------------

    Doubly Occupied:

       1A    -15.620893     2A    -15.580708     3A    -15.574981
       4A    -15.543176     5A    -11.334845     6A    -11.306178
       7A    -11.302981     8A    -11.295228     9A    -11.273586
      10A    -11.258563    11A    -11.252216    12A    -11.238956
      13A     -1.349205    14A     -1.308292    15A     -1.199849
      16A     -1.185565    17A     -1.085853    18A     -1.007465
      19A     -0.967623    20A     -0.898847    21A     -0.890481
      22A     -0.805693    23A     -0.780957    24A     -0.727072
      25A     -0.702423    26A     -0.685872    27A     -0.646361
      28A     -0.637678    29A     -0.607064    30A     -0.593052
      31A     -0.589132    32A     -0.578368    33A     -0.566847
      34A     -0.555125    35A     -0.547060    36A     -0.478929
      37A     -0.439613    38A     -0.424217    39A     -0.413170
      40A     -0.396832    41A     -0.379282    42A     -0.301549

  @DF-RHF Final Energy:  -525.55864926717118

   => Energetics <=

    Nuclear Repulsion Energy =            654.1527051458465394
    One-Electron Energy =               -2010.7591410893967350
    Two-Electron Energy =                 831.0477866763790189
    Total Energy =                       -525.5586492671711767
  Basis Set: (AUG-CC-PVTZ AUX)
    Blend: AUG-CC-PVTZ-RI
    Molecular point group: c1

    Geometry (in Angstrom), charge = 0, multiplicity = 1:

       Center              X                  Y                   Z               Mass
    ------------   -----------------  -----------------  -----------------  -----------------
         N           -1.736229398787     0.685509850081     0.089160756712    14.003074004430
         N           -1.439392398787    -1.524031149919    -0.179653243288    14.003074004430
         N            1.106489601213     1.061844850081    -0.287963243288    14.003074004430
         N            1.360249601213    -1.264448149919     0.282145756712    14.003074004430
         C           -0.862658998787    -0.374093249919    -0.025926843288    12.000000000000
         C            0.625427601213    -0.167775149919    -0.002786243288    12.000000000000
         C           -2.982254398787     0.118350850081    -0.002449243288    12.000000000000
         C           -2.771813398787    -1.237436149919    -0.169071243288    12.000000000000
         C            2.442972601213     1.192600850081    -0.284657243288    12.000000000000
         C            2.688835601213    -1.100952149919     0.256036756712    12.000000000000
         C            3.294524601213     0.124181850081    -0.025167243288    12.000000000000
         H           -3.880780398787     0.715842850081     0.067926756712     1.007825032230
         H           -3.516488398787    -2.014584149919    -0.283751243288     1.007825032230
         H            2.828186601213     2.186123850081    -0.509258243288     1.007825032230
         H            3.282494601213    -1.986388149919     0.478805756712     1.007825032230
         H            4.373738601213     0.238755850081    -0.035970243288     1.007825032230
         C           -1.501739398787     2.111286850081     0.299893756712    12.000000000000
         H           -0.804678398787     2.258099850081     1.124107756712     1.007825032230
         H           -1.084048398787     2.567758850081    -0.596315243288     1.007825032230
         H           -2.461535398787     2.568243850081     0.546423756712     1.007825032230

  Basis Set: AUG-CC-PVTZ
    Blend: AUG-CC-PVTZ
  Basis Set: (AUG-CC-PVTZ AUX)
    Blend: AUG-CC-PVTZ-JKFIT
	 Reference Energy          =    -525.5586492671711767 [Eh]
	 Singles Energy            =      -0.0000000000000000 [Eh]
	 Same-Spin Energy          =      -0.5765028633336458 [Eh]
	 Opposite-Spin Energy      =      -1.7360634805112891 [Eh]
	 Correlation Energy        =      -2.3125663438449351 [Eh]
	 Total Energy              =    -527.8712156110161686 [Eh]

	 ================> DF-SCS-MP2 Energies <==================
	-----------------------------------------------------------
	 SCS Same-Spin Scale       =       0.3333333333333333 [-]
	 SCS Opposite-Spin Scale   =       1.2000000000000000 [-]
	 SCS Same-Spin Energy      =      -0.1921676211112152 [Eh]
	 SCS Opposite-Spin Energy  =      -2.0832761766135470 [Eh]
	 SCS Correlation Energy    =      -2.2754437977247624 [Eh]
	 SCS Total Energy          =    -527.8340930648959102 [Eh]
	-----------------------------------------------------------

  Dipole Moment: [D]
     X:     1.5278      Y:     4.0685      Z:     0.4733     Total:     4.3716

*** Psi4 exiting successfully. Buy a developer a beer!
