                               Psi4 1.3.2 release

  ==> Input File <==

--------------------------------------------------------------------------
#psi4
#
memory 32 gb

molecule  {
0 1
  N       -1.7314010     0.6447010     0.0841650
  N       -1.4345640    -1.5648400    -0.1846490
  N        1.1113180     1.0210360    -0.2929590
  N        1.3650780    -1.3052570     0.2771500
  C       -0.8211750    -0.3840720    -0.0264870
  C        0.4317183    -0.2325886    -0.0103406
  C       -2.9774260     0.0775420    -0.0074450
  C       -2.7669850    -1.2782450    -0.1740670
  C        2.4478010     1.1517920    -0.2896530
  C        2.6936640    -1.1417610     0.2510410
  C        3.2993530     0.0833730    -0.0301630
  H       -3.8759520     0.6750340     0.0629310
  H       -3.5116600    -2.0553930    -0.2887470
  H        2.8330150     2.1453150    -0.5142540
  H        3.2873230    -2.0271970     0.4738100
  H        4.3785670     0.1979470    -0.0409660
  C       -1.4969110     2.0704780     0.2948980
  H       -0.7998500     2.2172910     1.1191120
  H       -1.0792200     2.5269500    -0.6013110
  H       -2.4567070     2.5274350     0.5414280
units angstrom
no_reorient  #important for SAPT in psi4, default
symmetry c1  #important for SAPT in psi4, default
}

set PROPERTIES_ORIGIN ["COM"]
properties('MP2/aug-cc-pvtz', properties = ['dipole'])
--------------------------------------------------------------------------

    Molecular point group: c1
  Charge       = 0
  Multiplicity = 1
  Basis Set: AUG-CC-PVTZ
    Blend: AUG-CC-PVTZ
  Basis Set: (AUG-CC-PVTZ AUX)
    Blend: AUG-CC-PVTZ-JKFIT

    Orbital Energies [Eh]
    ---------------------

    Doubly Occupied:

       1A    -15.642446     2A    -15.571860     3A    -15.567654
       4A    -15.566745     5A    -11.332960     6A    -11.292282
       7A    -11.288845     8A    -11.288836     9A    -11.282864
      10A    -11.280161    11A    -11.257541    12A    -11.238177
      13A     -1.363034    14A     -1.265551    15A     -1.199075
      16A     -1.154245    17A     -1.106631    18A     -1.017978
      19A     -0.984549    20A     -0.909893    21A     -0.871882
      22A     -0.816797    23A     -0.792742    24A     -0.739084
      25A     -0.683106    26A     -0.678171    27A     -0.658301
      28A     -0.650875    29A     -0.606120    30A     -0.601395
      31A     -0.586000    32A     -0.580024    33A     -0.570520
      34A     -0.567871    35A     -0.536513    36A     -0.468272
      37A     -0.450354    38A     -0.407412    39A     -0.404534
      40A     -0.387350    41A     -0.373423    42A     -0.289988

  @DF-RHF Final Energy:  -525.48127234889603

   => Energetics <=

    Nuclear Repulsion Energy =            654.4160079028639529
    One-Electron Energy =               -2011.1304403210078817
    Two-Electron Energy =                 831.2331600692480151
    Total Energy =                       -525.4812723488960273
  Basis Set: (AUG-CC-PVTZ AUX)
    Blend: AUG-CC-PVTZ-RI
    Molecular point group: c1

    Geometry (in Angstrom), charge = 0, multiplicity = 1:

       Center              X                  Y                   Z               Mass
    ------------   -----------------  -----------------  -----------------  -----------------
         N           -1.724093921925     0.684998177096     0.089020047578    14.003074004430
         N           -1.427256921925    -1.524542822904    -0.179793952422    14.003074004430
         N            1.118625078075     1.061333177096    -0.288103952422    14.003074004430
         N            1.372385078075    -1.264959822904     0.282005047578    14.003074004430
         C           -0.813867921925    -0.343774822904    -0.021631952422    12.000000000000
         C            0.439025378075    -0.192291422904    -0.005485552422    12.000000000000
         C           -2.970118921925     0.117839177096    -0.002589952422    12.000000000000
         C           -2.759677921925    -1.237947822904    -0.169211952422    12.000000000000
         C            2.455108078075     1.192089177096    -0.284797952422    12.000000000000
         C            2.700971078075    -1.101463822904     0.255896047578    12.000000000000
         C            3.306660078075     0.123670177096    -0.025307952422    12.000000000000
         H           -3.868644921925     0.715331177096     0.067786047578     1.007825032230
         H           -3.504352921925    -2.015095822904    -0.283891952422     1.007825032230
         H            2.840322078075     2.185612177096    -0.509398952422     1.007825032230
         H            3.294630078075    -1.986899822904     0.478665047578     1.007825032230
         H            4.385874078075     0.238244177096    -0.036110952422     1.007825032230
         C           -1.489603921925     2.110775177096     0.299753047578    12.000000000000
         H           -0.792542921925     2.257588177096     1.123967047578     1.007825032230
         H           -1.071912921925     2.567247177096    -0.596455952422     1.007825032230
         H           -2.449399921925     2.567732177096     0.546283047578     1.007825032230

  Basis Set: AUG-CC-PVTZ
    Blend: AUG-CC-PVTZ
  Basis Set: (AUG-CC-PVTZ AUX)
    Blend: AUG-CC-PVTZ-JKFIT
	 Reference Energy          =    -525.4812723488960273 [Eh]
	 Singles Energy            =      -0.0000000000000000 [Eh]
	 Same-Spin Energy          =      -0.5850665424968234 [Eh]
	 Opposite-Spin Energy      =      -1.7503516165241653 [Eh]
	 Correlation Energy        =      -2.3354181590209886 [Eh]
	 Total Energy              =    -527.8166905079169737 [Eh]

	 ================> DF-SCS-MP2 Energies <==================
	-----------------------------------------------------------
	 SCS Same-Spin Scale       =       0.3333333333333333 [-]
	 SCS Opposite-Spin Scale   =       1.2000000000000000 [-]
	 SCS Same-Spin Energy      =      -0.1950221808322745 [Eh]
	 SCS Opposite-Spin Energy  =      -2.1004219398289981 [Eh]
	 SCS Correlation Energy    =      -2.2954441206612723 [Eh]
	 SCS Total Energy          =    -527.7767164695573001 [Eh]
	-----------------------------------------------------------

  Dipole Moment: [D]
     X:    -0.2388      Y:     4.0275      Z:     0.4629     Total:     4.0610

*** Psi4 exiting successfully. Buy a developer a beer!
