                               Psi4 1.3.2 release

  ==> Input File <==

--------------------------------------------------------------------------
#psi4
#
memory 32 gb

molecule  {
0 1
  N       -1.7314010     0.6447010     0.0841650
  N       -1.4345640    -1.5648400    -0.1846490
  N        1.1113180     1.0210360    -0.2929590
  N        1.3650780    -1.3052570     0.2771500
  C       -0.8211750    -0.3840720    -0.0264870
  C        0.5434099    -0.1734904    -0.0185526
  C       -2.9774260     0.0775420    -0.0074450
  C       -2.7669850    -1.2782450    -0.1740670
  C        2.4478010     1.1517920    -0.2896530
  C        2.6936640    -1.1417610     0.2510410
  C        3.2993530     0.0833730    -0.0301630
  H       -3.8759520     0.6750340     0.0629310
  H       -3.5116600    -2.0553930    -0.2887470
  H        2.8330150     2.1453150    -0.5142540
  H        3.2873230    -2.0271970     0.4738100
  H        4.3785670     0.1979470    -0.0409660
  C       -1.4969110     2.0704780     0.2948980
  H       -0.7998500     2.2172910     1.1191120
  H       -1.0792200     2.5269500    -0.6013110
  H       -2.4567070     2.5274350     0.5414280
units angstrom
no_reorient  #important for SAPT in psi4, default
symmetry c1  #important for SAPT in psi4, default
}

set PROPERTIES_ORIGIN ["COM"]
properties('MP2/aug-cc-pvtz', properties = ['dipole'])
--------------------------------------------------------------------------

    Molecular point group: c1
  Charge       = 0
  Multiplicity = 1
  Basis Set: AUG-CC-PVTZ
    Blend: AUG-CC-PVTZ
  Basis Set: (AUG-CC-PVTZ AUX)
    Blend: AUG-CC-PVTZ-JKFIT

    Orbital Energies [Eh]
    ---------------------

    Doubly Occupied:

       1A    -15.631438     2A    -15.576377     3A    -15.573506
       4A    -15.554884     5A    -11.333920     6A    -11.301133
       7A    -11.295991     8A    -11.294605     9A    -11.276462
      10A    -11.267768    11A    -11.247620    12A    -11.246801
      13A     -1.351133    14A     -1.292381    15A     -1.190739
      16A     -1.173919    17A     -1.092197    18A     -1.014619
      19A     -0.975536    20A     -0.900176    21A     -0.886505
      22A     -0.809075    23A     -0.789688    24A     -0.730952
      25A     -0.696177    26A     -0.682616    27A     -0.651286
      28A     -0.642655    29A     -0.605930    30A     -0.595886
      31A     -0.586223    32A     -0.579167    33A     -0.570559
      34A     -0.562932    35A     -0.544285    36A     -0.478670
      37A     -0.441174    38A     -0.417624    39A     -0.398762
      40A     -0.395664    41A     -0.380622    42A     -0.297488

  @DF-RHF Final Energy:  -525.54084830254590

   => Energetics <=

    Nuclear Repulsion Energy =            654.2363930121290423
    One-Electron Energy =               -2010.8841936115313729
    Two-Electron Energy =                 831.1069522968563206
    Total Energy =                       -525.5408483025458963
  Basis Set: (AUG-CC-PVTZ AUX)
    Blend: AUG-CC-PVTZ-RI
    Molecular point group: c1

    Geometry (in Angstrom), charge = 0, multiplicity = 1:

       Center              X                  Y                   Z               Mass
    ------------   -----------------  -----------------  -----------------  -----------------
         N           -1.732466872532     0.680567885922     0.089635659409    14.003074004430
         N           -1.435629872532    -1.528973114078    -0.179178340591    14.003074004430
         N            1.110252127468     1.056902885922    -0.287488340591    14.003074004430
         N            1.364012127468    -1.269390114078     0.282620659409    14.003074004430
         C           -0.822240872532    -0.348205114078    -0.021016340591    12.000000000000
         C            0.542344027468    -0.137623514078    -0.013081940591    12.000000000000
         C           -2.978491872532     0.113408885922    -0.001974340591    12.000000000000
         C           -2.768050872532    -1.242378114078    -0.168596340591    12.000000000000
         C            2.446735127468     1.187658885922    -0.284182340591    12.000000000000
         C            2.692598127468    -1.105894114078     0.256511659409    12.000000000000
         C            3.298287127468     0.119239885922    -0.024692340591    12.000000000000
         H           -3.877017872532     0.710900885922     0.068401659409     1.007825032230
         H           -3.512725872532    -2.019526114078    -0.283276340591     1.007825032230
         H            2.831949127468     2.181181885922    -0.508783340591     1.007825032230
         H            3.286257127468    -1.991330114078     0.479280659409     1.007825032230
         H            4.377501127468     0.233813885922    -0.035495340591     1.007825032230
         C           -1.497976872532     2.106344885922     0.300368659409    12.000000000000
         H           -0.800915872532     2.253157885922     1.124582659409     1.007825032230
         H           -1.080285872532     2.562816885922    -0.595840340591     1.007825032230
         H           -2.457772872532     2.563301885922     0.546898659409     1.007825032230

  Basis Set: AUG-CC-PVTZ
    Blend: AUG-CC-PVTZ
  Basis Set: (AUG-CC-PVTZ AUX)
    Blend: AUG-CC-PVTZ-JKFIT
	 Reference Energy          =    -525.5408483025458963 [Eh]
	 Singles Energy            =      -0.0000000000000000 [Eh]
	 Same-Spin Energy          =      -0.5803223169104220 [Eh]
	 Opposite-Spin Energy      =      -1.7423762242784808 [Eh]
	 Correlation Energy        =      -2.3226985411889030 [Eh]
	 Total Energy              =    -527.8635468437347527 [Eh]

	 ================> DF-SCS-MP2 Energies <==================
	-----------------------------------------------------------
	 SCS Same-Spin Scale       =       0.3333333333333333 [-]
	 SCS Opposite-Spin Scale   =       1.2000000000000000 [-]
	 SCS Same-Spin Energy      =      -0.1934407723034740 [Eh]
	 SCS Opposite-Spin Energy  =      -2.0908514691341771 [Eh]
	 SCS Correlation Energy    =      -2.2842922414376510 [Eh]
	 SCS Total Energy          =    -527.8251405439835935 [Eh]
	-----------------------------------------------------------

  Dipole Moment: [D]
     X:     0.6953      Y:     4.1125      Z:     0.4584     Total:     4.1959

*** Psi4 exiting successfully. Buy a developer a beer!
