                               Psi4 1.3.2 release

  ==> Input File <==

--------------------------------------------------------------------------
#psi4
#
memory 32 gb

molecule  {
0 1
  N       -1.7314010     0.6447010     0.0841650
  N       -1.4345640    -1.5648400    -0.1846490
  N        1.1113180     1.0210360    -0.2929590
  N        1.3650780    -1.3052570     0.2771500
  C       -0.7551251    -0.4587241    -0.0345164
  C        0.6302560    -0.2085840    -0.0077820
  C       -2.9774260     0.0775420    -0.0074450
  C       -2.7669850    -1.2782450    -0.1740670
  C        2.4478010     1.1517920    -0.2896530
  C        2.6936640    -1.1417610     0.2510410
  C        3.2993530     0.0833730    -0.0301630
  H       -3.8759520     0.6750340     0.0629310
  H       -3.5116600    -2.0553930    -0.2887470
  H        2.8330150     2.1453150    -0.5142540
  H        3.2873230    -2.0271970     0.4738100
  H        4.3785670     0.1979470    -0.0409660
  C       -1.4969110     2.0704780     0.2948980
  H       -0.7998500     2.2172910     1.1191120
  H       -1.0792200     2.5269500    -0.6013110
  H       -2.4567070     2.5274350     0.5414280
units angstrom
no_reorient  #important for SAPT in psi4, default
symmetry c1  #important for SAPT in psi4, default
}

set PROPERTIES_ORIGIN ["COM"]
properties('MP2/aug-cc-pvtz', properties = ['dipole'])
--------------------------------------------------------------------------

    Molecular point group: c1
  Charge       = 0
  Multiplicity = 1
  Basis Set: AUG-CC-PVTZ
    Blend: AUG-CC-PVTZ
  Basis Set: (AUG-CC-PVTZ AUX)
    Blend: AUG-CC-PVTZ-JKFIT

    Orbital Energies [Eh]
    ---------------------

    Doubly Occupied:

       1A    -15.617822     2A    -15.580839     3A    -15.573930
       4A    -15.552785     5A    -11.330328     6A    -11.306516
       7A    -11.302482     8A    -11.296860     9A    -11.267956
      10A    -11.267376    11A    -11.251705    12A    -11.239818
      13A     -1.333589    14A     -1.304655    15A     -1.198869
      16A     -1.178119    17A     -1.093877    18A     -1.010694
      19A     -0.960253    20A     -0.900343    21A     -0.895865
      22A     -0.795753    23A     -0.789965    24A     -0.722537
      25A     -0.703411    26A     -0.685053    27A     -0.643486
      28A     -0.636668    29A     -0.608039    30A     -0.594179
      31A     -0.589529    32A     -0.578266    33A     -0.567174
      34A     -0.556536    35A     -0.538750    36A     -0.482791
      37A     -0.433058    38A     -0.424659    39A     -0.412002
      40A     -0.403500    41A     -0.375877    42A     -0.295279

  @DF-RHF Final Energy:  -525.54451736307090

   => Energetics <=

    Nuclear Repulsion Energy =            653.7836807785715791
    One-Electron Energy =               -2010.0540131671871222
    Two-Electron Energy =                 830.7258150255446481
    Total Energy =                       -525.5445173630708950
  Basis Set: (AUG-CC-PVTZ AUX)
    Blend: AUG-CC-PVTZ-RI
    Molecular point group: c1

    Geometry (in Angstrom), charge = 0, multiplicity = 1:

       Center              X                  Y                   Z               Mass
    ------------   -----------------  -----------------  -----------------  -----------------
         N           -1.743928707228     0.688794962314     0.089430165601    14.003074004430
         N           -1.447091707228    -1.520746037686    -0.179383834399    14.003074004430
         N            1.098790292772     1.065129962314    -0.287693834399    14.003074004430
         N            1.352550292772    -1.261163037686     0.282415165601    14.003074004430
         C           -0.767652807228    -0.414630137686    -0.029251234399    12.000000000000
         C            0.617728292772    -0.164490037686    -0.002516834399    12.000000000000
         C           -2.989953707228     0.121635962314    -0.002179834399    12.000000000000
         C           -2.779512707228    -1.234151037686    -0.168801834399    12.000000000000
         C            2.435273292772     1.195885962314    -0.284387834399    12.000000000000
         C            2.681136292772    -1.097667037686     0.256306165601    12.000000000000
         C            3.286825292772     0.127466962314    -0.024897834399    12.000000000000
         H           -3.888479707228     0.719127962314     0.068196165601     1.007825032230
         H           -3.524187707228    -2.011299037686    -0.283481834399     1.007825032230
         H            2.820487292772     2.189408962314    -0.508988834399     1.007825032230
         H            3.274795292772    -1.983103037686     0.479075165601     1.007825032230
         H            4.366039292772     0.242040962314    -0.035700834399     1.007825032230
         C           -1.509438707228     2.114571962314     0.300163165601    12.000000000000
         H           -0.812377707228     2.261384962314     1.124377165601     1.007825032230
         H           -1.091747707228     2.571043962314    -0.596045834399     1.007825032230
         H           -2.469234707228     2.571528962314     0.546693165601     1.007825032230

  Basis Set: AUG-CC-PVTZ
    Blend: AUG-CC-PVTZ
  Basis Set: (AUG-CC-PVTZ AUX)
    Blend: AUG-CC-PVTZ-JKFIT
	 Reference Energy          =    -525.5445173630708950 [Eh]
	 Singles Energy            =      -0.0000000000000000 [Eh]
	 Same-Spin Energy          =      -0.5790255291734249 [Eh]
	 Opposite-Spin Energy      =      -1.7402803649052316 [Eh]
	 Correlation Energy        =      -2.3193058940786564 [Eh]
	 Total Energy              =    -527.8638232571495337 [Eh]

	 ================> DF-SCS-MP2 Energies <==================
	-----------------------------------------------------------
	 SCS Same-Spin Scale       =       0.3333333333333333 [-]
	 SCS Opposite-Spin Scale   =       1.2000000000000000 [-]
	 SCS Same-Spin Energy      =      -0.1930085097244749 [Eh]
	 SCS Opposite-Spin Energy  =      -2.0883364378862779 [Eh]
	 SCS Correlation Energy    =      -2.2813449476107528 [Eh]
	 SCS Total Energy          =    -527.8258623106816003 [Eh]
	-----------------------------------------------------------

  Dipole Moment: [D]
     X:     1.3764      Y:     3.9048      Z:     0.4438     Total:     4.1640

*** Psi4 exiting successfully. Buy a developer a beer!
