                               Psi4 1.4a3.dev225

  ==> Input File <==

--------------------------------------------------------------------------
#psi4
#
memory 32 gb

molecule  {
0 1
  N       -1.7314010     0.6447010     0.0841650
  N       -1.4345640    -1.5648400    -0.1846490
  N        1.1113180     1.0210360    -0.2929590
  N        1.3650780    -1.3052570     0.2771500
  C       -0.8211750    -0.3840720    -0.0264870
  C        0.6302560    -0.2085840    -0.0077820
  C       -2.9774260     0.0775420    -0.0074450
  C       -2.7593719    -1.3272930    -0.1800948
  C        2.4478010     1.1517920    -0.2896530
  C        2.6936640    -1.1417610     0.2510410
  C        3.2993530     0.0833730    -0.0301630
  H       -3.8759520     0.6750340     0.0629310
  H       -3.5116600    -2.0553930    -0.2887470
  H        2.8330150     2.1453150    -0.5142540
  H        3.2873230    -2.0271970     0.4738100
  H        4.3785670     0.1979470    -0.0409660
  C       -1.4969110     2.0704780     0.2948980
  H       -0.7998500     2.2172910     1.1191120
  H       -1.0792200     2.5269500    -0.6013110
  H       -2.4567070     2.5274350     0.5414280
units angstrom
no_reorient  #important for SAPT in psi4, default
symmetry c1  #important for SAPT in psi4, default
}

set PROPERTIES_ORIGIN ["COM"]
properties('MP2/aug-cc-pvtz', properties = ['dipole'])
--------------------------------------------------------------------------

    Molecular point group: c1
  Charge       = 0
  Multiplicity = 1
  Basis Set: AUG-CC-PVTZ
    Blend: AUG-CC-PVTZ
  Basis Set: (AUG-CC-PVTZ AUX)
    Blend: AUG-CC-PVTZ-JKFIT

    Orbital Energies [Eh]
    ---------------------

    Doubly Occupied:

       1A    -15.630511     2A    -15.578604     3A    -15.573400
       4A    -15.547235     5A    -11.332603     6A    -11.304961
       7A    -11.302015     8A    -11.293457     9A    -11.274737
      10A    -11.265748    11A    -11.250392    12A    -11.244328
      13A     -1.344178    14A     -1.306932    15A     -1.197613
      16A     -1.181458    17A     -1.087480    18A     -1.001950
      19A     -0.971514    20A     -0.898428    21A     -0.891326
      22A     -0.807149    23A     -0.782716    24A     -0.726992
      25A     -0.702131    26A     -0.685411    27A     -0.646435
      28A     -0.639289    29A     -0.612866    30A     -0.592533
      31A     -0.584922    32A     -0.577925    33A     -0.572459
      34A     -0.563542    35A     -0.542706    36A     -0.480259
      37A     -0.432188    38A     -0.423338    39A     -0.410633
      40A     -0.396065    41A     -0.381312    42A     -0.291075

  @DF-RHF Final Energy:  -525.55354295851134

   => Energetics <=

    Nuclear Repulsion Energy =            653.5390023370844119
    One-Electron Energy =               -2009.5234582919840705
    Two-Electron Energy =                 830.4309129963883152
    Total Energy =                       -525.5535429585113434
  Basis Set: (AUG-CC-PVTZ AUX)
    Blend: AUG-CC-PVTZ-RI
    Molecular point group: c1

    Geometry (in Angstrom), charge = 0, multiplicity = 1:

       Center              X                  Y                   Z               Mass
    ------------   -----------------  -----------------  -----------------  -----------------
         N           -1.739547997845     0.686875553292     0.089280115840    14.003074004430
         N           -1.442710997845    -1.522665446708    -0.179533884160    14.003074004430
         N            1.103171002155     1.063210553292    -0.287843884160    14.003074004430
         N            1.356931002155    -1.263082446708     0.282265115840    14.003074004430
         C           -0.829321997845    -0.341897446708    -0.021371884160    12.000000000000
         C            0.622109002155    -0.166409446708    -0.002666884160    12.000000000000
         C           -2.985572997845     0.119716553292    -0.002329884160    12.000000000000
         C           -2.767518897845    -1.285118446708    -0.174979684160    12.000000000000
         C            2.439654002155     1.193966553292    -0.284537884160    12.000000000000
         C            2.685517002155    -1.099586446708     0.256156115840    12.000000000000
         C            3.291206002155     0.125547553292    -0.025047884160    12.000000000000
         H           -3.884098997845     0.717208553292     0.068046115840     1.007825032230
         H           -3.519806997845    -2.013218446708    -0.283631884160     1.007825032230
         H            2.824868002155     2.187489553292    -0.509138884160     1.007825032230
         H            3.279176002155    -1.985022446708     0.478925115840     1.007825032230
         H            4.370420002155     0.240121553292    -0.035850884160     1.007825032230
         C           -1.505057997845     2.112652553292     0.300013115840    12.000000000000
         H           -0.807996997845     2.259465553292     1.124227115840     1.007825032230
         H           -1.087366997845     2.569124553292    -0.596195884160     1.007825032230
         H           -2.464853997845     2.569609553292     0.546543115840     1.007825032230

  Basis Set: AUG-CC-PVTZ
    Blend: AUG-CC-PVTZ
  Basis Set: (AUG-CC-PVTZ AUX)
    Blend: AUG-CC-PVTZ-JKFIT
	 Reference Energy          =    -525.5535429585113434 [Eh]
	 Singles Energy            =      -0.0000000000000000 [Eh]
	 Same-Spin Energy          =      -0.5786719926460938 [Eh]
	 Opposite-Spin Energy      =      -1.7392497035482899 [Eh]
	 Correlation Energy        =      -2.3179216961943836 [Eh]
	 Total Energy              =    -527.8714646547057328 [Eh]

	 ================> DF-SCS-MP2 Energies <==================
	-----------------------------------------------------------
	 SCS Same-Spin Scale       =       0.3333333333333333 [-]
	 SCS Opposite-Spin Scale   =       1.2000000000000000 [-]
	 SCS Same-Spin Energy      =      -0.1928906642153646 [Eh]
	 SCS Opposite-Spin Energy  =      -2.0870996442579477 [Eh]
	 SCS Correlation Energy    =      -2.2799903084733124 [Eh]
	 SCS Total Energy          =    -527.8335332669846593 [Eh]
	-----------------------------------------------------------

  Dipole Moment: [D]
     X:     1.3118      Y:     4.0683      Z:     0.4746     Total:     4.3008

*** Psi4 exiting successfully. Buy a developer a beer!
