                               Psi4 1.4a3.dev225

  ==> Input File <==

--------------------------------------------------------------------------
#psi4
#
memory 32 gb

molecule  {
0 1
  N       -1.7314010     0.6447010     0.0841650
  N       -1.4345640    -1.5648400    -0.1846490
  N        1.1113180     1.0210360    -0.2929590
  N        1.3650780    -1.3052570     0.2771500
  C       -0.8211750    -0.3840720    -0.0264870
  C        0.6302560    -0.2085840    -0.0077820
  C       -2.9774260     0.0775420    -0.0074450
  C       -2.7669850    -1.2782450    -0.1740670
  C        2.4478010     1.1517920    -0.2896530
  C        2.6936640    -1.1417610     0.2510410
  C        3.2993530     0.0833730    -0.0301630
  H       -3.8759520     0.6750340     0.0629310
  H       -3.5116600    -2.0553930    -0.2887470
  H        2.8330150     2.1453150    -0.5142540
  H        3.2873230    -2.0271970     0.4738100
  H        4.3785670     0.1979470    -0.0409660
  C       -1.5001227     2.0509497     0.2920117
  H       -0.7998500     2.2172910     1.1191120
  H       -1.0792200     2.5269500    -0.6013110
  H       -2.4567070     2.5274350     0.5414280
units angstrom
no_reorient  #important for SAPT in psi4, default
symmetry c1  #important for SAPT in psi4, default
}

set PROPERTIES_ORIGIN ["COM"]
properties('MP2/aug-cc-pvtz', properties = ['dipole'])
--------------------------------------------------------------------------

    Molecular point group: c1
  Charge       = 0
  Multiplicity = 1
  Basis Set: AUG-CC-PVTZ
    Blend: AUG-CC-PVTZ
  Basis Set: (AUG-CC-PVTZ AUX)
    Blend: AUG-CC-PVTZ-JKFIT

    Orbital Energies [Eh]
    ---------------------

    Doubly Occupied:

       1A    -15.626304     2A    -15.580110     3A    -15.575131
       4A    -15.547218     5A    -11.333619     6A    -11.305897
       7A    -11.303088     8A    -11.296197     9A    -11.272880
      10A    -11.260507    11A    -11.251997    12A    -11.240995
      13A     -1.346912    14A     -1.308572    15A     -1.198472
      16A     -1.180585    17A     -1.089208    18A     -1.008721
      19A     -0.968022    20A     -0.899477    21A     -0.894043
      22A     -0.803592    23A     -0.785006    24A     -0.728865
      25A     -0.702931    26A     -0.686529    27A     -0.646815
      28A     -0.640323    29A     -0.607093    30A     -0.593881
      31A     -0.588612    32A     -0.579529    33A     -0.568789
      34A     -0.555064    35A     -0.540732    36A     -0.480925
      37A     -0.436753    38A     -0.424284    39A     -0.412502
      40A     -0.396799    41A     -0.377756    42A     -0.299142

  @DF-RHF Final Energy:  -525.55757044797804

   => Energetics <=

    Nuclear Repulsion Energy =            654.5157082099694890
    One-Electron Energy =               -2011.4588027025631618
    Two-Electron Energy =                 831.3855240446156358
    Total Energy =                       -525.5575704479780370
  Basis Set: (AUG-CC-PVTZ AUX)
    Blend: AUG-CC-PVTZ-RI
    Molecular point group: c1

    Geometry (in Angstrom), charge = 0, multiplicity = 1:

       Center              X                  Y                   Z               Mass
    ------------   -----------------  -----------------  -----------------  -----------------
         N           -1.738736517701     0.684662611674     0.089044613579    14.003074004430
         N           -1.441899517701    -1.524878388326    -0.179769386421    14.003074004430
         N            1.103982482299     1.060997611674    -0.288079386421    14.003074004430
         N            1.357742482299    -1.265295388326     0.282029613579    14.003074004430
         C           -0.828510517701    -0.344110388326    -0.021607386421    12.000000000000
         C            0.622920482299    -0.168622388326    -0.002902386421    12.000000000000
         C           -2.984761517701     0.117503611674    -0.002565386421    12.000000000000
         C           -2.774320517701    -1.238283388326    -0.169187386421    12.000000000000
         C            2.440465482299     1.191753611674    -0.284773386421    12.000000000000
         C            2.686328482299    -1.101799388326     0.255920613579    12.000000000000
         C            3.292017482299     0.123334611674    -0.025283386421    12.000000000000
         H           -3.883287517701     0.714995611674     0.067810613579     1.007825032230
         H           -3.518995517701    -2.015431388326    -0.283867386421     1.007825032230
         H            2.825679482299     2.185276611674    -0.509374386421     1.007825032230
         H            3.279987482299    -1.987235388326     0.478689613579     1.007825032230
         H            4.371231482299     0.237908611674    -0.036086386421     1.007825032230
         C           -1.507458217701     2.090911311674     0.296891313579    12.000000000000
         H           -0.807185517701     2.257252611674     1.123991613579     1.007825032230
         H           -1.086555517701     2.566911611674    -0.596431386421     1.007825032230
         H           -2.464042517701     2.567396611674     0.546307613579     1.007825032230

  Basis Set: AUG-CC-PVTZ
    Blend: AUG-CC-PVTZ
  Basis Set: (AUG-CC-PVTZ AUX)
    Blend: AUG-CC-PVTZ-JKFIT
	 Reference Energy          =    -525.5575704479780370 [Eh]
	 Singles Energy            =      -0.0000000000000000 [Eh]
	 Same-Spin Energy          =      -0.5780885755976796 [Eh]
	 Opposite-Spin Energy      =      -1.7383709944778905 [Eh]
	 Correlation Energy        =      -2.3164595700755699 [Eh]
	 Total Energy              =    -527.8740300180536451 [Eh]

	 ================> DF-SCS-MP2 Energies <==================
	-----------------------------------------------------------
	 SCS Same-Spin Scale       =       0.3333333333333333 [-]
	 SCS Opposite-Spin Scale   =       1.2000000000000000 [-]
	 SCS Same-Spin Energy      =      -0.1926961918658932 [Eh]
	 SCS Opposite-Spin Energy  =      -2.0860451933734683 [Eh]
	 SCS Correlation Energy    =      -2.2787413852393614 [Eh]
	 SCS Total Energy          =    -527.8363118332174508 [Eh]
	-----------------------------------------------------------

  Dipole Moment: [D]
     X:     1.3944      Y:     4.0570      Z:     0.4721     Total:     4.3158

*** Psi4 exiting successfully. Buy a developer a beer!
