                               Psi4 1.3.2 release

  ==> Input File <==

--------------------------------------------------------------------------
#psi4
#
memory 32 gb

molecule  {
0 1
  N       -1.7493205     0.6287494     0.0824527
  N       -1.4345640    -1.5648400    -0.1846490
  N        1.1113180     1.0210360    -0.2929590
  N        1.3650780    -1.3052570     0.2771500
  C       -0.8211750    -0.3840720    -0.0264870
  C        0.6302560    -0.2085840    -0.0077820
  C       -2.9774260     0.0775420    -0.0074450
  C       -2.7669850    -1.2782450    -0.1740670
  C        2.4478010     1.1517920    -0.2896530
  C        2.6936640    -1.1417610     0.2510410
  C        3.2993530     0.0833730    -0.0301630
  H       -3.8759520     0.6750340     0.0629310
  H       -3.5116600    -2.0553930    -0.2887470
  H        2.8330150     2.1453150    -0.5142540
  H        3.2873230    -2.0271970     0.4738100
  H        4.3785670     0.1979470    -0.0409660
  C       -1.4969110     2.0704780     0.2948980
  H       -0.7998500     2.2172910     1.1191120
  H       -1.0792200     2.5269500    -0.6013110
  H       -2.4567070     2.5274350     0.5414280
units angstrom
no_reorient  #important for SAPT in psi4, default
symmetry c1  #important for SAPT in psi4, default
}

set PROPERTIES_ORIGIN ["COM"]
properties('MP2/aug-cc-pvtz', properties = ['dipole'])
--------------------------------------------------------------------------

    Molecular point group: c1
  Charge       = 0
  Multiplicity = 1
  Basis Set: AUG-CC-PVTZ
    Blend: AUG-CC-PVTZ
  Basis Set: (AUG-CC-PVTZ AUX)
    Blend: AUG-CC-PVTZ-JKFIT

    Orbital Energies [Eh]
    ---------------------

    Doubly Occupied:

       1A    -15.626495     2A    -15.579526     3A    -15.574513
       4A    -15.546317     5A    -11.333623     6A    -11.305577
       7A    -11.302749     8A    -11.293073     9A    -11.275555
      10A    -11.258791    11A    -11.251361    12A    -11.238373
      13A     -1.347794    14A     -1.308569    15A     -1.197348
      16A     -1.176223    17A     -1.088852    18A     -1.009721
      19A     -0.967220    20A     -0.899052    21A     -0.893828
      22A     -0.803778    23A     -0.784012    24A     -0.727084
      25A     -0.702411    26A     -0.686627    27A     -0.646179
      28A     -0.640819    29A     -0.606866    30A     -0.591940
      31A     -0.583698    32A     -0.578801    33A     -0.571808
      34A     -0.556918    35A     -0.545621    36A     -0.481183
      37A     -0.435645    38A     -0.424028    39A     -0.412065
      40A     -0.398028    41A     -0.377906    42A     -0.297224

  @DF-RHF Final Energy:  -525.55758404775702

   => Energetics <=

    Nuclear Repulsion Energy =            654.1886890859246932
    One-Electron Energy =               -2010.8381463398302458
    Two-Electron Energy =                 831.0918732061484206
    Total Energy =                       -525.5575840477570182
  Basis Set: (AUG-CC-PVTZ AUX)
    Blend: AUG-CC-PVTZ-RI
    Molecular point group: c1

    Geometry (in Angstrom), charge = 0, multiplicity = 1:

       Center              X                  Y                   Z               Mass
    ------------   -----------------  -----------------  -----------------  -----------------
         N           -1.755329215750     0.668642492719     0.087265731394    14.003074004430
         N           -1.440572715750    -1.524946907281    -0.179835968606    14.003074004430
         N            1.105309284250     1.060929092719    -0.288145968606    14.003074004430
         N            1.359069284250    -1.265363907281     0.281963031394    14.003074004430
         C           -0.827183715750    -0.344178907281    -0.021673968606    12.000000000000
         C            0.624247284250    -0.168690907281    -0.002968968606    12.000000000000
         C           -2.983434715750     0.117435092719    -0.002631968606    12.000000000000
         C           -2.772993715750    -1.238351907281    -0.169253968606    12.000000000000
         C            2.441792284250     1.191685092719    -0.284839968606    12.000000000000
         C            2.687655284250    -1.101867907281     0.255854031394    12.000000000000
         C            3.293344284250     0.123266092719    -0.025349968606    12.000000000000
         H           -3.881960715750     0.714927092719     0.067744031394     1.007825032230
         H           -3.517668715750    -2.015499907281    -0.283933968606     1.007825032230
         H            2.827006284250     2.185208092719    -0.509440968606     1.007825032230
         H            3.281314284250    -1.987303907281     0.478623031394     1.007825032230
         H            4.372558284250     0.237840092719    -0.036152968606     1.007825032230
         C           -1.502919715750     2.110371092719     0.299711031394    12.000000000000
         H           -0.805858715750     2.257184092719     1.123925031394     1.007825032230
         H           -1.085228715750     2.566843092719    -0.596497968606     1.007825032230
         H           -2.462715715750     2.567328092719     0.546241031394     1.007825032230

  Basis Set: AUG-CC-PVTZ
    Blend: AUG-CC-PVTZ
  Basis Set: (AUG-CC-PVTZ AUX)
    Blend: AUG-CC-PVTZ-JKFIT
	 Reference Energy          =    -525.5575840477570182 [Eh]
	 Singles Energy            =      -0.0000000000000000 [Eh]
	 Same-Spin Energy          =      -0.5779847053925473 [Eh]
	 Opposite-Spin Energy      =      -1.7380621350509469 [Eh]
	 Correlation Energy        =      -2.3160468404434944 [Eh]
	 Total Energy              =    -527.8736308882005233 [Eh]

	 ================> DF-SCS-MP2 Energies <==================
	-----------------------------------------------------------
	 SCS Same-Spin Scale       =       0.3333333333333333 [-]
	 SCS Opposite-Spin Scale   =       1.2000000000000000 [-]
	 SCS Same-Spin Energy      =      -0.1926615684641824 [Eh]
	 SCS Opposite-Spin Energy  =      -2.0856745620611363 [Eh]
	 SCS Correlation Energy    =      -2.2783361305253189 [Eh]
	 SCS Total Energy          =    -527.8359201782823220 [Eh]
	-----------------------------------------------------------

  Dipole Moment: [D]
     X:     1.3853      Y:     4.1732      Z:     0.4875     Total:     4.4241

*** Psi4 exiting successfully. Buy a developer a beer!
