                               Psi4 1.3.2 release

  ==> Input File <==

--------------------------------------------------------------------------
#psi4
#
memory 32 gb

molecule  {
0 1
  N       -1.7314010     0.6447010     0.0841650
  N       -1.4717187    -1.7014098    -0.2025493
  N        1.1113180     1.0210360    -0.2929590
  N        1.3650780    -1.3052570     0.2771500
  C       -0.8211750    -0.3840720    -0.0264870
  C        0.6302560    -0.2085840    -0.0077820
  C       -2.9774260     0.0775420    -0.0074450
  C       -2.7669850    -1.2782450    -0.1740670
  C        2.4478010     1.1517920    -0.2896530
  C        2.6936640    -1.1417610     0.2510410
  C        3.2993530     0.0833730    -0.0301630
  H       -3.8759520     0.6750340     0.0629310
  H       -3.5116600    -2.0553930    -0.2887470
  H        2.8330150     2.1453150    -0.5142540
  H        3.2873230    -2.0271970     0.4738100
  H        4.3785670     0.1979470    -0.0409660
  C       -1.4969110     2.0704780     0.2948980
  H       -0.7998500     2.2172910     1.1191120
  H       -1.0792200     2.5269500    -0.6013110
  H       -2.4567070     2.5274350     0.5414280
units angstrom
no_reorient  #important for SAPT in psi4, default
symmetry c1  #important for SAPT in psi4, default
}

set PROPERTIES_ORIGIN ["COM"]
properties('MP2/aug-cc-pvtz', properties = ['dipole'])
--------------------------------------------------------------------------

    Molecular point group: c1
  Charge       = 0
  Multiplicity = 1
  Basis Set: AUG-CC-PVTZ
    Blend: AUG-CC-PVTZ
  Basis Set: (AUG-CC-PVTZ AUX)
    Blend: AUG-CC-PVTZ-JKFIT

    Orbital Energies [Eh]
    ---------------------

    Doubly Occupied:

       1A    -15.642239     2A    -15.579923     3A    -15.574566
       4A    -15.565758     5A    -11.334333     6A    -11.309535
       7A    -11.305974     8A    -11.302871     9A    -11.279794
      10A    -11.258354    11A    -11.251447    12A    -11.244311
      13A     -1.336959    14A     -1.307171    15A     -1.196515
      16A     -1.167091    17A     -1.088603    18A     -1.001630
      19A     -0.978470    20A     -0.898901    21A     -0.892547
      22A     -0.797723    23A     -0.780852    24A     -0.730120
      25A     -0.702645    26A     -0.683989    27A     -0.647908
      28A     -0.639814    29A     -0.606036    30A     -0.595436
      31A     -0.588570    32A     -0.580121    33A     -0.568147
      34A     -0.539017    35A     -0.535444    36A     -0.481971
      37A     -0.446534    38A     -0.424573    39A     -0.414123
      40A     -0.393914    41A     -0.382330    42A     -0.288987

  @DF-RHF Final Energy:  -525.52926990073342

   => Energetics <=

    Nuclear Repulsion Energy =            650.2529366412829859
    One-Electron Energy =               -2002.8739184864371055
    Two-Electron Energy =                 827.0917119444206946
    Total Energy =                       -525.5292699007334249
  Basis Set: (AUG-CC-PVTZ AUX)
    Blend: AUG-CC-PVTZ-RI
    Molecular point group: c1

    Geometry (in Angstrom), charge = 0, multiplicity = 1:

       Center              X                  Y                   Z               Mass
    ------------   -----------------  -----------------  -----------------  -----------------
         N           -1.735727053850     0.695145563438     0.090394129528    14.003074004430
         N           -1.476044753850    -1.650965236562    -0.196320170472    14.003074004430
         N            1.106991946150     1.071480563438    -0.286729870472    14.003074004430
         N            1.360751946150    -1.254812436562     0.283379129528    14.003074004430
         C           -0.825501053850    -0.333627436562    -0.020257870472    12.000000000000
         C            0.625929946150    -0.158139436562    -0.001552870472    12.000000000000
         C           -2.981752053850     0.127986563438    -0.001215870472    12.000000000000
         C           -2.771311053850    -1.227800436562    -0.167837870472    12.000000000000
         C            2.443474946150     1.202236563438    -0.283423870472    12.000000000000
         C            2.689337946150    -1.091316436562     0.257270129528    12.000000000000
         C            3.295026946150     0.133817563438    -0.023933870472    12.000000000000
         H           -3.880278053850     0.725478563438     0.069160129528     1.007825032230
         H           -3.515986053850    -2.004948436562    -0.282517870472     1.007825032230
         H            2.828688946150     2.195759563438    -0.508024870472     1.007825032230
         H            3.282996946150    -1.976752436562     0.480039129528     1.007825032230
         H            4.374240946150     0.248391563438    -0.034736870472     1.007825032230
         C           -1.501237053850     2.120922563438     0.301127129528    12.000000000000
         H           -0.804176053850     2.267735563438     1.125341129528     1.007825032230
         H           -1.083546053850     2.577394563438    -0.595081870472     1.007825032230
         H           -2.461033053850     2.577879563438     0.547657129528     1.007825032230

  Basis Set: AUG-CC-PVTZ
    Blend: AUG-CC-PVTZ
  Basis Set: (AUG-CC-PVTZ AUX)
    Blend: AUG-CC-PVTZ-JKFIT
	 Reference Energy          =    -525.5292699007334249 [Eh]
	 Singles Energy            =      -0.0000000000000000 [Eh]
	 Same-Spin Energy          =      -0.5815327555116780 [Eh]
	 Opposite-Spin Energy      =      -1.7462701633210134 [Eh]
	 Correlation Energy        =      -2.3278029188326914 [Eh]
	 Total Energy              =    -527.8570728195661559 [Eh]

	 ================> DF-SCS-MP2 Energies <==================
	-----------------------------------------------------------
	 SCS Same-Spin Scale       =       0.3333333333333333 [-]
	 SCS Opposite-Spin Scale   =       1.2000000000000000 [-]
	 SCS Same-Spin Energy      =      -0.1938442518372260 [Eh]
	 SCS Opposite-Spin Energy  =      -2.0955241959852158 [Eh]
	 SCS Correlation Energy    =      -2.2893684478224419 [Eh]
	 SCS Total Energy          =    -527.8186383485558508 [Eh]
	-----------------------------------------------------------

  Dipole Moment: [D]
     X:     1.2062      Y:     4.3914      Z:     0.5191     Total:     4.5835

*** Psi4 exiting successfully. Buy a developer a beer!
