                               Psi4 1.3.2 release

  ==> Input File <==

--------------------------------------------------------------------------
#psi4
#
memory 32 gb

molecule  {
0 1
  N       -1.7314010     0.6447010     0.0841650
  N       -1.4345640    -1.5648400    -0.1846490
  N        1.0221285     1.0501363    -0.3023513
  N        1.3650780    -1.3052570     0.2771500
  C       -0.8211750    -0.3840720    -0.0264870
  C        0.6302560    -0.2085840    -0.0077820
  C       -2.9774260     0.0775420    -0.0074450
  C       -2.7669850    -1.2782450    -0.1740670
  C        2.4478010     1.1517920    -0.2896530
  C        2.6936640    -1.1417610     0.2510410
  C        3.2993530     0.0833730    -0.0301630
  H       -3.8759520     0.6750340     0.0629310
  H       -3.5116600    -2.0553930    -0.2887470
  H        2.8330150     2.1453150    -0.5142540
  H        3.2873230    -2.0271970     0.4738100
  H        4.3785670     0.1979470    -0.0409660
  C       -1.4969110     2.0704780     0.2948980
  H       -0.7998500     2.2172910     1.1191120
  H       -1.0792200     2.5269500    -0.6013110
  H       -2.4567070     2.5274350     0.5414280
units angstrom
no_reorient  #important for SAPT in psi4, default
symmetry c1  #important for SAPT in psi4, default
}

set PROPERTIES_ORIGIN ["COM"]
properties('MP2/aug-cc-pvtz', properties = ['dipole'])
--------------------------------------------------------------------------

    Molecular point group: c1
  Charge       = 0
  Multiplicity = 1
  Basis Set: AUG-CC-PVTZ
    Blend: AUG-CC-PVTZ
  Basis Set: (AUG-CC-PVTZ AUX)
    Blend: AUG-CC-PVTZ-JKFIT

    Orbital Energies [Eh]
    ---------------------

    Doubly Occupied:

       1A    -15.623248     2A    -15.590552     3A    -15.576845
       4A    -15.543688     5A    -11.332741     6A    -11.316484
       7A    -11.309168     8A    -11.291590     9A    -11.270688
      10A    -11.257594    11A    -11.256665    12A    -11.238029
      13A     -1.342318    14A     -1.299828    15A     -1.190298
      16A     -1.174437    17A     -1.090763    18A     -1.005748
      19A     -0.966022    20A     -0.904894    21A     -0.885960
      22A     -0.800156    23A     -0.779492    24A     -0.724842
      25A     -0.696460    26A     -0.684700    27A     -0.644114
      28A     -0.642011    29A     -0.602979    30A     -0.591538
      31A     -0.583374    32A     -0.576848    33A     -0.567814
      34A     -0.551779    35A     -0.540097    36A     -0.481467
      37A     -0.436913    38A     -0.420112    39A     -0.417563
      40A     -0.399257    41A     -0.376738    42A     -0.297822

  @DF-RHF Final Energy:  -525.54524661552307

   => Energetics <=

    Nuclear Repulsion Energy =            653.3597559513960960
    One-Electron Energy =               -2009.2427379363452928
    Two-Electron Energy =                 830.3377353694262410
    Total Energy =                       -525.5452466155230695
  Basis Set: (AUG-CC-PVTZ AUX)
    Blend: AUG-CC-PVTZ-RI
    Molecular point group: c1

    Geometry (in Angstrom), charge = 0, multiplicity = 1:

       Center              X                  Y                   Z               Mass
    ------------   -----------------  -----------------  -----------------  -----------------
         N           -1.731175139889     0.680653030726     0.089649864460    14.003074004430
         N           -1.434338139889    -1.528887969274    -0.179164135540    14.003074004430
         N            1.022354360111     1.086088330726    -0.296866435540    14.003074004430
         N            1.365303860111    -1.269304969274     0.282634864460    14.003074004430
         C           -0.820949139889    -0.348119969274    -0.021002135540    12.000000000000
         C            0.630481860111    -0.172631969274    -0.002297135540    12.000000000000
         C           -2.977200139889     0.113494030726    -0.001960135540    12.000000000000
         C           -2.766759139889    -1.242292969274    -0.168582135540    12.000000000000
         C            2.448026860111     1.187744030726    -0.284168135540    12.000000000000
         C            2.693889860111    -1.105808969274     0.256525864460    12.000000000000
         C            3.299578860111     0.119325030726    -0.024678135540    12.000000000000
         H           -3.875726139889     0.710986030726     0.068415864460     1.007825032230
         H           -3.511434139889    -2.019440969274    -0.283262135540     1.007825032230
         H            2.833240860111     2.181267030726    -0.508769135540     1.007825032230
         H            3.287548860111    -1.991244969274     0.479294864460     1.007825032230
         H            4.378792860111     0.233899030726    -0.035481135540     1.007825032230
         C           -1.496685139889     2.106430030726     0.300382864460    12.000000000000
         H           -0.799624139889     2.253243030726     1.124596864460     1.007825032230
         H           -1.078994139889     2.562902030726    -0.595826135540     1.007825032230
         H           -2.456481139889     2.563387030726     0.546912864460     1.007825032230

  Basis Set: AUG-CC-PVTZ
    Blend: AUG-CC-PVTZ
  Basis Set: (AUG-CC-PVTZ AUX)
    Blend: AUG-CC-PVTZ-JKFIT
	 Reference Energy          =    -525.5452466155230695 [Eh]
	 Singles Energy            =      -0.0000000000000000 [Eh]
	 Same-Spin Energy          =      -0.5787797215546813 [Eh]
	 Opposite-Spin Energy      =      -1.7416703816542838 [Eh]
	 Correlation Energy        =      -2.3204501032089651 [Eh]
	 Total Energy              =    -527.8656967187320106 [Eh]

	 ================> DF-SCS-MP2 Energies <==================
	-----------------------------------------------------------
	 SCS Same-Spin Scale       =       0.3333333333333333 [-]
	 SCS Opposite-Spin Scale   =       1.2000000000000000 [-]
	 SCS Same-Spin Energy      =      -0.1929265738515604 [Eh]
	 SCS Opposite-Spin Energy  =      -2.0900044579851405 [Eh]
	 SCS Correlation Energy    =      -2.2829310318367009 [Eh]
	 SCS Total Energy          =    -527.8281776473597802 [Eh]
	-----------------------------------------------------------

  Dipole Moment: [D]
     X:     1.6877      Y:     4.0236      Z:     0.5012     Total:     4.3919

*** Psi4 exiting successfully. Buy a developer a beer!
