                               Psi4 1.3.2 release

  ==> Input File <==

--------------------------------------------------------------------------
#psi4
#
memory 32 gb

molecule  {
0 1
  N       -1.7314010     0.6447010     0.0841650
  N       -1.4345640    -1.5648400    -0.1846490
  N        1.1113180     1.0210360    -0.2929590
  N        1.3650780    -1.3052570     0.2771500
  C       -0.8211750    -0.3840720    -0.0264870
  C        0.6302560    -0.2085840    -0.0077820
  C       -3.0249583     0.0695593    -0.0095066
  C       -2.7669850    -1.2782450    -0.1740670
  C        2.4478010     1.1517920    -0.2896530
  C        2.6936640    -1.1417610     0.2510410
  C        3.2993530     0.0833730    -0.0301630
  H       -3.8759520     0.6750340     0.0629310
  H       -3.5116600    -2.0553930    -0.2887470
  H        2.8330150     2.1453150    -0.5142540
  H        3.2873230    -2.0271970     0.4738100
  H        4.3785670     0.1979470    -0.0409660
  C       -1.4969110     2.0704780     0.2948980
  H       -0.7998500     2.2172910     1.1191120
  H       -1.0792200     2.5269500    -0.6013110
  H       -2.4567070     2.5274350     0.5414280
units angstrom
no_reorient  #important for SAPT in psi4, default
symmetry c1  #important for SAPT in psi4, default
}

set PROPERTIES_ORIGIN ["COM"]
properties('MP2/aug-cc-pvtz', properties = ['dipole'])
--------------------------------------------------------------------------

    Molecular point group: c1
  Charge       = 0
  Multiplicity = 1
  Basis Set: AUG-CC-PVTZ
    Blend: AUG-CC-PVTZ
  Basis Set: (AUG-CC-PVTZ AUX)
    Blend: AUG-CC-PVTZ-JKFIT

    Orbital Energies [Eh]
    ---------------------

    Doubly Occupied:

       1A    -15.623159     2A    -15.581584     3A    -15.576669
       4A    -15.545365     5A    -11.334562     6A    -11.306790
       7A    -11.304023     8A    -11.299166     9A    -11.270807
      10A    -11.259301    11A    -11.253431    12A    -11.243658
      13A     -1.337260    14A     -1.306697    15A     -1.198741
      16A     -1.173669    17A     -1.089775    18A     -1.007556
      19A     -0.964948    20A     -0.900265    21A     -0.896087
      22A     -0.801238    23A     -0.785660    24A     -0.723693
      25A     -0.704328    26A     -0.686426    27A     -0.641892
      28A     -0.640889    29A     -0.610898    30A     -0.592383
      31A     -0.589897    32A     -0.581276    33A     -0.568792
      34A     -0.548428    35A     -0.540070    36A     -0.482110
      37A     -0.436853    38A     -0.425129    39A     -0.413524
      40A     -0.395301    41A     -0.375554    42A     -0.301899

  @DF-RHF Final Energy:  -525.55403448568086

   => Energetics <=

    Nuclear Repulsion Energy =            653.0114077013611222
    One-Electron Energy =               -2008.4913811336127765
    Two-Electron Energy =                 829.9259389465707955
    Total Energy =                       -525.5540344856808588
  Basis Set: (AUG-CC-PVTZ AUX)
    Blend: AUG-CC-PVTZ-RI
    Molecular point group: c1

    Geometry (in Angstrom), charge = 0, multiplicity = 1:

       Center              X                  Y                   Z               Mass
    ------------   -----------------  -----------------  -----------------  -----------------
         N           -1.735414027964     0.683797096823     0.088982790018    14.003074004430
         N           -1.438577027964    -1.525743903177    -0.179831209982    14.003074004430
         N            1.107304972036     1.060132096823    -0.288141209982    14.003074004430
         N            1.361064972036    -1.266160903177     0.281967790018    14.003074004430
         C           -0.825188027964    -0.344975903177    -0.021669209982    12.000000000000
         C            0.626242972036    -0.169487903177    -0.002964209982    12.000000000000
         C           -3.028971327964     0.108655396823    -0.004688809982    12.000000000000
         C           -2.770998027964    -1.239148903177    -0.169249209982    12.000000000000
         C            2.443787972036     1.190888096823    -0.284835209982    12.000000000000
         C            2.689650972036    -1.102664903177     0.255858790018    12.000000000000
         C            3.295339972036     0.122469096823    -0.025345209982    12.000000000000
         H           -3.879965027964     0.714130096823     0.067748790018     1.007825032230
         H           -3.515673027964    -2.016296903177    -0.283929209982     1.007825032230
         H            2.829001972036     2.184411096823    -0.509436209982     1.007825032230
         H            3.283309972036    -1.988100903177     0.478627790018     1.007825032230
         H            4.374553972036     0.237043096823    -0.036148209982     1.007825032230
         C           -1.500924027964     2.109574096823     0.299715790018    12.000000000000
         H           -0.803863027964     2.256387096823     1.123929790018     1.007825032230
         H           -1.083233027964     2.566046096823    -0.596493209982     1.007825032230
         H           -2.460720027964     2.566531096823     0.546245790018     1.007825032230

  Basis Set: AUG-CC-PVTZ
    Blend: AUG-CC-PVTZ
  Basis Set: (AUG-CC-PVTZ AUX)
    Blend: AUG-CC-PVTZ-JKFIT
	 Reference Energy          =    -525.5540344856808588 [Eh]
	 Singles Energy            =      -0.0000000000000000 [Eh]
	 Same-Spin Energy          =      -0.5778636965683739 [Eh]
	 Opposite-Spin Energy      =      -1.7390329953116588 [Eh]
	 Correlation Energy        =      -2.3168966918800327 [Eh]
	 Total Energy              =    -527.8709311775609194 [Eh]

	 ================> DF-SCS-MP2 Energies <==================
	-----------------------------------------------------------
	 SCS Same-Spin Scale       =       0.3333333333333333 [-]
	 SCS Opposite-Spin Scale   =       1.2000000000000000 [-]
	 SCS Same-Spin Energy      =      -0.1926212321894580 [Eh]
	 SCS Opposite-Spin Energy  =      -2.0868395943739904 [Eh]
	 SCS Correlation Energy    =      -2.2794608265634482 [Eh]
	 SCS Total Energy          =    -527.8334953122442812 [Eh]
	-----------------------------------------------------------

  Dipole Moment: [D]
     X:     1.4570      Y:     4.0614      Z:     0.4727     Total:     4.3406

*** Psi4 exiting successfully. Buy a developer a beer!
