                               Psi4 1.3.2 release

  ==> Input File <==

--------------------------------------------------------------------------
#psi4
#
memory 32 gb

molecule  {
0 1
  N       -1.7314010     0.6447010     0.0841650
  N       -1.4345640    -1.5648400    -0.1846490
  N        1.1113180     1.0210360    -0.2929590
  N        1.3650780    -1.3052570     0.2771500
  C       -0.8211750    -0.3840720    -0.0264870
  C        0.8287937    -0.1845794    -0.0052234
  C       -2.9774260     0.0775420    -0.0074450
  C       -2.7669850    -1.2782450    -0.1740670
  C        2.4478010     1.1517920    -0.2896530
  C        2.6936640    -1.1417610     0.2510410
  C        3.2993530     0.0833730    -0.0301630
  H       -3.8759520     0.6750340     0.0629310
  H       -3.5116600    -2.0553930    -0.2887470
  H        2.8330150     2.1453150    -0.5142540
  H        3.2873230    -2.0271970     0.4738100
  H        4.3785670     0.1979470    -0.0409660
  C       -1.4969110     2.0704780     0.2948980
  H       -0.7998500     2.2172910     1.1191120
  H       -1.0792200     2.5269500    -0.6013110
  H       -2.4567070     2.5274350     0.5414280
units angstrom
no_reorient  #important for SAPT in psi4, default
symmetry c1  #important for SAPT in psi4, default
}

set PROPERTIES_ORIGIN ["COM"]
properties('MP2/aug-cc-pvtz', properties = ['dipole'])
--------------------------------------------------------------------------

    Molecular point group: c1
  Charge       = 0
  Multiplicity = 1
  Basis Set: AUG-CC-PVTZ
    Blend: AUG-CC-PVTZ
  Basis Set: (AUG-CC-PVTZ AUX)
    Blend: AUG-CC-PVTZ-JKFIT

    Orbital Energies [Eh]
    ---------------------

    Doubly Occupied:

       1A    -15.610626     2A    -15.587857     3A    -15.583511
       4A    -15.528951     5A    -11.336287     6A    -11.318913
       7A    -11.316680     8A    -11.286376     9A    -11.267343
      10A    -11.261540    11A    -11.243427    12A    -11.227317
      13A     -1.362153    14A     -1.321013    15A     -1.243941
      16A     -1.165163    17A     -1.092046    18A     -0.990174
      19A     -0.953723    20A     -0.923831    21A     -0.889405
      22A     -0.787934    23A     -0.770693    24A     -0.723364
      25A     -0.721956    26A     -0.678206    27A     -0.640009
      28A     -0.637904    29A     -0.614029    30A     -0.608402
      31A     -0.586192    32A     -0.573266    33A     -0.565523
      34A     -0.542518    35A     -0.534227    36A     -0.458238
      37A     -0.453209    38A     -0.445189    39A     -0.414109
      40A     -0.401885    41A     -0.369007    42A     -0.291879

  @DF-RHF Final Energy:  -525.51973939873119

   => Energetics <=

    Nuclear Repulsion Energy =            654.4971844270588690
    One-Electron Energy =               -2011.3778151466776762
    Two-Electron Energy =                 831.3608913208875038
    Total Energy =                       -525.5197393987311898
  Basis Set: (AUG-CC-PVTZ AUX)
    Blend: AUG-CC-PVTZ-RI
    Molecular point group: c1

    Geometry (in Angstrom), charge = 0, multiplicity = 1:

       Center              X                  Y                   Z               Mass
    ------------   -----------------  -----------------  -----------------  -----------------
         N           -1.753860643072     0.681399171796     0.088636437147    14.003074004430
         N           -1.457023643072    -1.528141828204    -0.180177562853    14.003074004430
         N            1.088858356928     1.057734171796    -0.288487562853    14.003074004430
         N            1.342618356928    -1.268558828204     0.281621437147    14.003074004430
         C           -0.843634643072    -0.347373828204    -0.022015562853    12.000000000000
         C            0.806334056928    -0.147881228204    -0.000751962853    12.000000000000
         C           -2.999885643072     0.114240171796    -0.002973562853    12.000000000000
         C           -2.789444643072    -1.241546828204    -0.169595562853    12.000000000000
         C            2.425341356928     1.188490171796    -0.285181562853    12.000000000000
         C            2.671204356928    -1.105062828204     0.255512437147    12.000000000000
         C            3.276893356928     0.120071171796    -0.025691562853    12.000000000000
         H           -3.898411643072     0.711732171796     0.067402437147     1.007825032230
         H           -3.534119643072    -2.018694828204    -0.284275562853     1.007825032230
         H            2.810555356928     2.182013171796    -0.509782562853     1.007825032230
         H            3.264863356928    -1.990498828204     0.478281437147     1.007825032230
         H            4.356107356928     0.234645171796    -0.036494562853     1.007825032230
         C           -1.519370643072     2.107176171796     0.299369437147    12.000000000000
         H           -0.822309643072     2.253989171796     1.123583437147     1.007825032230
         H           -1.101679643072     2.563648171796    -0.596839562853     1.007825032230
         H           -2.479166643072     2.564133171796     0.545899437147     1.007825032230

  Basis Set: AUG-CC-PVTZ
    Blend: AUG-CC-PVTZ
  Basis Set: (AUG-CC-PVTZ AUX)
    Blend: AUG-CC-PVTZ-JKFIT
	 Reference Energy          =    -525.5197393987311898 [Eh]
	 Singles Energy            =      -0.0000000000000000 [Eh]
	 Same-Spin Energy          =      -0.5759041117239534 [Eh]
	 Opposite-Spin Energy      =      -1.7358012954853546 [Eh]
	 Correlation Energy        =      -2.3117054072093079 [Eh]
	 Total Energy              =    -527.8314448059404640 [Eh]

	 ================> DF-SCS-MP2 Energies <==================
	-----------------------------------------------------------
	 SCS Same-Spin Scale       =       0.3333333333333333 [-]
	 SCS Opposite-Spin Scale   =       1.2000000000000000 [-]
	 SCS Same-Spin Energy      =      -0.1919680372413178 [Eh]
	 SCS Opposite-Spin Energy  =      -2.0829615545824254 [Eh]
	 SCS Correlation Energy    =      -2.2749295918237431 [Eh]
	 SCS Total Energy          =    -527.7946689905548965 [Eh]
	-----------------------------------------------------------

  Dipole Moment: [D]
     X:     2.9571      Y:     4.1857      Z:     0.4938     Total:     5.1486

*** Psi4 exiting successfully. Buy a developer a beer!
