                               Psi4 1.4a3.dev225

  ==> Input File <==

--------------------------------------------------------------------------
#psi4
#
memory 32 gb

molecule  {
0 1
  N       -1.7314010     0.6447010     0.0841650
  N       -1.4345640    -1.5648400    -0.1846490
  N        1.1113180     1.0210360    -0.2929590
  N        1.3650780    -1.3052570     0.2771500
  C       -0.8211750    -0.3840720    -0.0264870
  C        0.6030504    -0.1679814    -0.0183312
  C       -2.9774260     0.0775420    -0.0074450
  C       -2.7669850    -1.2782450    -0.1740670
  C        2.4478010     1.1517920    -0.2896530
  C        2.6936640    -1.1417610     0.2510410
  C        3.2993530     0.0833730    -0.0301630
  H       -3.8759520     0.6750340     0.0629310
  H       -3.5116600    -2.0553930    -0.2887470
  H        2.8330150     2.1453150    -0.5142540
  H        3.2873230    -2.0271970     0.4738100
  H        4.3785670     0.1979470    -0.0409660
  C       -1.4969110     2.0704780     0.2948980
  H       -0.7998500     2.2172910     1.1191120
  H       -1.0792200     2.5269500    -0.6013110
  H       -2.4567070     2.5274350     0.5414280
units angstrom
no_reorient  #important for SAPT in psi4, default
symmetry c1  #important for SAPT in psi4, default
}

set PROPERTIES_ORIGIN ["COM"]
properties('MP2/aug-cc-pvtz', properties = ['dipole'])
--------------------------------------------------------------------------

    Molecular point group: c1
  Charge       = 0
  Multiplicity = 1
  Basis Set: AUG-CC-PVTZ
    Blend: AUG-CC-PVTZ
  Basis Set: (AUG-CC-PVTZ AUX)
    Blend: AUG-CC-PVTZ-JKFIT

    Orbital Energies [Eh]
    ---------------------

    Doubly Occupied:

       1A    -15.626861     2A    -15.577990     3A    -15.575731
       4A    -15.549123     5A    -11.333331     6A    -11.304873
       7A    -11.299987     8A    -11.295666     9A    -11.274574
      10A    -11.261795    11A    -11.251049    12A    -11.242224
      13A     -1.346588    14A     -1.305141    15A     -1.193865
      16A     -1.178152    17A     -1.089469    18A     -1.009962
      19A     -0.970813    20A     -0.900689    21A     -0.890358
      22A     -0.804645    23A     -0.785817    24A     -0.727867
      25A     -0.702145    26A     -0.684005    27A     -0.647900
      28A     -0.640288    29A     -0.606256    30A     -0.593704
      31A     -0.587097    32A     -0.578107    33A     -0.571732
      34A     -0.558967    35A     -0.544180    36A     -0.480938
      37A     -0.437672    38A     -0.423147    39A     -0.407418
      40A     -0.395819    41A     -0.378642    42A     -0.298644

  @DF-RHF Final Energy:  -525.55362978475193

   => Energetics <=

    Nuclear Repulsion Energy =            654.2115825313422874
    One-Electron Energy =               -2010.8639638911947713
    Two-Electron Energy =                 831.0987515751004366
    Total Energy =                       -525.5536297847519336
  Basis Set: (AUG-CC-PVTZ AUX)
    Blend: AUG-CC-PVTZ-RI
    Molecular point group: c1

    Geometry (in Angstrom), charge = 0, multiplicity = 1:

       Center              X                  Y                   Z               Mass
    ------------   -----------------  -----------------  -----------------  -----------------
         N           -1.736937817176     0.680154904240     0.089619062178    14.003074004430
         N           -1.440100817176    -1.529386095760    -0.179194937822    14.003074004430
         N            1.105781182824     1.056489904240    -0.287504937822    14.003074004430
         N            1.359541182824    -1.269803095760     0.282604062178    14.003074004430
         C           -0.826711817176    -0.348618095760    -0.021032937822    12.000000000000
         C            0.597513582824    -0.132527495760    -0.012877137822    12.000000000000
         C           -2.982962817176     0.112995904240    -0.001990937822    12.000000000000
         C           -2.772521817176    -1.242791095760    -0.168612937822    12.000000000000
         C            2.442264182824     1.187245904240    -0.284198937822    12.000000000000
         C            2.688127182824    -1.106307095760     0.256495062178    12.000000000000
         C            3.293816182824     0.118826904240    -0.024708937822    12.000000000000
         H           -3.881488817176     0.710487904240     0.068385062178     1.007825032230
         H           -3.517196817176    -2.019939095760    -0.283292937822     1.007825032230
         H            2.827478182824     2.180768904240    -0.508799937822     1.007825032230
         H            3.281786182824    -1.991743095760     0.479264062178     1.007825032230
         H            4.373030182824     0.233400904240    -0.035511937822     1.007825032230
         C           -1.502447817176     2.105931904240     0.300352062178    12.000000000000
         H           -0.805386817176     2.252744904240     1.124566062178     1.007825032230
         H           -1.084756817176     2.562403904240    -0.595856937822     1.007825032230
         H           -2.462243817176     2.562888904240     0.546882062178     1.007825032230

  Basis Set: AUG-CC-PVTZ
    Blend: AUG-CC-PVTZ
  Basis Set: (AUG-CC-PVTZ AUX)
    Blend: AUG-CC-PVTZ-JKFIT
	 Reference Energy          =    -525.5536297847519336 [Eh]
	 Singles Energy            =      -0.0000000000000000 [Eh]
	 Same-Spin Energy          =      -0.5784948877952042 [Eh]
	 Opposite-Spin Energy      =      -1.7394353394812396 [Eh]
	 Correlation Energy        =      -2.3179302272764439 [Eh]
	 Total Energy              =    -527.8715600120283398 [Eh]

	 ================> DF-SCS-MP2 Energies <==================
	-----------------------------------------------------------
	 SCS Same-Spin Scale       =       0.3333333333333333 [-]
	 SCS Opposite-Spin Scale   =       1.2000000000000000 [-]
	 SCS Same-Spin Energy      =      -0.1928316292650681 [Eh]
	 SCS Opposite-Spin Energy  =      -2.0873224073774876 [Eh]
	 SCS Correlation Energy    =      -2.2801540366425557 [Eh]
	 SCS Total Energy          =    -527.8337838213944906 [Eh]
	-----------------------------------------------------------

  Dipole Moment: [D]
     X:     1.1895      Y:     4.1371      Z:     0.4625     Total:     4.3295

*** Psi4 exiting successfully. Buy a developer a beer!
