                               Psi4 1.3.2 release

  ==> Input File <==

--------------------------------------------------------------------------
#psi4
#
memory 32 gb

molecule  {
0 1
  N       -1.7314010     0.6447010     0.0841650
  N       -1.4345640    -1.5648400    -0.1846490
  N        1.1113180     1.0210360    -0.2929590
  N        1.3650780    -1.3052570     0.2771500
  C       -0.8211750    -0.3840720    -0.0264870
  C        0.5865132    -0.1917760    -0.0129968
  C       -2.9774260     0.0775420    -0.0074450
  C       -2.7669850    -1.2782450    -0.1740670
  C        2.4478010     1.1517920    -0.2896530
  C        2.6936640    -1.1417610     0.2510410
  C        3.2993530     0.0833730    -0.0301630
  H       -3.8759520     0.6750340     0.0629310
  H       -3.5116600    -2.0553930    -0.2887470
  H        2.8330150     2.1453150    -0.5142540
  H        3.2873230    -2.0271970     0.4738100
  H        4.3785670     0.1979470    -0.0409660
  C       -1.4969110     2.0704780     0.2948980
  H       -0.7998500     2.2172910     1.1191120
  H       -1.0792200     2.5269500    -0.6013110
  H       -2.4567070     2.5274350     0.5414280
units angstrom
no_reorient  #important for SAPT in psi4, default
symmetry c1  #important for SAPT in psi4, default
}

set PROPERTIES_ORIGIN ["COM"]
properties('MP2/aug-cc-pvtz', properties = ['dipole'])
--------------------------------------------------------------------------

    Molecular point group: c1
  Charge       = 0
  Multiplicity = 1
  Basis Set: AUG-CC-PVTZ
    Blend: AUG-CC-PVTZ
  Basis Set: (AUG-CC-PVTZ AUX)
    Blend: AUG-CC-PVTZ-JKFIT

    Orbital Energies [Eh]
    ---------------------

    Doubly Occupied:

       1A    -15.628630     2A    -15.578162     3A    -15.574352
       4A    -15.550665     5A    -11.333751     6A    -11.303478
       7A    -11.299515     8A    -11.295284     9A    -11.274908
      10A    -11.263766    11A    -11.249755    12A    -11.243509
      13A     -1.347709    14A     -1.300007    15A     -1.192026
      16A     -1.177935    17A     -1.090071    18A     -1.011501
      19A     -0.972032    20A     -0.897743    21A     -0.891864
      22A     -0.805662    23A     -0.787418    24A     -0.728774
      25A     -0.698776    26A     -0.685166    27A     -0.648682
      28A     -0.641043    29A     -0.606708    30A     -0.593791
      31A     -0.587016    32A     -0.578052    33A     -0.571150
      34A     -0.559865    35A     -0.544181    36A     -0.480532
      37A     -0.438502    38A     -0.420441    39A     -0.405057
      40A     -0.396976    41A     -0.379292    42A     -0.298360

  @DF-RHF Final Energy:  -525.55231943961758

   => Energetics <=

    Nuclear Repulsion Energy =            654.1562811781398068
    One-Electron Energy =               -2010.7529889658815136
    Two-Electron Energy =                 831.0443883481241301
    Total Energy =                       -525.5523194396175768
  Basis Set: (AUG-CC-PVTZ AUX)
    Blend: AUG-CC-PVTZ-RI
    Molecular point group: c1

    Geometry (in Angstrom), charge = 0, multiplicity = 1:

       Center              X                  Y                   Z               Mass
    ------------   -----------------  -----------------  -----------------  -----------------
         N           -1.735698107486     0.681938664259     0.089219169369    14.003074004430
         N           -1.438861107486    -1.527602335741    -0.179594830631    14.003074004430
         N            1.107020892514     1.058273664259    -0.287904830631    14.003074004430
         N            1.360780892514    -1.268019335741     0.282204169369    14.003074004430
         C           -0.825472107486    -0.346834335741    -0.021432830631    12.000000000000
         C            0.582216092514    -0.154538335741    -0.007942630631    12.000000000000
         C           -2.981723107486     0.114779664259    -0.002390830631    12.000000000000
         C           -2.771282107486    -1.241007335741    -0.169012830631    12.000000000000
         C            2.443503892514     1.189029664259    -0.284598830631    12.000000000000
         C            2.689366892514    -1.104523335741     0.256095169369    12.000000000000
         C            3.295055892514     0.120610664259    -0.025108830631    12.000000000000
         H           -3.880249107486     0.712271664259     0.067985169369     1.007825032230
         H           -3.515957107486    -2.018155335741    -0.283692830631     1.007825032230
         H            2.828717892514     2.182552664259    -0.509199830631     1.007825032230
         H            3.283025892514    -1.989959335741     0.478864169369     1.007825032230
         H            4.374269892514     0.235184664259    -0.035911830631     1.007825032230
         C           -1.501208107486     2.107715664259     0.299952169369    12.000000000000
         H           -0.804147107486     2.254528664259     1.124166169369     1.007825032230
         H           -1.083517107486     2.564187664259    -0.596256830631     1.007825032230
         H           -2.461004107486     2.564672664259     0.546482169369     1.007825032230

  Basis Set: AUG-CC-PVTZ
    Blend: AUG-CC-PVTZ
  Basis Set: (AUG-CC-PVTZ AUX)
    Blend: AUG-CC-PVTZ-JKFIT
	 Reference Energy          =    -525.5523194396175768 [Eh]
	 Singles Energy            =      -0.0000000000000000 [Eh]
	 Same-Spin Energy          =      -0.5790551890511249 [Eh]
	 Opposite-Spin Energy      =      -1.7401246982669760 [Eh]
	 Correlation Energy        =      -2.3191798873181009 [Eh]
	 Total Energy              =    -527.8714993269356910 [Eh]

	 ================> DF-SCS-MP2 Energies <==================
	-----------------------------------------------------------
	 SCS Same-Spin Scale       =       0.3333333333333333 [-]
	 SCS Opposite-Spin Scale   =       1.2000000000000000 [-]
	 SCS Same-Spin Energy      =      -0.1930183963503749 [Eh]
	 SCS Opposite-Spin Energy  =      -2.0881496379203712 [Eh]
	 SCS Correlation Energy    =      -2.2811680342707463 [Eh]
	 SCS Total Energy          =    -527.8334874738883400 [Eh]
	-----------------------------------------------------------

  Dipole Moment: [D]
     X:     1.0447      Y:     4.1098      Z:     0.4691     Total:     4.2664

*** Psi4 exiting successfully. Buy a developer a beer!
