                               Psi4 1.3.2 release

  ==> Input File <==

--------------------------------------------------------------------------
#psi4
#
memory 32 gb

molecule  {
0 1
  N       -1.7314010     0.6447010     0.0841650
  N       -1.4397504    -1.5878522    -0.1877120
  N        1.1113180     1.0210360    -0.2929590
  N        1.3650780    -1.3052570     0.2771500
  C       -0.8211750    -0.3840720    -0.0264870
  C        0.6302560    -0.2085840    -0.0077820
  C       -2.9774260     0.0775420    -0.0074450
  C       -2.7669850    -1.2782450    -0.1740670
  C        2.4478010     1.1517920    -0.2896530
  C        2.6936640    -1.1417610     0.2510410
  C        3.2993530     0.0833730    -0.0301630
  H       -3.8759520     0.6750340     0.0629310
  H       -3.5116600    -2.0553930    -0.2887470
  H        2.8330150     2.1453150    -0.5142540
  H        3.2873230    -2.0271970     0.4738100
  H        4.3785670     0.1979470    -0.0409660
  C       -1.4969110     2.0704780     0.2948980
  H       -0.7998500     2.2172910     1.1191120
  H       -1.0792200     2.5269500    -0.6013110
  H       -2.4567070     2.5274350     0.5414280
units angstrom
no_reorient  #important for SAPT in psi4, default
symmetry c1  #important for SAPT in psi4, default
}

set PROPERTIES_ORIGIN ["COM"]
properties('MP2/aug-cc-pvtz', properties = ['dipole'])
--------------------------------------------------------------------------

    Molecular point group: c1
  Charge       = 0
  Multiplicity = 1
  Basis Set: AUG-CC-PVTZ
    Blend: AUG-CC-PVTZ
  Basis Set: (AUG-CC-PVTZ AUX)
    Blend: AUG-CC-PVTZ-JKFIT

    Orbital Energies [Eh]
    ---------------------

    Doubly Occupied:

       1A    -15.628686     2A    -15.579969     3A    -15.574815
       4A    -15.550012     5A    -11.333589     6A    -11.305847
       7A    -11.302935     8A    -11.298130     9A    -11.274543
      10A    -11.259688    11A    -11.251738    12A    -11.240937
      13A     -1.342901    14A     -1.307849    15A     -1.197580
      16A     -1.176116    17A     -1.088869    18A     -1.006615
      19A     -0.970359    20A     -0.899214    21A     -0.893578
      22A     -0.800838    23A     -0.784505    24A     -0.727543
      25A     -0.702692    26A     -0.685456    27A     -0.646423
      28A     -0.639718    29A     -0.606982    30A     -0.593274
      31A     -0.587178    32A     -0.579549    33A     -0.568839
      34A     -0.554099    35A     -0.542357    36A     -0.481129
      37A     -0.438494    38A     -0.424286    39A     -0.412816
      40A     -0.396053    41A     -0.378512    42A     -0.296984

  @DF-RHF Final Energy:  -525.55525485192175

   => Energetics <=

    Nuclear Repulsion Energy =            653.4497004515410481
    One-Electron Energy =               -2009.3465210597200894
    Two-Electron Energy =                 830.3415657562572960
    Total Energy =                       -525.5552548519217453
  Basis Set: (AUG-CC-PVTZ AUX)
    Blend: AUG-CC-PVTZ-RI
    Molecular point group: c1

    Geometry (in Angstrom), charge = 0, multiplicity = 1:

       Center              X                  Y                   Z               Mass
    ------------   -----------------  -----------------  -----------------  -----------------
         N           -1.738523585231     0.685211741748     0.089096188285    14.003074004430
         N           -1.446872985231    -1.547341458252    -0.182780811715    14.003074004430
         N            1.104195414769     1.061546741748    -0.288027811715    14.003074004430
         N            1.357955414769    -1.264746258252     0.282081188285    14.003074004430
         C           -0.828297585231    -0.343561258252    -0.021555811715    12.000000000000
         C            0.623133414769    -0.168073258252    -0.002850811715    12.000000000000
         C           -2.984548585231     0.118052741748    -0.002513811715    12.000000000000
         C           -2.774107585231    -1.237734258252    -0.169135811715    12.000000000000
         C            2.440678414769     1.192302741748    -0.284721811715    12.000000000000
         C            2.686541414769    -1.101250258252     0.255972188285    12.000000000000
         C            3.292230414769     0.123883741748    -0.025231811715    12.000000000000
         H           -3.883074585231     0.715544741748     0.067862188285     1.007825032230
         H           -3.518782585231    -2.014882258252    -0.283815811715     1.007825032230
         H            2.825892414769     2.185825741748    -0.509322811715     1.007825032230
         H            3.280200414769    -1.986686258252     0.478741188285     1.007825032230
         H            4.371444414769     0.238457741748    -0.036034811715     1.007825032230
         C           -1.504033585231     2.110988741748     0.299829188285    12.000000000000
         H           -0.806972585231     2.257801741748     1.124043188285     1.007825032230
         H           -1.086342585231     2.567460741748    -0.596379811715     1.007825032230
         H           -2.463829585231     2.567945741748     0.546359188285     1.007825032230

  Basis Set: AUG-CC-PVTZ
    Blend: AUG-CC-PVTZ
  Basis Set: (AUG-CC-PVTZ AUX)
    Blend: AUG-CC-PVTZ-JKFIT
	 Reference Energy          =    -525.5552548519217453 [Eh]
	 Singles Energy            =      -0.0000000000000000 [Eh]
	 Same-Spin Energy          =      -0.5785266912786544 [Eh]
	 Opposite-Spin Energy      =      -1.7395278570799380 [Eh]
	 Correlation Energy        =      -2.3180545483585924 [Eh]
	 Total Energy              =    -527.8733094002803909 [Eh]

	 ================> DF-SCS-MP2 Energies <==================
	-----------------------------------------------------------
	 SCS Same-Spin Scale       =       0.3333333333333333 [-]
	 SCS Opposite-Spin Scale   =       1.2000000000000000 [-]
	 SCS Same-Spin Energy      =      -0.1928422304262181 [Eh]
	 SCS Opposite-Spin Energy  =      -2.0874334284959253 [Eh]
	 SCS Correlation Energy    =      -2.2802756589221436 [Eh]
	 SCS Total Energy          =    -527.8355305108439097 [Eh]
	-----------------------------------------------------------

  Dipole Moment: [D]
     X:     1.3605      Y:     4.1648      Z:     0.4878     Total:     4.4084

*** Psi4 exiting successfully. Buy a developer a beer!
