                               Psi4 1.3.2 release

  ==> Input File <==

--------------------------------------------------------------------------
#psi4
#
memory 32 gb

molecule  {
0 1
  N       -1.7314010     0.6447010     0.0841650
  N       -1.4345640    -1.5648400    -0.1846490
  N        1.1113180     1.0210360    -0.2929590
  N        1.3650780    -1.3052570     0.2771500
  C       -0.8211750    -0.3840720    -0.0264870
  C        0.6302560    -0.2085840    -0.0077820
  C       -2.9774260     0.0775420    -0.0074450
  C       -2.7669850    -1.2782450    -0.1740670
  C        2.4478010     1.1517920    -0.2896530
  C        2.6936640    -1.1417610     0.2510410
  C        3.2381203     0.1602000    -0.0488222
  H       -3.8759520     0.6750340     0.0629310
  H       -3.5116600    -2.0553930    -0.2887470
  H        2.8330150     2.1453150    -0.5142540
  H        3.2873230    -2.0271970     0.4738100
  H        4.3785670     0.1979470    -0.0409660
  C       -1.4969110     2.0704780     0.2948980
  H       -0.7998500     2.2172910     1.1191120
  H       -1.0792200     2.5269500    -0.6013110
  H       -2.4567070     2.5274350     0.5414280
units angstrom
no_reorient  #important for SAPT in psi4, default
symmetry c1  #important for SAPT in psi4, default
}

set PROPERTIES_ORIGIN ["COM"]
properties('MP2/aug-cc-pvtz', properties = ['dipole'])
--------------------------------------------------------------------------

    Molecular point group: c1
  Charge       = 0
  Multiplicity = 1
  Basis Set: AUG-CC-PVTZ
    Blend: AUG-CC-PVTZ
  Basis Set: (AUG-CC-PVTZ AUX)
    Blend: AUG-CC-PVTZ-JKFIT

    Orbital Energies [Eh]
    ---------------------

    Doubly Occupied:

       1A    -15.625155     2A    -15.577595     3A    -15.575851
       4A    -15.546238     5A    -11.332665     6A    -11.312742
       7A    -11.295117     8A    -11.287116     9A    -11.272434
      10A    -11.259475    11A    -11.249744    12A    -11.239943
      13A     -1.344549    14A     -1.310205    15A     -1.199017
      16A     -1.177528    17A     -1.095269    18A     -1.008235
      19A     -0.967899    20A     -0.907300    21A     -0.887151
      22A     -0.801939    23A     -0.785104    24A     -0.727204
      25A     -0.706822    26A     -0.682257    27A     -0.645731
      28A     -0.634583    29A     -0.600726    30A     -0.597941
      31A     -0.586729    32A     -0.581016    33A     -0.570307
      34A     -0.555518    35A     -0.543314    36A     -0.473650
      37A     -0.436237    38A     -0.427029    39A     -0.412686
      40A     -0.399697    41A     -0.378351    42A     -0.298911

  @DF-RHF Final Energy:  -525.54434692147947

   => Energetics <=

    Nuclear Repulsion Energy =            655.3844709318484547
    One-Electron Energy =               -2013.2236741763852024
    Two-Electron Energy =                 832.2948563230572745
    Total Energy =                       -525.5443469214794732
  Basis Set: (AUG-CC-PVTZ AUX)
    Blend: AUG-CC-PVTZ-RI
    Molecular point group: c1

    Geometry (in Angstrom), charge = 0, multiplicity = 1:

       Center              X                  Y                   Z               Mass
    ------------   -----------------  -----------------  -----------------  -----------------
         N           -1.734386978727     0.677439345398     0.090227027589    14.003074004430
         N           -1.437549978727    -1.532101654602    -0.178586972411    14.003074004430
         N            1.108332021273     1.053774345398    -0.286896972411    14.003074004430
         N            1.362092021273    -1.272518654602     0.283212027589    14.003074004430
         C           -0.824160978727    -0.351333654602    -0.020424972411    12.000000000000
         C            0.627270021273    -0.175845654602    -0.001719972411    12.000000000000
         C           -2.980411978727     0.110280345398    -0.001382972411    12.000000000000
         C           -2.769970978727    -1.245506654602    -0.168004972411    12.000000000000
         C            2.444815021273     1.184530345398    -0.283590972411    12.000000000000
         C            2.690678021273    -1.109022654602     0.257103027589    12.000000000000
         C            3.235134321273     0.192938345398    -0.042760172411    12.000000000000
         H           -3.878937978727     0.707772345398     0.068993027589     1.007825032230
         H           -3.514645978727    -2.022654654602    -0.282684972411     1.007825032230
         H            2.830029021273     2.178053345398    -0.508191972411     1.007825032230
         H            3.284337021273    -1.994458654602     0.479872027589     1.007825032230
         H            4.375581021273     0.230685345398    -0.034903972411     1.007825032230
         C           -1.499896978727     2.103216345398     0.300960027589    12.000000000000
         H           -0.802835978727     2.250029345398     1.125174027589     1.007825032230
         H           -1.082205978727     2.559688345398    -0.595248972411     1.007825032230
         H           -2.459692978727     2.560173345398     0.547490027589     1.007825032230

  Basis Set: AUG-CC-PVTZ
    Blend: AUG-CC-PVTZ
  Basis Set: (AUG-CC-PVTZ AUX)
    Blend: AUG-CC-PVTZ-JKFIT
	 Reference Energy          =    -525.5443469214794732 [Eh]
	 Singles Energy            =      -0.0000000000000000 [Eh]
	 Same-Spin Energy          =      -0.5778590747218826 [Eh]
	 Opposite-Spin Energy      =      -1.7385486280116313 [Eh]
	 Correlation Energy        =      -2.3164077027335139 [Eh]
	 Total Energy              =    -527.8607546242129729 [Eh]

	 ================> DF-SCS-MP2 Energies <==================
	-----------------------------------------------------------
	 SCS Same-Spin Scale       =       0.3333333333333333 [-]
	 SCS Opposite-Spin Scale   =       1.2000000000000000 [-]
	 SCS Same-Spin Energy      =      -0.1926196915739609 [Eh]
	 SCS Opposite-Spin Energy  =      -2.0862583536139576 [Eh]
	 SCS Correlation Energy    =      -2.2788780451879185 [Eh]
	 SCS Total Energy          =    -527.8232249666673397 [Eh]
	-----------------------------------------------------------

  Dipole Moment: [D]
     X:     1.3978      Y:     3.9490      Z:     0.5178     Total:     4.2209

*** Psi4 exiting successfully. Buy a developer a beer!
