                               Psi4 1.3.2 release

  ==> Input File <==

--------------------------------------------------------------------------
#psi4
#
memory 32 gb

molecule  {
0 1
  N       -1.7314010     0.6447010     0.0841650
  N       -1.4453437    -1.6107869    -0.1906384
  N        1.1113180     1.0210360    -0.2929590
  N        1.3650780    -1.3052570     0.2771500
  C       -0.8211750    -0.3840720    -0.0264870
  C        0.6302560    -0.2085840    -0.0077820
  C       -2.9774260     0.0775420    -0.0074450
  C       -2.7669850    -1.2782450    -0.1740670
  C        2.4478010     1.1517920    -0.2896530
  C        2.6936640    -1.1417610     0.2510410
  C        3.2993530     0.0833730    -0.0301630
  H       -3.8759520     0.6750340     0.0629310
  H       -3.5116600    -2.0553930    -0.2887470
  H        2.8330150     2.1453150    -0.5142540
  H        3.2873230    -2.0271970     0.4738100
  H        4.3785670     0.1979470    -0.0409660
  C       -1.4969110     2.0704780     0.2948980
  H       -0.7998500     2.2172910     1.1191120
  H       -1.0792200     2.5269500    -0.6013110
  H       -2.4567070     2.5274350     0.5414280
units angstrom
no_reorient  #important for SAPT in psi4, default
symmetry c1  #important for SAPT in psi4, default
}

set PROPERTIES_ORIGIN ["COM"]
properties('MP2/aug-cc-pvtz', properties = ['dipole'])
--------------------------------------------------------------------------

    Molecular point group: c1
  Charge       = 0
  Multiplicity = 1
  Basis Set: AUG-CC-PVTZ
    Blend: AUG-CC-PVTZ
  Basis Set: (AUG-CC-PVTZ AUX)
    Blend: AUG-CC-PVTZ-JKFIT

    Orbital Energies [Eh]
    ---------------------

    Doubly Occupied:

       1A    -15.631511     2A    -15.579949     3A    -15.574746
       4A    -15.553382     5A    -11.333774     6A    -11.305871
       7A    -11.302915     8A    -11.300702     9A    -11.275661
      10A    -11.259440    11A    -11.251662    12A    -11.241543
      13A     -1.341271    14A     -1.307659    15A     -1.197292
      16A     -1.174321    17A     -1.088806    18A     -1.005414
      19A     -0.972109    20A     -0.899138    21A     -0.893304
      22A     -0.799561    23A     -0.784339    24A     -0.728116
      25A     -0.702684    26A     -0.685128    27A     -0.646653
      28A     -0.639677    29A     -0.606697    30A     -0.593660
      31A     -0.587464    32A     -0.579691    33A     -0.568242
      34A     -0.551121    35A     -0.541540    36A     -0.481175
      37A     -0.440615    38A     -0.424349    39A     -0.413161
      40A     -0.395533    41A     -0.379201    42A     -0.295378

  @DF-RHF Final Energy:  -525.55157743248890

   => Energetics <=

    Nuclear Repulsion Energy =            652.7912076722351458
    One-Electron Energy =               -2008.0166566192676783
    Two-Electron Energy =                 829.6738715145435208
    Total Energy =                       -525.5515774324888980
  Basis Set: (AUG-CC-PVTZ AUX)
    Blend: AUG-CC-PVTZ-RI
    Molecular point group: c1

    Geometry (in Angstrom), charge = 0, multiplicity = 1:

       Center              X                  Y                   Z               Mass
    ------------   -----------------  -----------------  -----------------  -----------------
         N           -1.738034293058     0.687218029485     0.089352184676    14.003074004430
         N           -1.451976993058    -1.568269870515    -0.185451215324    14.003074004430
         N            1.104684706942     1.063553029485    -0.287771815324    14.003074004430
         N            1.358444706942    -1.262739970515     0.282337184676    14.003074004430
         C           -0.827808293058    -0.341554970515    -0.021299815324    12.000000000000
         C            0.623622706942    -0.166066970515    -0.002594815324    12.000000000000
         C           -2.984059293058     0.120059029485    -0.002257815324    12.000000000000
         C           -2.773618293058    -1.235727970515    -0.168879815324    12.000000000000
         C            2.441167706942     1.194309029485    -0.284465815324    12.000000000000
         C            2.687030706942    -1.099243970515     0.256228184676    12.000000000000
         C            3.292719706942     0.125890029485    -0.024975815324    12.000000000000
         H           -3.882585293058     0.717551029485     0.068118184676     1.007825032230
         H           -3.518293293058    -2.012875970515    -0.283559815324     1.007825032230
         H            2.826381706942     2.187832029485    -0.509066815324     1.007825032230
         H            3.280689706942    -1.984679970515     0.478997184676     1.007825032230
         H            4.371933706942     0.240464029485    -0.035778815324     1.007825032230
         C           -1.503544293058     2.112995029485     0.300085184676    12.000000000000
         H           -0.806483293058     2.259808029485     1.124299184676     1.007825032230
         H           -1.085853293058     2.569467029485    -0.596123815324     1.007825032230
         H           -2.463340293058     2.569952029485     0.546615184676     1.007825032230

  Basis Set: AUG-CC-PVTZ
    Blend: AUG-CC-PVTZ
  Basis Set: (AUG-CC-PVTZ AUX)
    Blend: AUG-CC-PVTZ-JKFIT
	 Reference Energy          =    -525.5515774324888980 [Eh]
	 Singles Energy            =      -0.0000000000000000 [Eh]
	 Same-Spin Energy          =      -0.5791031441794139 [Eh]
	 Opposite-Spin Energy      =      -1.7407832763755902 [Eh]
	 Correlation Energy        =      -2.3198864205550040 [Eh]
	 Total Energy              =    -527.8714638530439061 [Eh]

	 ================> DF-SCS-MP2 Energies <==================
	-----------------------------------------------------------
	 SCS Same-Spin Scale       =       0.3333333333333333 [-]
	 SCS Opposite-Spin Scale   =       1.2000000000000000 [-]
	 SCS Same-Spin Energy      =      -0.1930343813931379 [Eh]
	 SCS Opposite-Spin Energy  =      -2.0889399316507080 [Eh]
	 SCS Correlation Energy    =      -2.2819743130438459 [Eh]
	 SCS Total Energy          =    -527.8335517455327590 [Eh]
	-----------------------------------------------------------

  Dipole Moment: [D]
     X:     1.3293      Y:     4.2173      Z:     0.4951     Total:     4.4494

*** Psi4 exiting successfully. Buy a developer a beer!
