                               Psi4 1.4a3.dev225

  ==> Input File <==

--------------------------------------------------------------------------
#psi4
#
memory 32 gb

molecule  {
0 1
  N       -1.7314010     0.6447010     0.0841650
  N       -1.4345640    -1.5648400    -0.1846490
  N        1.1113180     1.0210360    -0.2929590
  N        1.3650780    -1.3052570     0.2771500
  C       -0.8079650    -0.3990024    -0.0280929
  C        0.6302560    -0.2085840    -0.0077820
  C       -2.9774260     0.0775420    -0.0074450
  C       -2.7669850    -1.2782450    -0.1740670
  C        2.4478010     1.1517920    -0.2896530
  C        2.6936640    -1.1417610     0.2510410
  C        3.2993530     0.0833730    -0.0301630
  H       -3.8759520     0.6750340     0.0629310
  H       -3.5116600    -2.0553930    -0.2887470
  H        2.8330150     2.1453150    -0.5142540
  H        3.2873230    -2.0271970     0.4738100
  H        4.3785670     0.1979470    -0.0409660
  C       -1.4969110     2.0704780     0.2948980
  H       -0.7998500     2.2172910     1.1191120
  H       -1.0792200     2.5269500    -0.6013110
  H       -2.4567070     2.5274350     0.5414280
units angstrom
no_reorient  #important for SAPT in psi4, default
symmetry c1  #important for SAPT in psi4, default
}

set PROPERTIES_ORIGIN ["COM"]
properties('MP2/aug-cc-pvtz', properties = ['dipole'])
--------------------------------------------------------------------------

    Molecular point group: c1
  Charge       = 0
  Multiplicity = 1
  Basis Set: AUG-CC-PVTZ
    Blend: AUG-CC-PVTZ
  Basis Set: (AUG-CC-PVTZ AUX)
    Blend: AUG-CC-PVTZ-JKFIT

    Orbital Energies [Eh]
    ---------------------

    Doubly Occupied:

       1A    -15.624379     2A    -15.580138     3A    -15.574655
       4A    -15.547799     5A    -11.332702     6A    -11.305938
       7A    -11.302831     8A    -11.295604     9A    -11.272192
      10A    -11.261654    11A    -11.251775    12A    -11.240218
      13A     -1.341747    14A     -1.307551    15A     -1.198082
      16A     -1.177988    17A     -1.089839    18A     -1.008480
      19A     -0.966358    20A     -0.899471    21A     -0.894337
      22A     -0.800891    23A     -0.785670    24A     -0.725991
      25A     -0.702811    26A     -0.685682    27A     -0.644123
      28A     -0.640442    29A     -0.607477    30A     -0.592873
      31A     -0.586699    32A     -0.578135    33A     -0.571537
      34A     -0.556841    35A     -0.542204    36A     -0.481582
      37A     -0.435794    38A     -0.424267    39A     -0.412349
      40A     -0.397951    41A     -0.377352    42A     -0.298093

  @DF-RHF Final Energy:  -525.55697132389730

   => Energetics <=

    Nuclear Repulsion Energy =            654.0418596955555586
    One-Electron Energy =               -2010.5526575511835290
    Two-Electron Energy =                 830.9538265317306696
    Total Energy =                       -525.5569713238973009
  Basis Set: (AUG-CC-PVTZ AUX)
    Blend: AUG-CC-PVTZ-RI
    Molecular point group: c1

    Geometry (in Angstrom), charge = 0, multiplicity = 1:

       Center              X                  Y                   Z               Mass
    ------------   -----------------  -----------------  -----------------  -----------------
         N           -1.739967568944     0.684317930520     0.088948628510    14.003074004430
         N           -1.443130568944    -1.525223069480    -0.179865371490    14.003074004430
         N            1.102751431056     1.060652930520    -0.288175371490    14.003074004430
         N            1.356511431056    -1.265640069480     0.281933628510    14.003074004430
         C           -0.816531568944    -0.359385469480    -0.023309271490    12.000000000000
         C            0.621689431056    -0.168967069480    -0.002998371490    12.000000000000
         C           -2.985992568944     0.117158930520    -0.002661371490    12.000000000000
         C           -2.775551568944    -1.238628069480    -0.169283371490    12.000000000000
         C            2.439234431056     1.191408930520    -0.284869371490    12.000000000000
         C            2.685097431056    -1.102144069480     0.255824628510    12.000000000000
         C            3.290786431056     0.122989930520    -0.025379371490    12.000000000000
         H           -3.884518568944     0.714650930520     0.067714628510     1.007825032230
         H           -3.520226568944    -2.015776069480    -0.283963371490     1.007825032230
         H            2.824448431056     2.184931930520    -0.509470371490     1.007825032230
         H            3.278756431056    -1.987580069480     0.478593628510     1.007825032230
         H            4.370000431056     0.237563930520    -0.036182371490     1.007825032230
         C           -1.505477568944     2.110094930520     0.299681628510    12.000000000000
         H           -0.808416568944     2.256907930520     1.123895628510     1.007825032230
         H           -1.087786568944     2.566566930520    -0.596527371490     1.007825032230
         H           -2.465273568944     2.567051930520     0.546211628510     1.007825032230

  Basis Set: AUG-CC-PVTZ
    Blend: AUG-CC-PVTZ
  Basis Set: (AUG-CC-PVTZ AUX)
    Blend: AUG-CC-PVTZ-JKFIT
	 Reference Energy          =    -525.5569713238973009 [Eh]
	 Singles Energy            =      -0.0000000000000000 [Eh]
	 Same-Spin Energy          =      -0.5781309880781098 [Eh]
	 Opposite-Spin Energy      =      -1.7386275895808432 [Eh]
	 Correlation Energy        =      -2.3167585776589528 [Eh]
	 Total Energy              =    -527.8737299015562030 [Eh]

	 ================> DF-SCS-MP2 Energies <==================
	-----------------------------------------------------------
	 SCS Same-Spin Scale       =       0.3333333333333333 [-]
	 SCS Opposite-Spin Scale   =       1.2000000000000000 [-]
	 SCS Same-Spin Energy      =      -0.1927103293593699 [Eh]
	 SCS Opposite-Spin Energy  =      -2.0863531074970116 [Eh]
	 SCS Correlation Energy    =      -2.2790634368563816 [Eh]
	 SCS Total Energy          =    -527.8360347607537051 [Eh]
	-----------------------------------------------------------

  Dipole Moment: [D]
     X:     1.3849      Y:     4.0695      Z:     0.4727     Total:     4.3246

*** Psi4 exiting successfully. Buy a developer a beer!
