                               Psi4 1.4a3.dev225

  ==> Input File <==

--------------------------------------------------------------------------
#psi4
#
memory 32 gb

molecule  {
0 1
  N       -1.7314010     0.6447010     0.0841650
  N       -1.4345640    -1.5648400    -0.1846490
  N        1.1113180     1.0210360    -0.2929590
  N        1.3650780    -1.3052570     0.2771500
  C       -0.8211750    -0.3840720    -0.0264870
  C        0.6104022    -0.2109845    -0.0080379
  C       -2.9774260     0.0775420    -0.0074450
  C       -2.7669850    -1.2782450    -0.1740670
  C        2.4478010     1.1517920    -0.2896530
  C        2.6936640    -1.1417610     0.2510410
  C        3.2993530     0.0833730    -0.0301630
  H       -3.8759520     0.6750340     0.0629310
  H       -3.5116600    -2.0553930    -0.2887470
  H        2.8330150     2.1453150    -0.5142540
  H        3.2873230    -2.0271970     0.4738100
  H        4.3785670     0.1979470    -0.0409660
  C       -1.4969110     2.0704780     0.2948980
  H       -0.7998500     2.2172910     1.1191120
  H       -1.0792200     2.5269500    -0.6013110
  H       -2.4567070     2.5274350     0.5414280
units angstrom
no_reorient  #important for SAPT in psi4, default
symmetry c1  #important for SAPT in psi4, default
}

set PROPERTIES_ORIGIN ["COM"]
properties('MP2/aug-cc-pvtz', properties = ['dipole'])
--------------------------------------------------------------------------

    Molecular point group: c1
  Charge       = 0
  Multiplicity = 1
  Basis Set: AUG-CC-PVTZ
    Blend: AUG-CC-PVTZ
  Basis Set: (AUG-CC-PVTZ AUX)
    Blend: AUG-CC-PVTZ-JKFIT

    Orbital Energies [Eh]
    ---------------------

    Doubly Occupied:

       1A    -15.627310     2A    -15.579386     3A    -15.574254
       4A    -15.548369     5A    -11.333578     6A    -11.304583
       7A    -11.301658     8A    -11.295364     9A    -11.273997
      10A    -11.261788    11A    -11.250764    12A    -11.241784
      13A     -1.346040    14A     -1.304021    15A     -1.194699
      16A     -1.178337    17A     -1.089322    18A     -1.009653
      19A     -0.970087    20A     -0.896648    21A     -0.894819
      22A     -0.803794    23A     -0.786011    24A     -0.727774
      25A     -0.700393    26A     -0.686006    27A     -0.647285
      28A     -0.640375    29A     -0.607295    30A     -0.593032
      31A     -0.587052    32A     -0.578624    33A     -0.570421
      34A     -0.557828    35A     -0.543685    36A     -0.481070
      37A     -0.437109    38A     -0.422269    39A     -0.409143
      40A     -0.396893    41A     -0.378526    42A     -0.298542

  @DF-RHF Final Energy:  -525.55614757918931

   => Energetics <=

    Nuclear Repulsion Energy =            654.1093128807813173
    One-Electron Energy =               -2010.6717398186976880
    Two-Electron Energy =                 831.0062793587270562
    Total Energy =                       -525.5561475791893145
  Basis Set: (AUG-CC-PVTZ AUX)
    Blend: AUG-CC-PVTZ-RI
    Molecular point group: c1

    Geometry (in Angstrom), charge = 0, multiplicity = 1:

       Center              X                  Y                   Z               Mass
    ------------   -----------------  -----------------  -----------------  -----------------
         N           -1.737488944192     0.683378627709     0.088847425883    14.003074004430
         N           -1.440651944192    -1.526162372291    -0.179966574117    14.003074004430
         N            1.105230055808     1.059713627709    -0.288276574117    14.003074004430
         N            1.358990055808    -1.266579372291     0.281832425883    14.003074004430
         C           -0.827262944192    -0.345394372291    -0.021804574117    12.000000000000
         C            0.604314255808    -0.172306872291    -0.003355474117    12.000000000000
         C           -2.983513944192     0.116219627709    -0.002762574117    12.000000000000
         C           -2.773072944192    -1.239567372291    -0.169384574117    12.000000000000
         C            2.441713055808     1.190469627709    -0.284970574117    12.000000000000
         C            2.687576055808    -1.103083372291     0.255723425883    12.000000000000
         C            3.293265055808     0.122050627709    -0.025480574117    12.000000000000
         H           -3.882039944192     0.713711627709     0.067613425883     1.007825032230
         H           -3.517747944192    -2.016715372291    -0.284064574117     1.007825032230
         H            2.826927055808     2.183992627709    -0.509571574117     1.007825032230
         H            3.281235055808    -1.988519372291     0.478492425883     1.007825032230
         H            4.372479055808     0.236624627709    -0.036283574117     1.007825032230
         C           -1.502998944192     2.109155627709     0.299580425883    12.000000000000
         H           -0.805937944192     2.255968627709     1.123794425883     1.007825032230
         H           -1.085307944192     2.565627627709    -0.596628574117     1.007825032230
         H           -2.462794944192     2.566112627709     0.546110425883     1.007825032230

  Basis Set: AUG-CC-PVTZ
    Blend: AUG-CC-PVTZ
  Basis Set: (AUG-CC-PVTZ AUX)
    Blend: AUG-CC-PVTZ-JKFIT
	 Reference Energy          =    -525.5561475791893145 [Eh]
	 Singles Energy            =      -0.0000000000000000 [Eh]
	 Same-Spin Energy          =      -0.5784635732161996 [Eh]
	 Opposite-Spin Energy      =      -1.7390954304335327 [Eh]
	 Correlation Energy        =      -2.3175590036497322 [Eh]
	 Total Energy              =    -527.8737065828390769 [Eh]

	 ================> DF-SCS-MP2 Energies <==================
	-----------------------------------------------------------
	 SCS Same-Spin Scale       =       0.3333333333333333 [-]
	 SCS Opposite-Spin Scale   =       1.2000000000000000 [-]
	 SCS Same-Spin Energy      =      -0.1928211910720665 [Eh]
	 SCS Opposite-Spin Energy  =      -2.0869145165202392 [Eh]
	 SCS Correlation Energy    =      -2.2797357075923057 [Eh]
	 SCS Total Energy          =    -527.8358832867816091 [Eh]
	-----------------------------------------------------------

  Dipole Moment: [D]
     X:     1.2304      Y:     4.1003      Z:     0.4781     Total:     4.3075

*** Psi4 exiting successfully. Buy a developer a beer!
