                               Psi4 1.3.2 release

  ==> Input File <==

--------------------------------------------------------------------------
#psi4
#
memory 32 gb

molecule  {
0 1
  N       -1.7314010     0.6447010     0.0841650
  N       -1.4345640    -1.5648400    -0.1846490
  N        1.1113180     1.0210360    -0.2929590
  N        1.3650780    -1.3052570     0.2771500
  C       -0.8393487    -0.3995597    -0.0293755
  C        0.6302560    -0.2085840    -0.0077820
  C       -2.9774260     0.0775420    -0.0074450
  C       -2.7669850    -1.2782450    -0.1740670
  C        2.4478010     1.1517920    -0.2896530
  C        2.6936640    -1.1417610     0.2510410
  C        3.2993530     0.0833730    -0.0301630
  H       -3.8759520     0.6750340     0.0629310
  H       -3.5116600    -2.0553930    -0.2887470
  H        2.8330150     2.1453150    -0.5142540
  H        3.2873230    -2.0271970     0.4738100
  H        4.3785670     0.1979470    -0.0409660
  C       -1.4969110     2.0704780     0.2948980
  H       -0.7998500     2.2172910     1.1191120
  H       -1.0792200     2.5269500    -0.6013110
  H       -2.4567070     2.5274350     0.5414280
units angstrom
no_reorient  #important for SAPT in psi4, default
symmetry c1  #important for SAPT in psi4, default
}

set PROPERTIES_ORIGIN ["COM"]
properties('MP2/aug-cc-pvtz', properties = ['dipole'])
--------------------------------------------------------------------------

    Molecular point group: c1
  Charge       = 0
  Multiplicity = 1
  Basis Set: AUG-CC-PVTZ
    Blend: AUG-CC-PVTZ
  Basis Set: (AUG-CC-PVTZ AUX)
    Blend: AUG-CC-PVTZ-JKFIT

    Orbital Energies [Eh]
    ---------------------

    Doubly Occupied:

       1A    -15.623308     2A    -15.580417     3A    -15.574999
       4A    -15.544838     5A    -11.334236     6A    -11.306049
       7A    -11.303014     8A    -11.295332     9A    -11.273471
      10A    -11.259164    11A    -11.252077    12A    -11.239587
      13A     -1.346781    14A     -1.308228    15A     -1.198686
      16A     -1.181828    17A     -1.087377    18A     -1.007622
      19A     -0.968120    20A     -0.899113    21A     -0.892178
      22A     -0.803942    23A     -0.782777    24A     -0.726995
      25A     -0.702601    26A     -0.685854    27A     -0.646236
      28A     -0.638691    29A     -0.607205    30A     -0.592892
      31A     -0.588012    32A     -0.578712    33A     -0.568715
      34A     -0.555856    35A     -0.545071    36A     -0.480096
      37A     -0.437969    38A     -0.424261    39A     -0.412850
      40A     -0.396576    41A     -0.378594    42A     -0.300118

  @DF-RHF Final Energy:  -525.55918515251699

   => Energetics <=

    Nuclear Repulsion Energy =            654.1289620659507591
    One-Electron Energy =               -2010.7154009289599799
    Two-Electron Energy =                 831.0272537104923458
    Total Energy =                       -525.5591851525169886
  Basis Set: (AUG-CC-PVTZ AUX)
    Blend: AUG-CC-PVTZ-RI
    Molecular point group: c1

    Geometry (in Angstrom), charge = 0, multiplicity = 1:

       Center              X                  Y                   Z               Mass
    ------------   -----------------  -----------------  -----------------  -----------------
         N           -1.737614892735     0.684359708464     0.089044778502    14.003074004430
         N           -1.440777892735    -1.525181291536    -0.179769221498    14.003074004430
         N            1.105104107265     1.060694708464    -0.288079221498    14.003074004430
         N            1.358864107265    -1.265598291536     0.282029778502    14.003074004430
         C           -0.845562592735    -0.359900991536    -0.024495721498    12.000000000000
         C            0.624042107265    -0.168925291536    -0.002902221498    12.000000000000
         C           -2.983639892735     0.117200708464    -0.002565221498    12.000000000000
         C           -2.773198892735    -1.238586291536    -0.169187221498    12.000000000000
         C            2.441587107265     1.191450708464    -0.284773221498    12.000000000000
         C            2.687450107265    -1.102102291536     0.255920778502    12.000000000000
         C            3.293139107265     0.123031708464    -0.025283221498    12.000000000000
         H           -3.882165892735     0.714692708464     0.067810778502     1.007825032230
         H           -3.517873892735    -2.015734291536    -0.283867221498     1.007825032230
         H            2.826801107265     2.184973708464    -0.509374221498     1.007825032230
         H            3.281109107265    -1.987538291536     0.478689778502     1.007825032230
         H            4.372353107265     0.237605708464    -0.036086221498     1.007825032230
         C           -1.503124892735     2.110136708464     0.299777778502    12.000000000000
         H           -0.806063892735     2.256949708464     1.123991778502     1.007825032230
         H           -1.085433892735     2.566608708464    -0.596431221498     1.007825032230
         H           -2.462920892735     2.567093708464     0.546307778502     1.007825032230

  Basis Set: AUG-CC-PVTZ
    Blend: AUG-CC-PVTZ
  Basis Set: (AUG-CC-PVTZ AUX)
    Blend: AUG-CC-PVTZ-JKFIT
	 Reference Energy          =    -525.5591851525169886 [Eh]
	 Singles Energy            =      -0.0000000000000000 [Eh]
	 Same-Spin Energy          =      -0.5772111060908147 [Eh]
	 Opposite-Spin Energy      =      -1.7371374319709134 [Eh]
	 Correlation Energy        =      -2.3143485380617284 [Eh]
	 Total Energy              =    -527.8735336905787108 [Eh]

	 ================> DF-SCS-MP2 Energies <==================
	-----------------------------------------------------------
	 SCS Same-Spin Scale       =       0.3333333333333333 [-]
	 SCS Opposite-Spin Scale   =       1.2000000000000000 [-]
	 SCS Same-Spin Energy      =      -0.1924037020302716 [Eh]
	 SCS Opposite-Spin Energy  =      -2.0845649183650958 [Eh]
	 SCS Correlation Energy    =      -2.2769686203953672 [Eh]
	 SCS Total Energy          =    -527.8361537729123256 [Eh]
	-----------------------------------------------------------

  Dipole Moment: [D]
     X:     1.4643      Y:     4.0902      Z:     0.4766     Total:     4.3704

*** Psi4 exiting successfully. Buy a developer a beer!
