                               Psi4 1.3.2 release

  ==> Input File <==

--------------------------------------------------------------------------
#psi4
#
memory 32 gb

molecule  {
0 1
  N       -1.7314010     0.6447010     0.0841650
  N       -1.4345640    -1.5648400    -0.1846490
  N        1.1113180     1.0210360    -0.2929590
  N        1.3650780    -1.3052570     0.2771500
  C       -0.8211750    -0.3840720    -0.0264870
  C        0.6302560    -0.2085840    -0.0077820
  C       -3.0012278     0.0737566    -0.0084506
  C       -2.7669850    -1.2782450    -0.1740670
  C        2.4478010     1.1517920    -0.2896530
  C        2.6936640    -1.1417610     0.2510410
  C        3.2993530     0.0833730    -0.0301630
  H       -3.8759520     0.6750340     0.0629310
  H       -3.5116600    -2.0553930    -0.2887470
  H        2.8330150     2.1453150    -0.5142540
  H        3.2873230    -2.0271970     0.4738100
  H        4.3785670     0.1979470    -0.0409660
  C       -1.4969110     2.0704780     0.2948980
  H       -0.7998500     2.2172910     1.1191120
  H       -1.0792200     2.5269500    -0.6013110
  H       -2.4567070     2.5274350     0.5414280
units angstrom
no_reorient  #important for SAPT in psi4, default
symmetry c1  #important for SAPT in psi4, default
}

set PROPERTIES_ORIGIN ["COM"]
properties('MP2/aug-cc-pvtz', properties = ['dipole'])
--------------------------------------------------------------------------

    Molecular point group: c1
  Charge       = 0
  Multiplicity = 1
  Basis Set: AUG-CC-PVTZ
    Blend: AUG-CC-PVTZ
  Basis Set: (AUG-CC-PVTZ AUX)
    Blend: AUG-CC-PVTZ-JKFIT

    Orbital Energies [Eh]
    ---------------------

    Doubly Occupied:

       1A    -15.624527     2A    -15.580796     3A    -15.575791
       4A    -15.545931     5A    -11.333979     6A    -11.306312
       7A    -11.303496     8A    -11.297307     9A    -11.272081
      10A    -11.259554    11A    -11.252635    12A    -11.241972
      13A     -1.340692    14A     -1.307513    15A     -1.198302
      16A     -1.175755    17A     -1.089360    18A     -1.007661
      19A     -0.966737    20A     -0.899780    21A     -0.895006
      22A     -0.801408    23A     -0.785272    24A     -0.725274
      25A     -0.703486    26A     -0.686134    27A     -0.643798
      28A     -0.640431    29A     -0.608899    30A     -0.592397
      31A     -0.588766    32A     -0.580628    33A     -0.569179
      34A     -0.552759    35A     -0.541610    36A     -0.481647
      37A     -0.436540    38A     -0.424677    39A     -0.412962
      40A     -0.395841    41A     -0.376788    42A     -0.300237

  @DF-RHF Final Energy:  -525.55669611084170

   => Energetics <=

    Nuclear Repulsion Energy =            653.5586406798549888
    One-Electron Energy =               -2009.5828352173568874
    Two-Electron Energy =                 830.4674984266601996
    Total Energy =                       -525.5566961108416990
  Basis Set: (AUG-CC-PVTZ AUX)
    Blend: AUG-CC-PVTZ-RI
    Molecular point group: c1

    Geometry (in Angstrom), charge = 0, multiplicity = 1:

       Center              X                  Y                   Z               Mass
    ------------   -----------------  -----------------  -----------------  -----------------
         N           -1.737192982732     0.683482446612     0.088903627075    14.003074004430
         N           -1.440355982732    -1.526058553388    -0.179910372925    14.003074004430
         N            1.105526017268     1.059817446612    -0.288220372925    14.003074004430
         N            1.359286017268    -1.266475553388     0.281888627075    14.003074004430
         C           -0.826966982732    -0.345290553388    -0.021748372925    12.000000000000
         C            0.624464017268    -0.169802553388    -0.003043372925    12.000000000000
         C           -3.007019782732     0.112538046612    -0.003711972925    12.000000000000
         C           -2.772776982732    -1.239463553388    -0.169328372925    12.000000000000
         C            2.442009017268     1.190573446612    -0.284914372925    12.000000000000
         C            2.687872017268    -1.102979553388     0.255779627075    12.000000000000
         C            3.293561017268     0.122154446612    -0.025424372925    12.000000000000
         H           -3.881743982732     0.713815446612     0.067669627075     1.007825032230
         H           -3.517451982732    -2.016611553388    -0.284008372925     1.007825032230
         H            2.827223017268     2.184096446612    -0.509515372925     1.007825032230
         H            3.281531017268    -1.988415553388     0.478548627075     1.007825032230
         H            4.372775017268     0.236728446612    -0.036227372925     1.007825032230
         C           -1.502702982732     2.109259446612     0.299636627075    12.000000000000
         H           -0.805641982732     2.256072446612     1.123850627075     1.007825032230
         H           -1.085011982732     2.565731446612    -0.596572372925     1.007825032230
         H           -2.462498982732     2.566216446612     0.546166627075     1.007825032230

  Basis Set: AUG-CC-PVTZ
    Blend: AUG-CC-PVTZ
  Basis Set: (AUG-CC-PVTZ AUX)
    Blend: AUG-CC-PVTZ-JKFIT
	 Reference Energy          =    -525.5566961108416990 [Eh]
	 Singles Energy            =      -0.0000000000000000 [Eh]
	 Same-Spin Energy          =      -0.5779118589325070 [Eh]
	 Opposite-Spin Energy      =      -1.7386604832522892 [Eh]
	 Correlation Energy        =      -2.3165723421847959 [Eh]
	 Total Energy              =    -527.8732684530265260 [Eh]

	 ================> DF-SCS-MP2 Energies <==================
	-----------------------------------------------------------
	 SCS Same-Spin Scale       =       0.3333333333333333 [-]
	 SCS Opposite-Spin Scale   =       1.2000000000000000 [-]
	 SCS Same-Spin Energy      =      -0.1926372863108357 [Eh]
	 SCS Opposite-Spin Energy  =      -2.0863925799027467 [Eh]
	 SCS Correlation Energy    =      -2.2790298662135822 [Eh]
	 SCS Total Energy          =    -527.8357259770552901 [Eh]
	-----------------------------------------------------------

  Dipole Moment: [D]
     X:     1.4244      Y:     4.0846      Z:     0.4762     Total:     4.3520

*** Psi4 exiting successfully. Buy a developer a beer!
