                               Psi4 1.3.2 release

  ==> Input File <==

--------------------------------------------------------------------------
#psi4
#
memory 32 gb

molecule  {
0 1
  N       -1.7314010     0.6447010     0.0841650
  N       -1.4345640    -1.5648400    -0.1846490
  N        1.1113180     1.0210360    -0.2929590
  N        1.3650780    -1.3052570     0.2771500
  C       -0.8211750    -0.3840720    -0.0264870
  C        0.6302560    -0.2085840    -0.0077820
  C       -2.9774260     0.0775420    -0.0074450
  C       -2.7669850    -1.2782450    -0.1740670
  C        2.5473255     1.1615291    -0.2894068
  C        2.6936640    -1.1417610     0.2510410
  C        3.2993530     0.0833730    -0.0301630
  H       -3.8759520     0.6750340     0.0629310
  H       -3.5116600    -2.0553930    -0.2887470
  H        2.8330150     2.1453150    -0.5142540
  H        3.2873230    -2.0271970     0.4738100
  H        4.3785670     0.1979470    -0.0409660
  C       -1.4969110     2.0704780     0.2948980
  H       -0.7998500     2.2172910     1.1191120
  H       -1.0792200     2.5269500    -0.6013110
  H       -2.4567070     2.5274350     0.5414280
units angstrom
no_reorient  #important for SAPT in psi4, default
symmetry c1  #important for SAPT in psi4, default
}

set PROPERTIES_ORIGIN ["COM"]
properties('MP2/aug-cc-pvtz', properties = ['dipole'])
--------------------------------------------------------------------------

    Molecular point group: c1
  Charge       = 0
  Multiplicity = 1
  Basis Set: AUG-CC-PVTZ
    Blend: AUG-CC-PVTZ
  Basis Set: (AUG-CC-PVTZ AUX)
    Blend: AUG-CC-PVTZ-JKFIT

    Orbital Energies [Eh]
    ---------------------

    Doubly Occupied:

       1A    -15.624083     2A    -15.582070     3A    -15.576588
       4A    -15.545183     5A    -11.330482     6A    -11.308436
       7A    -11.304368     8A    -11.294245     9A    -11.271432
      10A    -11.258363    11A    -11.251100    12A    -11.238960
      13A     -1.342299    14A     -1.298188    15A     -1.184168
      16A     -1.171601    17A     -1.097946    18A     -1.007410
      19A     -0.966459    20A     -0.908995    21A     -0.885707
      22A     -0.801500    23A     -0.784832    24A     -0.727442
      25A     -0.698098    26A     -0.687598    27A     -0.644268
      28A     -0.636810    29A     -0.613473    30A     -0.594507
      31A     -0.585134    32A     -0.575887    33A     -0.569848
      34A     -0.553818    35A     -0.540861    36A     -0.472095
      37A     -0.435854    38A     -0.415275    39A     -0.410892
      40A     -0.404566    41A     -0.377999    42A     -0.299004

  @DF-RHF Final Energy:  -525.54398206370172

   => Energetics <=

    Nuclear Repulsion Energy =            652.5976390561617109
    One-Electron Energy =               -2007.7275549879250320
    Two-Electron Energy =                 829.5859338680614883
    Total Energy =                       -525.5439820637017192
  Basis Set: (AUG-CC-PVTZ AUX)
    Blend: AUG-CC-PVTZ-RI
    Molecular point group: c1

    Geometry (in Angstrom), charge = 0, multiplicity = 1:

       Center              X                  Y                   Z               Mass
    ------------   -----------------  -----------------  -----------------  -----------------
         N           -1.746438127564     0.682468733632     0.088809786002    14.003074004430
         N           -1.449601127564    -1.527072266368    -0.180004213998    14.003074004430
         N            1.096280872436     1.058803733632    -0.288314213998    14.003074004430
         N            1.350040872436    -1.267489266368     0.281794786002    14.003074004430
         C           -0.836212127564    -0.346304266368    -0.021842213998    12.000000000000
         C            0.615218872436    -0.170816266368    -0.003137213998    12.000000000000
         C           -2.992463127564     0.115309733632    -0.002800213998    12.000000000000
         C           -2.782022127564    -1.240477266368    -0.169422213998    12.000000000000
         C            2.532288372436     1.199296833632    -0.284762013998    12.000000000000
         C            2.678626872436    -1.103993266368     0.255685786002    12.000000000000
         C            3.284315872436     0.121140733632    -0.025518213998    12.000000000000
         H           -3.890989127564     0.712801733632     0.067575786002     1.007825032230
         H           -3.526697127564    -2.017625266368    -0.284102213998     1.007825032230
         H            2.817977872436     2.183082733632    -0.509609213998     1.007825032230
         H            3.272285872436    -1.989429266368     0.478454786002     1.007825032230
         H            4.363529872436     0.235714733632    -0.036321213998     1.007825032230
         C           -1.511948127564     2.108245733632     0.299542786002    12.000000000000
         H           -0.814887127564     2.255058733632     1.123756786002     1.007825032230
         H           -1.094257127564     2.564717733632    -0.596666213998     1.007825032230
         H           -2.471744127564     2.565202733632     0.546072786002     1.007825032230

  Basis Set: AUG-CC-PVTZ
    Blend: AUG-CC-PVTZ
  Basis Set: (AUG-CC-PVTZ AUX)
    Blend: AUG-CC-PVTZ-JKFIT
	 Reference Energy          =    -525.5439820637017192 [Eh]
	 Singles Energy            =      -0.0000000000000000 [Eh]
	 Same-Spin Energy          =      -0.5783761426036185 [Eh]
	 Opposite-Spin Energy      =      -1.7408345819248621 [Eh]
	 Correlation Energy        =      -2.3192107245284808 [Eh]
	 Total Energy              =    -527.8631927882302080 [Eh]

	 ================> DF-SCS-MP2 Energies <==================
	-----------------------------------------------------------
	 SCS Same-Spin Scale       =       0.3333333333333333 [-]
	 SCS Opposite-Spin Scale   =       1.2000000000000000 [-]
	 SCS Same-Spin Energy      =      -0.1927920475345395 [Eh]
	 SCS Opposite-Spin Energy  =      -2.0890014983098344 [Eh]
	 SCS Correlation Energy    =      -2.2817935458443737 [Eh]
	 SCS Total Energy          =    -527.8257756095460991 [Eh]
	-----------------------------------------------------------

  Dipole Moment: [D]
     X:     1.5475      Y:     4.0831      Z:     0.4892     Total:     4.3938

*** Psi4 exiting successfully. Buy a developer a beer!
