                               Psi4 1.3.2 release

  ==> Input File <==

--------------------------------------------------------------------------
#psi4
#
memory 32 gb

molecule  {
0 1
  N       -1.7314010     0.6447010     0.0841650
  N       -1.4345640    -1.5648400    -0.1846490
  N        1.1113180     1.0210360    -0.2929590
  N        1.3650780    -1.3052570     0.2771500
  C       -0.8211750    -0.3840720    -0.0264870
  C        0.6302560    -0.2085840    -0.0077820
  C       -2.9967145     0.1209331    -0.0012101
  C       -2.7669850    -1.2782450    -0.1740670
  C        2.4478010     1.1517920    -0.2896530
  C        2.6936640    -1.1417610     0.2510410
  C        3.2993530     0.0833730    -0.0301630
  H       -3.8759520     0.6750340     0.0629310
  H       -3.5116600    -2.0553930    -0.2887470
  H        2.8330150     2.1453150    -0.5142540
  H        3.2873230    -2.0271970     0.4738100
  H        4.3785670     0.1979470    -0.0409660
  C       -1.4969110     2.0704780     0.2948980
  H       -0.7998500     2.2172910     1.1191120
  H       -1.0792200     2.5269500    -0.6013110
  H       -2.4567070     2.5274350     0.5414280
units angstrom
no_reorient  #important for SAPT in psi4, default
symmetry c1  #important for SAPT in psi4, default
}

set PROPERTIES_ORIGIN ["COM"]
properties('MP2/aug-cc-pvtz', properties = ['dipole'])
--------------------------------------------------------------------------

    Molecular point group: c1
  Charge       = 0
  Multiplicity = 1
  Basis Set: AUG-CC-PVTZ
    Blend: AUG-CC-PVTZ
  Basis Set: (AUG-CC-PVTZ AUX)
    Blend: AUG-CC-PVTZ-JKFIT

    Orbital Energies [Eh]
    ---------------------

    Doubly Occupied:

       1A    -15.629497     2A    -15.579643     3A    -15.574691
       4A    -15.548853     5A    -11.333567     6A    -11.305684
       7A    -11.302881     8A    -11.295472     9A    -11.273023
      10A    -11.262390    11A    -11.251471    12A    -11.246740
      13A     -1.343508    14A     -1.307619    15A     -1.197920
      16A     -1.179049    17A     -1.088275    18A     -1.004794
      19A     -0.968534    20A     -0.899159    21A     -0.892996
      22A     -0.805713    23A     -0.784574    24A     -0.725570
      25A     -0.702919    26A     -0.688140    27A     -0.646420
      28A     -0.644891    29A     -0.610516    30A     -0.592556
      31A     -0.585180    32A     -0.581342    33A     -0.569358
      34A     -0.553412    35A     -0.541501    36A     -0.481164
      37A     -0.436858    38A     -0.424174    39A     -0.412400
      40A     -0.396912    41A     -0.378383    42A     -0.293347

  @DF-RHF Final Energy:  -525.55260026327880

   => Energetics <=

    Nuclear Repulsion Energy =            653.4468597559846330
    One-Electron Energy =               -2009.3167237436910000
    Two-Electron Energy =                 830.3172637244275620
    Total Energy =                       -525.5526002632788050
  Basis Set: (AUG-CC-PVTZ AUX)
    Blend: AUG-CC-PVTZ-RI
    Molecular point group: c1

    Geometry (in Angstrom), charge = 0, multiplicity = 1:

       Center              X                  Y                   Z               Mass
    ------------   -----------------  -----------------  -----------------  -----------------
         N           -1.737531321855     0.679945864592     0.088360843653    14.003074004430
         N           -1.440694321855    -1.529595135408    -0.180453156347    14.003074004430
         N            1.105187678145     1.056280864592    -0.288763156347    14.003074004430
         N            1.358947678145    -1.270012135408     0.281345843653    14.003074004430
         C           -0.827305321855    -0.348827135408    -0.022291156347    12.000000000000
         C            0.624125678145    -0.173339135408    -0.003586156347    12.000000000000
         C           -3.002844821855     0.156177964592     0.002985743653    12.000000000000
         C           -2.773115321855    -1.243000135408    -0.169871156347    12.000000000000
         C            2.441670678145     1.187036864592    -0.285457156347    12.000000000000
         C            2.687533678145    -1.106516135408     0.255236843653    12.000000000000
         C            3.293222678145     0.118617864592    -0.025967156347    12.000000000000
         H           -3.882082321855     0.710278864592     0.067126843653     1.007825032230
         H           -3.517790321855    -2.020148135408    -0.284551156347     1.007825032230
         H            2.826884678145     2.180559864592    -0.510058156347     1.007825032230
         H            3.281192678145    -1.991952135408     0.478005843653     1.007825032230
         H            4.372436678145     0.233191864592    -0.036770156347     1.007825032230
         C           -1.503041321855     2.105722864592     0.299093843653    12.000000000000
         H           -0.805980321855     2.252535864592     1.123307843653     1.007825032230
         H           -1.085350321855     2.562194864592    -0.597115156347     1.007825032230
         H           -2.462837321855     2.562679864592     0.545623843653     1.007825032230

  Basis Set: AUG-CC-PVTZ
    Blend: AUG-CC-PVTZ
  Basis Set: (AUG-CC-PVTZ AUX)
    Blend: AUG-CC-PVTZ-JKFIT
	 Reference Energy          =    -525.5526002632788050 [Eh]
	 Singles Energy            =      -0.0000000000000000 [Eh]
	 Same-Spin Energy          =      -0.5786681754867986 [Eh]
	 Opposite-Spin Energy      =      -1.7396304986930515 [Eh]
	 Correlation Energy        =      -2.3182986741798501 [Eh]
	 Total Energy              =    -527.8708989374586054 [Eh]

	 ================> DF-SCS-MP2 Energies <==================
	-----------------------------------------------------------
	 SCS Same-Spin Scale       =       0.3333333333333333 [-]
	 SCS Opposite-Spin Scale   =       1.2000000000000000 [-]
	 SCS Same-Spin Energy      =      -0.1928893918289329 [Eh]
	 SCS Opposite-Spin Energy  =      -2.0875565984316617 [Eh]
	 SCS Correlation Energy    =      -2.2804459902605947 [Eh]
	 SCS Total Energy          =    -527.8330462535393508 [Eh]
	-----------------------------------------------------------

  Dipole Moment: [D]
     X:     1.3778      Y:     4.1129      Z:     0.4786     Total:     4.3639

*** Psi4 exiting successfully. Buy a developer a beer!
