                               Psi4 1.4a3.dev225

  ==> Input File <==

--------------------------------------------------------------------------
#psi4
#
memory 32 gb

molecule  {
0 1
  N       -1.7314010     0.6447010     0.0841650
  N       -1.4345640    -1.5648400    -0.1846490
  N        1.1113180     1.0210360    -0.2929590
  N        1.3650780    -1.3052570     0.2771500
  C       -0.8343850    -0.3691416    -0.0248811
  C        0.6302560    -0.2085840    -0.0077820
  C       -2.9774260     0.0775420    -0.0074450
  C       -2.7669850    -1.2782450    -0.1740670
  C        2.4478010     1.1517920    -0.2896530
  C        2.6936640    -1.1417610     0.2510410
  C        3.2993530     0.0833730    -0.0301630
  H       -3.8759520     0.6750340     0.0629310
  H       -3.5116600    -2.0553930    -0.2887470
  H        2.8330150     2.1453150    -0.5142540
  H        3.2873230    -2.0271970     0.4738100
  H        4.3785670     0.1979470    -0.0409660
  C       -1.4969110     2.0704780     0.2948980
  H       -0.7998500     2.2172910     1.1191120
  H       -1.0792200     2.5269500    -0.6013110
  H       -2.4567070     2.5274350     0.5414280
units angstrom
no_reorient  #important for SAPT in psi4, default
symmetry c1  #important for SAPT in psi4, default
}

set PROPERTIES_ORIGIN ["COM"]
properties('MP2/aug-cc-pvtz', properties = ['dipole'])
--------------------------------------------------------------------------

    Molecular point group: c1
  Charge       = 0
  Multiplicity = 1
  Basis Set: AUG-CC-PVTZ
    Blend: AUG-CC-PVTZ
  Basis Set: (AUG-CC-PVTZ AUX)
    Blend: AUG-CC-PVTZ-JKFIT

    Orbital Energies [Eh]
    ---------------------

    Doubly Occupied:

       1A    -15.627172     2A    -15.579852     3A    -15.575145
       4A    -15.545254     5A    -11.334082     6A    -11.305720
       7A    -11.303092     8A    -11.295267     9A    -11.274593
      10A    -11.258150    11A    -11.251873    12A    -11.240537
      13A     -1.348324    14A     -1.308488    15A     -1.197760
      16A     -1.177678    17A     -1.088073    18A     -1.007334
      19A     -0.971026    20A     -0.899133    21A     -0.893416
      22A     -0.803863    23A     -0.783182    24A     -0.727938
      25A     -0.702596    26A     -0.685909    27A     -0.648487
      28A     -0.639205    29A     -0.607163    30A     -0.593087
      31A     -0.587766    32A     -0.580118    33A     -0.568304
      34A     -0.555337    35A     -0.544379    36A     -0.480609
      37A     -0.436499    38A     -0.424178    39A     -0.412420
      40A     -0.395321    41A     -0.378466    42A     -0.298942

  @DF-RHF Final Energy:  -525.55798252395073

   => Energetics <=

    Nuclear Repulsion Energy =            654.1996012516202654
    One-Electron Energy =               -2010.8436894071721781
    Two-Electron Energy =                 831.0861056316010718
    Total Energy =                       -525.5579825239507272
  Basis Set: (AUG-CC-PVTZ AUX)
    Blend: AUG-CC-PVTZ-RI
    Molecular point group: c1

    Geometry (in Angstrom), charge = 0, multiplicity = 1:

       Center              X                  Y                   Z               Mass
    ------------   -----------------  -----------------  -----------------  -----------------
         N           -1.737986996053     0.682079418371     0.088707856215    14.003074004430
         N           -1.441149996053    -1.527461581629    -0.180106143785    14.003074004430
         N            1.104732003947     1.058414418371    -0.288416143785    14.003074004430
         N            1.358492003947    -1.267878581629     0.281692856215    14.003074004430
         C           -0.840970996053    -0.331763181629    -0.020338243785    12.000000000000
         C            0.623670003947    -0.171205581629    -0.003239143785    12.000000000000
         C           -2.984011996053     0.114920418371    -0.002902143785    12.000000000000
         C           -2.773570996053    -1.240866581629    -0.169524143785    12.000000000000
         C            2.441215003947     1.189170418371    -0.285110143785    12.000000000000
         C            2.687078003947    -1.104382581629     0.255583856215    12.000000000000
         C            3.292767003947     0.120751418371    -0.025620143785    12.000000000000
         H           -3.882537996053     0.712412418371     0.067473856215     1.007825032230
         H           -3.518245996053    -2.018014581629    -0.284204143785     1.007825032230
         H            2.826429003947     2.182693418371    -0.509711143785     1.007825032230
         H            3.280737003947    -1.989818581629     0.478352856215     1.007825032230
         H            4.371981003947     0.235325418371    -0.036423143785     1.007825032230
         C           -1.503496996053     2.107856418371     0.299440856215    12.000000000000
         H           -0.806435996053     2.254669418371     1.123654856215     1.007825032230
         H           -1.085805996053     2.564328418371    -0.596768143785     1.007825032230
         H           -2.463292996053     2.564813418371     0.545970856215     1.007825032230

  Basis Set: AUG-CC-PVTZ
    Blend: AUG-CC-PVTZ
  Basis Set: (AUG-CC-PVTZ AUX)
    Blend: AUG-CC-PVTZ-JKFIT
	 Reference Energy          =    -525.5579825239507272 [Eh]
	 Singles Energy            =      -0.0000000000000000 [Eh]
	 Same-Spin Energy          =      -0.5778261802345432 [Eh]
	 Opposite-Spin Energy      =      -1.7380699592043540 [Eh]
	 Correlation Energy        =      -2.3158961394388973 [Eh]
	 Total Energy              =    -527.8738786633896325 [Eh]

	 ================> DF-SCS-MP2 Energies <==================
	-----------------------------------------------------------
	 SCS Same-Spin Scale       =       0.3333333333333333 [-]
	 SCS Opposite-Spin Scale   =       1.2000000000000000 [-]
	 SCS Same-Spin Energy      =      -0.1926087267448477 [Eh]
	 SCS Opposite-Spin Energy  =      -2.0856839510452247 [Eh]
	 SCS Correlation Energy    =      -2.2782926777900725 [Eh]
	 SCS Total Energy          =    -527.8362752017408184 [Eh]
	-----------------------------------------------------------

  Dipole Moment: [D]
     X:     1.4014      Y:     4.1468      Z:     0.4867     Total:     4.4042

*** Psi4 exiting successfully. Buy a developer a beer!
