                               Psi4 1.4a3.dev225

  ==> Input File <==

--------------------------------------------------------------------------
#psi4
#
memory 32 gb

molecule  {
0 1
  N       -1.7314010     0.6447010     0.0841650
  N       -1.4345640    -1.5648400    -0.1846490
  N        1.1113180     1.0210360    -0.2929590
  N        1.3650780    -1.3052570     0.2771500
  C       -0.8211750    -0.3840720    -0.0264870
  C        0.6302560    -0.2085840    -0.0077820
  C       -2.9774260     0.0775420    -0.0074450
  C       -2.7669850    -1.2782450    -0.1740670
  C        2.4478010     1.1517920    -0.2896530
  C        2.6936640    -1.1417610     0.2510410
  C        3.2993530     0.0833730    -0.0301630
  H       -3.8759520     0.6750340     0.0629310
  H       -3.5254193    -2.0697523    -0.2908659
  H        2.8330150     2.1453150    -0.5142540
  H        3.2873230    -2.0271970     0.4738100
  H        4.3785670     0.1979470    -0.0409660
  C       -1.4969110     2.0704780     0.2948980
  H       -0.7998500     2.2172910     1.1191120
  H       -1.0792200     2.5269500    -0.6013110
  H       -2.4567070     2.5274350     0.5414280
units angstrom
no_reorient  #important for SAPT in psi4, default
symmetry c1  #important for SAPT in psi4, default
}

set PROPERTIES_ORIGIN ["COM"]
properties('MP2/aug-cc-pvtz', properties = ['dipole'])
--------------------------------------------------------------------------

    Molecular point group: c1
  Charge       = 0
  Multiplicity = 1
  Basis Set: AUG-CC-PVTZ
    Blend: AUG-CC-PVTZ
  Basis Set: (AUG-CC-PVTZ AUX)
    Blend: AUG-CC-PVTZ-JKFIT

    Orbital Energies [Eh]
    ---------------------

    Doubly Occupied:

       1A    -15.625917     2A    -15.580042     3A    -15.574941
       4A    -15.546722     5A    -11.333446     6A    -11.305866
       7A    -11.302997     8A    -11.295565     9A    -11.273453
      10A    -11.260078    11A    -11.251862    12A    -11.242630
      13A     -1.344932    14A     -1.308121    15A     -1.197966
      16A     -1.177911    17A     -1.088959    18A     -1.007752
      19A     -0.968478    20A     -0.899296    21A     -0.893643
      22A     -0.800815    23A     -0.784522    24A     -0.726449
      25A     -0.702591    26A     -0.685468    27A     -0.646319
      28A     -0.639852    29A     -0.606612    30A     -0.592564
      31A     -0.586938    32A     -0.579425    33A     -0.569751
      34A     -0.554153    35A     -0.543346    36A     -0.481174
      37A     -0.436167    38A     -0.424258    39A     -0.412429
      40A     -0.396681    41A     -0.377970    42A     -0.298645

  @DF-RHF Final Energy:  -525.55729849115789

   => Energetics <=

    Nuclear Repulsion Energy =            654.0106425256461762
    One-Electron Energy =               -2010.4824730005748279
    Two-Electron Energy =                 830.9145319837706438
    Total Energy =                       -525.5572984911578942
  Basis Set: (AUG-CC-PVTZ AUX)
    Blend: AUG-CC-PVTZ-RI
    Molecular point group: c1

    Geometry (in Angstrom), charge = 0, multiplicity = 1:

       Center              X                  Y                   Z               Mass
    ------------   -----------------  -----------------  -----------------  -----------------
         N           -1.738890654506     0.683289080014     0.088841582871    14.003074004430
         N           -1.442053654506    -1.526251919986    -0.179972417129    14.003074004430
         N            1.103828345494     1.059624080014    -0.288282417129    14.003074004430
         N            1.357588345494    -1.266668919986     0.281826582871    14.003074004430
         C           -0.828664654506    -0.345483919986    -0.021810417129    12.000000000000
         C            0.622766345494    -0.169995919986    -0.003105417129    12.000000000000
         C           -2.984915654506     0.116130080014    -0.002768417129    12.000000000000
         C           -2.774474654506    -1.239656919986    -0.169390417129    12.000000000000
         C            2.440311345494     1.190380080014    -0.284976417129    12.000000000000
         C            2.686174345494    -1.103172919986     0.255717582871    12.000000000000
         C            3.291863345494     0.121961080014    -0.025486417129    12.000000000000
         H           -3.883441654506     0.713622080014     0.067607582871     1.007825032230
         H           -3.532908954506    -2.031164219986    -0.286189317129     1.007825032230
         H            2.825525345494     2.183903080014    -0.509577417129     1.007825032230
         H            3.279833345494    -1.988608919986     0.478486582871     1.007825032230
         H            4.371077345494     0.236535080014    -0.036289417129     1.007825032230
         C           -1.504400654506     2.109066080014     0.299574582871    12.000000000000
         H           -0.807339654506     2.255879080014     1.123788582871     1.007825032230
         H           -1.086709654506     2.565538080014    -0.596634417129     1.007825032230
         H           -2.464196654506     2.566023080014     0.546104582871     1.007825032230

  Basis Set: AUG-CC-PVTZ
    Blend: AUG-CC-PVTZ
  Basis Set: (AUG-CC-PVTZ AUX)
    Blend: AUG-CC-PVTZ-JKFIT
	 Reference Energy          =    -525.5572984911578942 [Eh]
	 Singles Energy            =      -0.0000000000000000 [Eh]
	 Same-Spin Energy          =      -0.5780105704097795 [Eh]
	 Opposite-Spin Energy      =      -1.7384779773168362 [Eh]
	 Correlation Energy        =      -2.3164885477266157 [Eh]
	 Total Energy              =    -527.8737870388845295 [Eh]

	 ================> DF-SCS-MP2 Energies <==================
	-----------------------------------------------------------
	 SCS Same-Spin Scale       =       0.3333333333333333 [-]
	 SCS Opposite-Spin Scale   =       1.2000000000000000 [-]
	 SCS Same-Spin Energy      =      -0.1926701901365932 [Eh]
	 SCS Opposite-Spin Energy  =      -2.0861735727802033 [Eh]
	 SCS Correlation Energy    =      -2.2788437629167966 [Eh]
	 SCS Total Energy          =    -527.8361422540747299 [Eh]
	-----------------------------------------------------------

  Dipole Moment: [D]
     X:     1.3980      Y:     4.1094      Z:     0.4799     Total:     4.3671

*** Psi4 exiting successfully. Buy a developer a beer!
