                               Psi4 1.4a3.dev225

  ==> Input File <==

--------------------------------------------------------------------------
#psi4
#
memory 32 gb

molecule  {
0 1
  N       -1.7314010     0.6447010     0.0841650
  N       -1.4345640    -1.5648400    -0.1846490
  N        1.1113180     1.0210360    -0.2929590
  N        1.3650780    -1.3052570     0.2771500
  C       -0.8211750    -0.3840720    -0.0264870
  C        0.6302560    -0.2085840    -0.0077820
  C       -2.9955884     0.0692749    -0.0087803
  C       -2.7669850    -1.2782450    -0.1740670
  C        2.4478010     1.1517920    -0.2896530
  C        2.6936640    -1.1417610     0.2510410
  C        3.2993530     0.0833730    -0.0301630
  H       -3.8759520     0.6750340     0.0629310
  H       -3.5116600    -2.0553930    -0.2887470
  H        2.8330150     2.1453150    -0.5142540
  H        3.2873230    -2.0271970     0.4738100
  H        4.3785670     0.1979470    -0.0409660
  C       -1.4969110     2.0704780     0.2948980
  H       -0.7998500     2.2172910     1.1191120
  H       -1.0792200     2.5269500    -0.6013110
  H       -2.4567070     2.5274350     0.5414280
units angstrom
no_reorient  #important for SAPT in psi4, default
symmetry c1  #important for SAPT in psi4, default
}

set PROPERTIES_ORIGIN ["COM"]
properties('MP2/aug-cc-pvtz', properties = ['dipole'])
--------------------------------------------------------------------------

    Molecular point group: c1
  Charge       = 0
  Multiplicity = 1
  Basis Set: AUG-CC-PVTZ
    Blend: AUG-CC-PVTZ
  Basis Set: (AUG-CC-PVTZ AUX)
    Blend: AUG-CC-PVTZ-JKFIT

    Orbital Energies [Eh]
    ---------------------

    Doubly Occupied:

       1A    -15.624298     2A    -15.580719     3A    -15.575684
       4A    -15.545746     5A    -11.333871     6A    -11.306257
       7A    -11.303426     8A    -11.297032     9A    -11.272307
      10A    -11.259316    11A    -11.252557    12A    -11.240963
      13A     -1.341385    14A     -1.307665    15A     -1.198246
      16A     -1.175917    17A     -1.089380    18A     -1.008105
      19A     -0.966991    20A     -0.899731    21A     -0.894986
      22A     -0.801073    23A     -0.785182    24A     -0.725660
      25A     -0.703342    26A     -0.685873    27A     -0.644133
      28A     -0.639782    29A     -0.608235    30A     -0.592552
      31A     -0.588728    32A     -0.580321    33A     -0.569265
      34A     -0.553447    35A     -0.542053    36A     -0.481568
      37A     -0.436397    38A     -0.424614    39A     -0.412873
      40A     -0.395946    41A     -0.376879    42A     -0.300627

  @DF-RHF Final Energy:  -525.55727331706339

   => Energetics <=

    Nuclear Repulsion Energy =            653.7168372683436246
    One-Electron Energy =               -2009.9019547571954263
    Two-Electron Energy =                 830.6278441717884107
    Total Energy =                       -525.5572733170633910
  Basis Set: (AUG-CC-PVTZ AUX)
    Blend: AUG-CC-PVTZ-RI
    Molecular point group: c1

    Geometry (in Angstrom), charge = 0, multiplicity = 1:

       Center              X                  Y                   Z               Mass
    ------------   -----------------  -----------------  -----------------  -----------------
         N           -1.737615739839     0.683818416843     0.088928343005    14.003074004430
         N           -1.440778739839    -1.525722583157    -0.179885656995    14.003074004430
         N            1.105103260161     1.060153416843    -0.288195656995    14.003074004430
         N            1.358863260161    -1.266139583157     0.281913343005    14.003074004430
         C           -0.827389739839    -0.344954583157    -0.021723656995    12.000000000000
         C            0.624041260161    -0.169466583157    -0.003018656995    12.000000000000
         C           -3.001803139839     0.108392316843    -0.004016956995    12.000000000000
         C           -2.773199739839    -1.239127583157    -0.169303656995    12.000000000000
         C            2.441586260161     1.190909416843    -0.284889656995    12.000000000000
         C            2.687449260161    -1.102643583157     0.255804343005    12.000000000000
         C            3.293138260161     0.122490416843    -0.025399656995    12.000000000000
         H           -3.882166739839     0.714151416843     0.067694343005     1.007825032230
         H           -3.517874739839    -2.016275583157    -0.283983656995     1.007825032230
         H            2.826800260161     2.184432416843    -0.509490656995     1.007825032230
         H            3.281108260161    -1.988079583157     0.478573343005     1.007825032230
         H            4.372352260161     0.237064416843    -0.036202656995     1.007825032230
         C           -1.503125739839     2.109595416843     0.299661343005    12.000000000000
         H           -0.806064739839     2.256408416843     1.123875343005     1.007825032230
         H           -1.085434739839     2.566067416843    -0.596547656995     1.007825032230
         H           -2.462921739839     2.566552416843     0.546191343005     1.007825032230

  Basis Set: AUG-CC-PVTZ
    Blend: AUG-CC-PVTZ
  Basis Set: (AUG-CC-PVTZ AUX)
    Blend: AUG-CC-PVTZ-JKFIT
	 Reference Energy          =    -525.5572733170633910 [Eh]
	 Singles Energy            =      -0.0000000000000000 [Eh]
	 Same-Spin Energy          =      -0.5778430619167377 [Eh]
	 Opposite-Spin Energy      =      -1.7384741877568795 [Eh]
	 Correlation Energy        =      -2.3163172496736171 [Eh]
	 Total Energy              =    -527.8735905667369934 [Eh]

	 ================> DF-SCS-MP2 Energies <==================
	-----------------------------------------------------------
	 SCS Same-Spin Scale       =       0.3333333333333333 [-]
	 SCS Opposite-Spin Scale   =       1.2000000000000000 [-]
	 SCS Same-Spin Energy      =      -0.1926143539722459 [Eh]
	 SCS Opposite-Spin Energy  =      -2.0861690253082554 [Eh]
	 SCS Correlation Energy    =      -2.2787833792805015 [Eh]
	 SCS Total Energy          =    -527.8360566963439169 [Eh]
	-----------------------------------------------------------

  Dipole Moment: [D]
     X:     1.4216      Y:     4.0868      Z:     0.4765     Total:     4.3532

*** Psi4 exiting successfully. Buy a developer a beer!
