                               Psi4 1.4a3.dev225

  ==> Input File <==

--------------------------------------------------------------------------
#psi4
#
memory 32 gb

molecule  {
0 1
  N       -1.7314010     0.6447010     0.0841650
  N       -1.4345640    -1.5648400    -0.1846490
  N        1.1113180     1.0210360    -0.2929590
  N        1.3650780    -1.3052570     0.2771500
  C       -0.8211750    -0.3840720    -0.0264870
  C        0.6302560    -0.2085840    -0.0077820
  C       -2.9774260     0.0775420    -0.0074450
  C       -2.7669850    -1.2782450    -0.1740670
  C        2.4478010     1.1517920    -0.2896530
  C        2.6936640    -1.1417610     0.2510410
  C        3.2871065     0.0987384    -0.0338948
  H       -3.8759520     0.6750340     0.0629310
  H       -3.5116600    -2.0553930    -0.2887470
  H        2.8330150     2.1453150    -0.5142540
  H        3.2873230    -2.0271970     0.4738100
  H        4.3785670     0.1979470    -0.0409660
  C       -1.4969110     2.0704780     0.2948980
  H       -0.7998500     2.2172910     1.1191120
  H       -1.0792200     2.5269500    -0.6013110
  H       -2.4567070     2.5274350     0.5414280
units angstrom
no_reorient  #important for SAPT in psi4, default
symmetry c1  #important for SAPT in psi4, default
}

set PROPERTIES_ORIGIN ["COM"]
properties('MP2/aug-cc-pvtz', properties = ['dipole'])
--------------------------------------------------------------------------

    Molecular point group: c1
  Charge       = 0
  Multiplicity = 1
  Basis Set: AUG-CC-PVTZ
    Blend: AUG-CC-PVTZ
  Basis Set: (AUG-CC-PVTZ AUX)
    Blend: AUG-CC-PVTZ-JKFIT

    Orbital Energies [Eh]
    ---------------------

    Doubly Occupied:

       1A    -15.625665     2A    -15.579181     3A    -15.575434
       4A    -15.546453     5A    -11.333209     6A    -11.304935
       7A    -11.302382     8A    -11.295346     9A    -11.273192
      10A    -11.259817    11A    -11.251504    12A    -11.240268
      13A     -1.344738    14A     -1.308450    15A     -1.198047
      16A     -1.177767    17A     -1.089972    18A     -1.007858
      19A     -0.968376    20A     -0.900246    21A     -0.893345
      22A     -0.802267    23A     -0.784603    24A     -0.727000
      25A     -0.703379    26A     -0.684969    27A     -0.646112
      28A     -0.638030    29A     -0.606100    30A     -0.594730
      31A     -0.587015    32A     -0.579707    33A     -0.570035
      34A     -0.556181    35A     -0.543245    36A     -0.480020
      37A     -0.436213    38A     -0.424248    39A     -0.412573
      40A     -0.397368    41A     -0.377988    42A     -0.298612

  @DF-RHF Final Energy:  -525.55757379268096

   => Energetics <=

    Nuclear Repulsion Energy =            654.3598704638583285
    One-Electron Energy =               -2011.1817258456881063
    Two-Electron Energy =                 831.2642815891487089
    Total Energy =                       -525.5575737926809552
  Basis Set: (AUG-CC-PVTZ AUX)
    Blend: AUG-CC-PVTZ-RI
    Molecular point group: c1

    Geometry (in Angstrom), charge = 0, multiplicity = 1:

       Center              X                  Y                   Z               Mass
    ------------   -----------------  -----------------  -----------------  -----------------
         N           -1.738059224743     0.682046808636     0.089107996409    14.003074004430
         N           -1.441222224743    -1.527494191364    -0.179706003591    14.003074004430
         N            1.104659775257     1.058381808636    -0.288016003591    14.003074004430
         N            1.358419775257    -1.267911191364     0.282092996409    14.003074004430
         C           -0.827833224743    -0.346726191364    -0.021544003591    12.000000000000
         C            0.623597775257    -0.171238191364    -0.002839003591    12.000000000000
         C           -2.984084224743     0.114887808636    -0.002502003591    12.000000000000
         C           -2.773643224743    -1.240899191364    -0.169124003591    12.000000000000
         C            2.441142775257     1.189137808636    -0.284710003591    12.000000000000
         C            2.687005775257    -1.104415191364     0.255983996409    12.000000000000
         C            3.280448275257     0.136084208636    -0.028951803591    12.000000000000
         H           -3.882610224743     0.712379808636     0.067873996409     1.007825032230
         H           -3.518318224743    -2.018047191364    -0.283804003591     1.007825032230
         H            2.826356775257     2.182660808636    -0.509311003591     1.007825032230
         H            3.280664775257    -1.989851191364     0.478752996409     1.007825032230
         H            4.371908775257     0.235292808636    -0.036023003591     1.007825032230
         C           -1.503569224743     2.107823808636     0.299840996409    12.000000000000
         H           -0.806508224743     2.254636808636     1.124054996409     1.007825032230
         H           -1.085878224743     2.564295808636    -0.596368003591     1.007825032230
         H           -2.463365224743     2.564780808636     0.546370996409     1.007825032230

  Basis Set: AUG-CC-PVTZ
    Blend: AUG-CC-PVTZ
  Basis Set: (AUG-CC-PVTZ AUX)
    Blend: AUG-CC-PVTZ-JKFIT
	 Reference Energy          =    -525.5575737926809552 [Eh]
	 Singles Energy            =      -0.0000000000000000 [Eh]
	 Same-Spin Energy          =      -0.5779634343630706 [Eh]
	 Opposite-Spin Energy      =      -1.7382956833057577 [Eh]
	 Correlation Energy        =      -2.3162591176688281 [Eh]
	 Total Energy              =    -527.8738329103497335 [Eh]

	 ================> DF-SCS-MP2 Energies <==================
	-----------------------------------------------------------
	 SCS Same-Spin Scale       =       0.3333333333333333 [-]
	 SCS Opposite-Spin Scale   =       1.2000000000000000 [-]
	 SCS Same-Spin Energy      =      -0.1926544781210235 [Eh]
	 SCS Opposite-Spin Energy  =      -2.0859548199669091 [Eh]
	 SCS Correlation Energy    =      -2.2786092980879324 [Eh]
	 SCS Total Energy          =    -527.8361830907689409 [Eh]
	-----------------------------------------------------------

  Dipole Moment: [D]
     X:     1.3973      Y:     4.0773      Z:     0.4872     Total:     4.3375

*** Psi4 exiting successfully. Buy a developer a beer!
