                               Psi4 1.3.2 release

  ==> Input File <==

--------------------------------------------------------------------------
#psi4
#
memory 32 gb

molecule  {
0 1
  N       -1.7314010     0.6447010     0.0841650
  N       -1.4345640    -1.5648400    -0.1846490
  N        1.1113180     1.0210360    -0.2929590
  N        1.3650780    -1.3052570     0.2771500
  C       -0.8211750    -0.3840720    -0.0264870
  C        0.6302560    -0.2085840    -0.0077820
  C       -2.9296373     0.0838729    -0.0055864
  C       -2.7669850    -1.2782450    -0.1740670
  C        2.4478010     1.1517920    -0.2896530
  C        2.6936640    -1.1417610     0.2510410
  C        3.2993530     0.0833730    -0.0301630
  H       -3.8759520     0.6750340     0.0629310
  H       -3.5116600    -2.0553930    -0.2887470
  H        2.8330150     2.1453150    -0.5142540
  H        3.2873230    -2.0271970     0.4738100
  H        4.3785670     0.1979470    -0.0409660
  C       -1.4969110     2.0704780     0.2948980
  H       -0.7998500     2.2172910     1.1191120
  H       -1.0792200     2.5269500    -0.6013110
  H       -2.4567070     2.5274350     0.5414280
units angstrom
no_reorient  #important for SAPT in psi4, default
symmetry c1  #important for SAPT in psi4, default
}

set PROPERTIES_ORIGIN ["COM"]
properties('MP2/aug-cc-pvtz', properties = ['dipole'])
--------------------------------------------------------------------------

    Molecular point group: c1
  Charge       = 0
  Multiplicity = 1
  Basis Set: AUG-CC-PVTZ
    Blend: AUG-CC-PVTZ
  Basis Set: (AUG-CC-PVTZ AUX)
    Blend: AUG-CC-PVTZ-JKFIT

    Orbital Energies [Eh]
    ---------------------

    Doubly Occupied:

       1A    -15.628174     2A    -15.578330     3A    -15.573042
       4A    -15.547871     5A    -11.332149     6A    -11.304821
       7A    -11.301848     8A    -11.291605     9A    -11.276128
      10A    -11.261025    11A    -11.250141    12A    -11.237422
      13A     -1.355091    14A     -1.308485    15A     -1.197462
      16A     -1.181937    17A     -1.088073    18A     -1.008901
      19A     -0.972205    20A     -0.898325    21A     -0.891586
      22A     -0.806113    23A     -0.781958    24A     -0.730518
      25A     -0.701270    26A     -0.685067    27A     -0.651785
      28A     -0.639140    29A     -0.605985    30A     -0.593892
      31A     -0.584434    32A     -0.573295    33A     -0.572678
      34A     -0.560593    35A     -0.546840    36A     -0.479999
      37A     -0.435453    38A     -0.423269    39A     -0.411254
      40A     -0.398939    41A     -0.379483    42A     -0.295259

  @DF-RHF Final Energy:  -525.55588913402414

   => Energetics <=

    Nuclear Repulsion Energy =            655.2738020699229082
    One-Electron Energy =               -2012.9756940517581825
    Two-Electron Energy =                 832.1460028478110189
    Total Energy =                       -525.5558891340241416
  Basis Set: (AUG-CC-PVTZ AUX)
    Blend: AUG-CC-PVTZ-RI
    Molecular point group: c1

    Geometry (in Angstrom), charge = 0, multiplicity = 1:

       Center              X                  Y                   Z               Mass
    ------------   -----------------  -----------------  -----------------  -----------------
         N           -1.742559758035     0.682724079105     0.088688912583    14.003074004430
         N           -1.445722758035    -1.526816920895    -0.180125087417    14.003074004430
         N            1.100159241965     1.059059079105    -0.288435087417    14.003074004430
         N            1.353919241965    -1.267233920895     0.281673912583    14.003074004430
         C           -0.832333758035    -0.346048920895    -0.021963087417    12.000000000000
         C            0.619097241965    -0.170560920895    -0.003258087417    12.000000000000
         C           -2.940796058035     0.121895979105    -0.001062487417    12.000000000000
         C           -2.778143758035    -1.240221920895    -0.169543087417    12.000000000000
         C            2.436642241965     1.189815079105    -0.285129087417    12.000000000000
         C            2.682505241965    -1.103737920895     0.255564912583    12.000000000000
         C            3.288194241965     0.121396079105    -0.025639087417    12.000000000000
         H           -3.887110758035     0.713057079105     0.067454912583     1.007825032230
         H           -3.522818758035    -2.017369920895    -0.284223087417     1.007825032230
         H            2.821856241965     2.183338079105    -0.509730087417     1.007825032230
         H            3.276164241965    -1.989173920895     0.478333912583     1.007825032230
         H            4.367408241965     0.235970079105    -0.036442087417     1.007825032230
         C           -1.508069758035     2.108501079105     0.299421912583    12.000000000000
         H           -0.811008758035     2.255314079105     1.123635912583     1.007825032230
         H           -1.090378758035     2.564973079105    -0.596787087417     1.007825032230
         H           -2.467865758035     2.565458079105     0.545951912583     1.007825032230

  Basis Set: AUG-CC-PVTZ
    Blend: AUG-CC-PVTZ
  Basis Set: (AUG-CC-PVTZ AUX)
    Blend: AUG-CC-PVTZ-JKFIT
	 Reference Energy          =    -525.5558891340241416 [Eh]
	 Singles Energy            =      -0.0000000000000000 [Eh]
	 Same-Spin Energy          =      -0.5781055852366596 [Eh]
	 Opposite-Spin Energy      =      -1.7377901190890932 [Eh]
	 Correlation Energy        =      -2.3158957043257526 [Eh]
	 Total Energy              =    -527.8717848383498676 [Eh]

	 ================> DF-SCS-MP2 Energies <==================
	-----------------------------------------------------------
	 SCS Same-Spin Scale       =       0.3333333333333333 [-]
	 SCS Opposite-Spin Scale   =       1.2000000000000000 [-]
	 SCS Same-Spin Energy      =      -0.1927018617455532 [Eh]
	 SCS Opposite-Spin Energy  =      -2.0853481429069118 [Eh]
	 SCS Correlation Energy    =      -2.2780500046524650 [Eh]
	 SCS Total Energy          =    -527.8339391386765556 [Eh]
	-----------------------------------------------------------

  Dipole Moment: [D]
     X:     1.3290      Y:     4.1576      Z:     0.4870     Total:     4.3919

*** Psi4 exiting successfully. Buy a developer a beer!
