                               Psi4 1.3.2 release

  ==> Input File <==

--------------------------------------------------------------------------
#psi4
#
memory 32 gb

molecule  {
0 1
  N       -1.7132042     0.6603392     0.0858436
  N       -1.4345640    -1.5648400    -0.1846490
  N        1.1113180     1.0210360    -0.2929590
  N        1.3650780    -1.3052570     0.2771500
  C       -0.8211750    -0.3840720    -0.0264870
  C        0.6302560    -0.2085840    -0.0077820
  C       -2.9774260     0.0775420    -0.0074450
  C       -2.7669850    -1.2782450    -0.1740670
  C        2.4478010     1.1517920    -0.2896530
  C        2.6936640    -1.1417610     0.2510410
  C        3.2993530     0.0833730    -0.0301630
  H       -3.8759520     0.6750340     0.0629310
  H       -3.5116600    -2.0553930    -0.2887470
  H        2.8330150     2.1453150    -0.5142540
  H        3.2873230    -2.0271970     0.4738100
  H        4.3785670     0.1979470    -0.0409660
  C       -1.4969110     2.0704780     0.2948980
  H       -0.7998500     2.2172910     1.1191120
  H       -1.0792200     2.5269500    -0.6013110
  H       -2.4567070     2.5274350     0.5414280
units angstrom
no_reorient  #important for SAPT in psi4, default
symmetry c1  #important for SAPT in psi4, default
}

set PROPERTIES_ORIGIN ["COM"]
properties('MP2/aug-cc-pvtz', properties = ['dipole'])
--------------------------------------------------------------------------

    Molecular point group: c1
  Charge       = 0
  Multiplicity = 1
  Basis Set: AUG-CC-PVTZ
    Blend: AUG-CC-PVTZ
  Basis Set: (AUG-CC-PVTZ AUX)
    Blend: AUG-CC-PVTZ-JKFIT

    Orbital Energies [Eh]
    ---------------------

    Doubly Occupied:

       1A    -15.625108     2A    -15.580422     3A    -15.575236
       4A    -15.546744     5A    -11.333120     6A    -11.306051
       7A    -11.303142     8A    -11.297788     9A    -11.271272
      10A    -11.261042    11A    -11.252246    12A    -11.242369
      13A     -1.342330    14A     -1.307465    15A     -1.198538
      16A     -1.179713    17A     -1.088998    18A     -1.006122
      19A     -0.969914    20A     -0.899507    21A     -0.893939
      22A     -0.801108    23A     -0.784824    24A     -0.726787
      25A     -0.702934    26A     -0.685108    27A     -0.646528
      28A     -0.638945    29A     -0.607804    30A     -0.595576
      31A     -0.589560    32A     -0.579615    33A     -0.567912
      34A     -0.554404    35A     -0.541042    36A     -0.481000
      37A     -0.436753    38A     -0.424384    39A     -0.412704
      40A     -0.395363    41A     -0.377651    42A     -0.299853

  @DF-RHF Final Energy:  -525.55670234013360

   => Energetics <=

    Nuclear Repulsion Energy =            654.0632486829631489
    One-Electron Energy =               -2010.5780659723482131
    Two-Electron Energy =                 830.9581149492514669
    Total Energy =                       -525.5567023401335973
  Basis Set: (AUG-CC-PVTZ AUX)
    Blend: AUG-CC-PVTZ-RI
    Molecular point group: c1

    Geometry (in Angstrom), charge = 0, multiplicity = 1:

       Center              X                  Y                   Z               Mass
    ------------   -----------------  -----------------  -----------------  -----------------
         N           -1.722372306969     0.697468871861     0.090360001349    14.003074004430
         N           -1.443732106969    -1.527710328139    -0.180132598651    14.003074004430
         N            1.102149893031     1.058165671861    -0.288442598651    14.003074004430
         N            1.355909893031    -1.268127328139     0.281666401349    14.003074004430
         C           -0.830343106969    -0.346942328139    -0.021970598651    12.000000000000
         C            0.621087893031    -0.171454328139    -0.003265598651    12.000000000000
         C           -2.986594106969     0.114671671861    -0.002928598651    12.000000000000
         C           -2.776153106969    -1.241115328139    -0.169550598651    12.000000000000
         C            2.438632893031     1.188921671861    -0.285136598651    12.000000000000
         C            2.684495893031    -1.104631328139     0.255557401349    12.000000000000
         C            3.290184893031     0.120502671861    -0.025646598651    12.000000000000
         H           -3.885120106969     0.712163671861     0.067447401349     1.007825032230
         H           -3.520828106969    -2.018263328139    -0.284230598651     1.007825032230
         H            2.823846893031     2.182444671861    -0.509737598651     1.007825032230
         H            3.278154893031    -1.990067328139     0.478326401349     1.007825032230
         H            4.369398893031     0.235076671861    -0.036449598651     1.007825032230
         C           -1.506079106969     2.107607671861     0.299414401349    12.000000000000
         H           -0.809018106969     2.254420671861     1.123628401349     1.007825032230
         H           -1.088388106969     2.564079671861    -0.596794598651     1.007825032230
         H           -2.465875106969     2.564564671861     0.545944401349     1.007825032230

  Basis Set: AUG-CC-PVTZ
    Blend: AUG-CC-PVTZ
  Basis Set: (AUG-CC-PVTZ AUX)
    Blend: AUG-CC-PVTZ-JKFIT
	 Reference Energy          =    -525.5567023401335973 [Eh]
	 Singles Energy            =      -0.0000000000000000 [Eh]
	 Same-Spin Energy          =      -0.5779941383456362 [Eh]
	 Opposite-Spin Energy      =      -1.7386787790564786 [Eh]
	 Correlation Energy        =      -2.3166729174021148 [Eh]
	 Total Energy              =    -527.8733752575357130 [Eh]

	 ================> DF-SCS-MP2 Energies <==================
	-----------------------------------------------------------
	 SCS Same-Spin Scale       =       0.3333333333333333 [-]
	 SCS Opposite-Spin Scale   =       1.2000000000000000 [-]
	 SCS Same-Spin Energy      =      -0.1926647127818787 [Eh]
	 SCS Opposite-Spin Energy  =      -2.0864145348677741 [Eh]
	 SCS Correlation Energy    =      -2.2790792476496526 [Eh]
	 SCS Total Energy          =    -527.8357815877832309 [Eh]
	-----------------------------------------------------------

  Dipole Moment: [D]
     X:     1.3959      Y:     4.0448      Z:     0.4721     Total:     4.3048

*** Psi4 exiting successfully. Buy a developer a beer!
