                               Psi4 1.3.2 release

  ==> Input File <==

--------------------------------------------------------------------------
#psi4
#
memory 32 gb

molecule  {
0 1
  N       -1.7314010     0.6447010     0.0841650
  N       -1.4345640    -1.5648400    -0.1846490
  N        1.1113180     1.0210360    -0.2929590
  N        1.3650780    -1.3052570     0.2771500
  C       -0.8211750    -0.3840720    -0.0264870
  C        0.6302560    -0.2085840    -0.0077820
  C       -2.9774260     0.0775420    -0.0074450
  C       -2.7669850    -1.2782450    -0.1740670
  C        2.4478010     1.1517920    -0.2896530
  C        2.6936640    -1.1417610     0.2510410
  C        3.2993530     0.0833730    -0.0301630
  H       -3.8759520     0.6750340     0.0629310
  H       -3.6492534    -2.1989864    -0.3099364
  H        2.8330150     2.1453150    -0.5142540
  H        3.2873230    -2.0271970     0.4738100
  H        4.3785670     0.1979470    -0.0409660
  C       -1.4969110     2.0704780     0.2948980
  H       -0.7998500     2.2172910     1.1191120
  H       -1.0792200     2.5269500    -0.6013110
  H       -2.4567070     2.5274350     0.5414280
units angstrom
no_reorient  #important for SAPT in psi4, default
symmetry c1  #important for SAPT in psi4, default
}

set PROPERTIES_ORIGIN ["COM"]
properties('MP2/aug-cc-pvtz', properties = ['dipole'])
--------------------------------------------------------------------------

    Molecular point group: c1
  Charge       = 0
  Multiplicity = 1
  Basis Set: AUG-CC-PVTZ
    Blend: AUG-CC-PVTZ
  Basis Set: (AUG-CC-PVTZ AUX)
    Blend: AUG-CC-PVTZ-JKFIT

    Orbital Energies [Eh]
    ---------------------

    Doubly Occupied:

       1A    -15.627169     2A    -15.580677     3A    -15.575537
       4A    -15.548880     5A    -11.334220     6A    -11.306382
       7A    -11.303492     8A    -11.297219     9A    -11.274219
      10A    -11.262362    11A    -11.260959    12A    -11.252383
      13A     -1.346332    14A     -1.308843    15A     -1.198626
      16A     -1.178922    17A     -1.089428    18A     -1.007400
      19A     -0.968405    20A     -0.899667    21A     -0.892494
      22A     -0.791757    23A     -0.785334    24A     -0.723471
      25A     -0.702100    26A     -0.682956    27A     -0.647274
      28A     -0.640500    29A     -0.603800    30A     -0.590630
      31A     -0.587273    32A     -0.580051    33A     -0.569625
      34A     -0.544538    35A     -0.527340    36A     -0.481605
      37A     -0.435428    38A     -0.424779    39A     -0.412865
      40A     -0.397469    41A     -0.379219    42A     -0.299671

  @DF-RHF Final Energy:  -525.53502225981731

   => Energetics <=

    Nuclear Repulsion Energy =            653.1440843514293420
    One-Electron Energy =               -2008.7156083524184851
    Two-Electron Energy =                 830.0365017411717190
    Total Energy =                       -525.5350222598173104
  Basis Set: (AUG-CC-PVTZ AUX)
    Blend: AUG-CC-PVTZ-RI
    Molecular point group: c1

    Geometry (in Angstrom), charge = 0, multiplicity = 1:

       Center              X                  Y                   Z               Mass
    ------------   -----------------  -----------------  -----------------  -----------------
         N           -1.738111000052     0.684102732648     0.088961649963    14.003074004430
         N           -1.441274000052    -1.525438267352    -0.179852350037    14.003074004430
         N            1.104607999948     1.060437732648    -0.288162350037    14.003074004430
         N            1.358367999948    -1.265855267352     0.281946649963    14.003074004430
         C           -0.827885000052    -0.344670267352    -0.021690350037    12.000000000000
         C            0.623545999948    -0.169182267352    -0.002985350037    12.000000000000
         C           -2.984136000052     0.116943732648    -0.002648350037    12.000000000000
         C           -2.773695000052    -1.238843267352    -0.169270350037    12.000000000000
         C            2.441090999948     1.191193732648    -0.284856350037    12.000000000000
         C            2.686953999948    -1.102359267352     0.255837649963    12.000000000000
         C            3.292642999948     0.122774732648    -0.025366350037    12.000000000000
         H           -3.882662000052     0.714435732648     0.067727649963     1.007825032230
         H           -3.655963400052    -2.159584667352    -0.305139750037     1.007825032230
         H            2.826304999948     2.184716732648    -0.509457350037     1.007825032230
         H            3.280612999948    -1.987795267352     0.478606649963     1.007825032230
         H            4.371856999948     0.237348732648    -0.036169350037     1.007825032230
         C           -1.503621000052     2.109879732648     0.299694649963    12.000000000000
         H           -0.806560000052     2.256692732648     1.123908649963     1.007825032230
         H           -1.085930000052     2.566351732648    -0.596514350037     1.007825032230
         H           -2.463417000052     2.566836732648     0.546224649963     1.007825032230

  Basis Set: AUG-CC-PVTZ
    Blend: AUG-CC-PVTZ
  Basis Set: (AUG-CC-PVTZ AUX)
    Blend: AUG-CC-PVTZ-JKFIT
	 Reference Energy          =    -525.5350222598173104 [Eh]
	 Singles Energy            =      -0.0000000000000000 [Eh]
	 Same-Spin Energy          =      -0.5784832547957662 [Eh]
	 Opposite-Spin Energy      =      -1.7404624349903810 [Eh]
	 Correlation Energy        =      -2.3189456897861471 [Eh]
	 Total Energy              =    -527.8539679496034296 [Eh]

	 ================> DF-SCS-MP2 Energies <==================
	-----------------------------------------------------------
	 SCS Same-Spin Scale       =       0.3333333333333333 [-]
	 SCS Opposite-Spin Scale   =       1.2000000000000000 [-]
	 SCS Same-Spin Energy      =      -0.1928277515985887 [Eh]
	 SCS Opposite-Spin Energy  =      -2.0885549219884569 [Eh]
	 SCS Correlation Energy    =      -2.2813826735870455 [Eh]
	 SCS Total Energy          =    -527.8164049334043284 [Eh]
	-----------------------------------------------------------

  Dipole Moment: [D]
     X:     1.4780      Y:     4.1377      Z:     0.4848     Total:     4.4204

*** Psi4 exiting successfully. Buy a developer a beer!
