                               Psi4 1.4a3.dev225

  ==> Input File <==

--------------------------------------------------------------------------
#psi4
#
memory 32 gb

molecule  {
0 1
  N       -1.7314010     0.6447010     0.0841650
  N       -1.4345640    -1.5648400    -0.1846490
  N        1.1113180     1.0210360    -0.2929590
  N        1.3650780    -1.3052570     0.2771500
  C       -0.8211750    -0.3840720    -0.0264870
  C        0.6302560    -0.2085840    -0.0077820
  C       -2.9774260     0.0775420    -0.0074450
  C       -2.7669850    -1.2782450    -0.1740670
  C        2.4478010     1.1517920    -0.2896530
  C        2.6738175    -1.1442033     0.2514310
  C        3.2993530     0.0833730    -0.0301630
  H       -3.8759520     0.6750340     0.0629310
  H       -3.5116600    -2.0553930    -0.2887470
  H        2.8330150     2.1453150    -0.5142540
  H        3.2873230    -2.0271970     0.4738100
  H        4.3785670     0.1979470    -0.0409660
  C       -1.4969110     2.0704780     0.2948980
  H       -0.7998500     2.2172910     1.1191120
  H       -1.0792200     2.5269500    -0.6013110
  H       -2.4567070     2.5274350     0.5414280
units angstrom
no_reorient  #important for SAPT in psi4, default
symmetry c1  #important for SAPT in psi4, default
}

set PROPERTIES_ORIGIN ["COM"]
properties('MP2/aug-cc-pvtz', properties = ['dipole'])
--------------------------------------------------------------------------

    Molecular point group: c1
  Charge       = 0
  Multiplicity = 1
  Basis Set: AUG-CC-PVTZ
    Blend: AUG-CC-PVTZ
  Basis Set: (AUG-CC-PVTZ AUX)
    Blend: AUG-CC-PVTZ-JKFIT

    Orbital Energies [Eh]
    ---------------------

    Doubly Occupied:

       1A    -15.626142     2A    -15.579732     3A    -15.573979
       4A    -15.547038     5A    -11.334269     6A    -11.304561
       7A    -11.302845     8A    -11.295754     9A    -11.273533
      10A    -11.260368    11A    -11.252005    12A    -11.240733
      13A     -1.345447    14A     -1.310638    15A     -1.201524
      16A     -1.178795    17A     -1.087269    18A     -1.007907
      19A     -0.968829    20A     -0.897361    21A     -0.895479
      22A     -0.802683    23A     -0.784483    24A     -0.726896
      25A     -0.703876    26A     -0.685397    27A     -0.646512
      28A     -0.639996    29A     -0.607471    30A     -0.591581
      31A     -0.587322    32A     -0.579789    33A     -0.570082
      34A     -0.556608    35A     -0.543585    36A     -0.482227
      37A     -0.436544    38A     -0.427334    39A     -0.411521
      40A     -0.395410    41A     -0.377786    42A     -0.298587

  @DF-RHF Final Energy:  -525.55821747796233

   => Energetics <=

    Nuclear Repulsion Energy =            654.4267635714434164
    One-Electron Energy =               -2011.2901617680224717
    Two-Electron Energy =                 831.3051807186167252
    Total Energy =                       -525.5582174779623301
  Basis Set: (AUG-CC-PVTZ AUX)
    Blend: AUG-CC-PVTZ-RI
    Molecular point group: c1

    Geometry (in Angstrom), charge = 0, multiplicity = 1:

       Center              X                  Y                   Z               Mass
    ------------   -----------------  -----------------  -----------------  -----------------
         N           -1.737489491436     0.683381761243     0.088799006048    14.003074004430
         N           -1.440652491436    -1.526159238757    -0.180014993952    14.003074004430
         N            1.105229508564     1.059716761243    -0.288324993952    14.003074004430
         N            1.358989508564    -1.266576238757     0.281784006048    14.003074004430
         C           -0.827263491436    -0.345391238757    -0.021852993952    12.000000000000
         C            0.624167508564    -0.169903238757    -0.003147993952    12.000000000000
         C           -2.983514491436     0.116222761243    -0.002810993952    12.000000000000
         C           -2.773073491436    -1.239564238757    -0.169432993952    12.000000000000
         C            2.441712508564     1.190472761243    -0.285018993952    12.000000000000
         C            2.667729008564    -1.105522538757     0.256065006048    12.000000000000
         C            3.293264508564     0.122053761243    -0.025528993952    12.000000000000
         H           -3.882040491436     0.713714761243     0.067565006048     1.007825032230
         H           -3.517748491436    -2.016712238757    -0.284112993952     1.007825032230
         H            2.826926508564     2.183995761243    -0.509619993952     1.007825032230
         H            3.281234508564    -1.988516238757     0.478444006048     1.007825032230
         H            4.372478508564     0.236627761243    -0.036331993952     1.007825032230
         C           -1.502999491436     2.109158761243     0.299532006048    12.000000000000
         H           -0.805938491436     2.255971761243     1.123746006048     1.007825032230
         H           -1.085308491436     2.565630761243    -0.596676993952     1.007825032230
         H           -2.462795491436     2.566115761243     0.546062006048     1.007825032230

  Basis Set: AUG-CC-PVTZ
    Blend: AUG-CC-PVTZ
  Basis Set: (AUG-CC-PVTZ AUX)
    Blend: AUG-CC-PVTZ-JKFIT
	 Reference Energy          =    -525.5582174779623301 [Eh]
	 Singles Energy            =      -0.0000000000000000 [Eh]
	 Same-Spin Energy          =      -0.5777977508445533 [Eh]
	 Opposite-Spin Energy      =      -1.7379118633608233 [Eh]
	 Correlation Energy        =      -2.3157096142053764 [Eh]
	 Total Energy              =    -527.8739270921677189 [Eh]

	 ================> DF-SCS-MP2 Energies <==================
	-----------------------------------------------------------
	 SCS Same-Spin Scale       =       0.3333333333333333 [-]
	 SCS Opposite-Spin Scale   =       1.2000000000000000 [-]
	 SCS Same-Spin Energy      =      -0.1925992502815178 [Eh]
	 SCS Opposite-Spin Energy  =      -2.0854942360329880 [Eh]
	 SCS Correlation Energy    =      -2.2780934863145057 [Eh]
	 SCS Total Energy          =    -527.8363109642768904 [Eh]
	-----------------------------------------------------------

  Dipole Moment: [D]
     X:     1.3519      Y:     4.0992      Z:     0.4817     Total:     4.3432

*** Psi4 exiting successfully. Buy a developer a beer!
