                               Psi4 1.4a3.dev225

  ==> Input File <==

--------------------------------------------------------------------------
#psi4
#
memory 32 gb

molecule  {
0 1
  N       -1.7314010     0.6447010     0.0841650
  N       -1.4345640    -1.5648400    -0.1846490
  N        1.1113180     1.0210360    -0.2929590
  N        1.3650780    -1.3052570     0.2771500
  C       -0.8211750    -0.3840720    -0.0264870
  C        0.6302560    -0.2085840    -0.0077820
  C       -2.9774260     0.0775420    -0.0074450
  C       -2.7669850    -1.2782450    -0.1740670
  C        2.4478010     1.1517920    -0.2896530
  C        2.7432802    -1.1356552     0.2500660
  C        3.2993530     0.0833730    -0.0301630
  H       -3.8759520     0.6750340     0.0629310
  H       -3.5116600    -2.0553930    -0.2887470
  H        2.8330150     2.1453150    -0.5142540
  H        3.2873230    -2.0271970     0.4738100
  H        4.3785670     0.1979470    -0.0409660
  C       -1.4969110     2.0704780     0.2948980
  H       -0.7998500     2.2172910     1.1191120
  H       -1.0792200     2.5269500    -0.6013110
  H       -2.4567070     2.5274350     0.5414280
units angstrom
no_reorient  #important for SAPT in psi4, default
symmetry c1  #important for SAPT in psi4, default
}

set PROPERTIES_ORIGIN ["COM"]
properties('MP2/aug-cc-pvtz', properties = ['dipole'])
--------------------------------------------------------------------------

    Molecular point group: c1
  Charge       = 0
  Multiplicity = 1
  Basis Set: AUG-CC-PVTZ
    Blend: AUG-CC-PVTZ
  Basis Set: (AUG-CC-PVTZ AUX)
    Blend: AUG-CC-PVTZ-JKFIT

    Orbital Energies [Eh]
    ---------------------

    Doubly Occupied:

       1A    -15.625043     2A    -15.580817     3A    -15.576822
       4A    -15.545340     5A    -11.331241     6A    -11.308903
       7A    -11.302858     8A    -11.294647     9A    -11.273079
      10A    -11.258891    11A    -11.251346    12A    -11.239515
      13A     -1.343503    14A     -1.302817    15A     -1.190176
      16A     -1.174585    17A     -1.093296    18A     -1.007771
      19A     -0.967940    20A     -0.904701    21A     -0.889442
      22A     -0.801558    23A     -0.784711    24A     -0.727161
      25A     -0.700352    26A     -0.686628    27A     -0.645716
      28A     -0.638992    29A     -0.608369    30A     -0.595927
      31A     -0.586099    32A     -0.577995    33A     -0.569157
      34A     -0.555689    35A     -0.542532    36A     -0.477447
      37A     -0.435544    38A     -0.417359    39A     -0.413629
      40A     -0.400012    41A     -0.377856    42A     -0.298471

  @DF-RHF Final Energy:  -525.55318864579351

   => Energetics <=

    Nuclear Repulsion Energy =            653.3780987800410003
    One-Electron Energy =               -2009.2546985114533982
    Two-Electron Energy =                 830.3234110856188863
    Total Energy =                       -525.5531886457935116
  Basis Set: (AUG-CC-PVTZ AUX)
    Blend: AUG-CC-PVTZ-RI
    Molecular point group: c1

    Geometry (in Angstrom), charge = 0, multiplicity = 1:

       Center              X                  Y                   Z               Mass
    ------------   -----------------  -----------------  -----------------  -----------------
         N           -1.742696756406     0.682740953706     0.088901333149    14.003074004430
         N           -1.445859756406    -1.526800046294    -0.179912666851    14.003074004430
         N            1.100022243594     1.059075953706    -0.288222666851    14.003074004430
         N            1.353782243594    -1.267217046294     0.281886333149    14.003074004430
         C           -0.832470756406    -0.346032046294    -0.021750666851    12.000000000000
         C            0.618960243594    -0.170544046294    -0.003045666851    12.000000000000
         C           -2.988721756406     0.115581953706    -0.002708666851    12.000000000000
         C           -2.778280756406    -1.240205046294    -0.169330666851    12.000000000000
         C            2.436505243594     1.189831953706    -0.284916666851    12.000000000000
         C            2.731984443594    -1.097615246294     0.254802333149    12.000000000000
         C            3.288057243594     0.121412953706    -0.025426666851    12.000000000000
         H           -3.887247756406     0.713073953706     0.067667333149     1.007825032230
         H           -3.522955756406    -2.017353046294    -0.284010666851     1.007825032230
         H            2.821719243594     2.183354953706    -0.509517666851     1.007825032230
         H            3.276027243594    -1.989157046294     0.478546333149     1.007825032230
         H            4.367271243594     0.235986953706    -0.036229666851     1.007825032230
         C           -1.508206756406     2.108517953706     0.299634333149    12.000000000000
         H           -0.811145756406     2.255330953706     1.123848333149     1.007825032230
         H           -1.090515756406     2.564989953706    -0.596574666851     1.007825032230
         H           -2.468002756406     2.565474953706     0.546164333149     1.007825032230

  Basis Set: AUG-CC-PVTZ
    Blend: AUG-CC-PVTZ
  Basis Set: (AUG-CC-PVTZ AUX)
    Blend: AUG-CC-PVTZ-JKFIT
	 Reference Energy          =    -525.5531886457935116 [Eh]
	 Singles Energy            =      -0.0000000000000000 [Eh]
	 Same-Spin Energy          =      -0.5783536041722910 [Eh]
	 Opposite-Spin Energy      =      -1.7395712440407234 [Eh]
	 Correlation Energy        =      -2.3179248482130141 [Eh]
	 Total Energy              =    -527.8711134940065222 [Eh]

	 ================> DF-SCS-MP2 Energies <==================
	-----------------------------------------------------------
	 SCS Same-Spin Scale       =       0.3333333333333333 [-]
	 SCS Opposite-Spin Scale   =       1.2000000000000000 [-]
	 SCS Same-Spin Energy      =      -0.1927845347240970 [Eh]
	 SCS Opposite-Spin Energy  =      -2.0874854928488680 [Eh]
	 SCS Correlation Energy    =      -2.2802700275729650 [Eh]
	 SCS Total Energy          =    -527.8334586733665219 [Eh]
	-----------------------------------------------------------

  Dipole Moment: [D]
     X:     1.4781      Y:     4.1314      Z:     0.4746     Total:     4.4134

*** Psi4 exiting successfully. Buy a developer a beer!
