                               Psi4 1.3.2 release

  ==> Input File <==

--------------------------------------------------------------------------
#psi4
#
memory 32 gb

molecule  {
0 1
  N       -1.8345376     0.5448781     0.0698301
  N       -1.4345640    -1.5648400    -0.1846490
  N        1.1113180     1.0210360    -0.2929590
  N        1.3650780    -1.3052570     0.2771500
  C       -0.8211750    -0.3840720    -0.0264870
  C        0.6302560    -0.2085840    -0.0077820
  C       -2.9774260     0.0775420    -0.0074450
  C       -2.7669850    -1.2782450    -0.1740670
  C        2.4478010     1.1517920    -0.2896530
  C        2.6936640    -1.1417610     0.2510410
  C        3.2993530     0.0833730    -0.0301630
  H       -3.8759520     0.6750340     0.0629310
  H       -3.5116600    -2.0553930    -0.2887470
  H        2.8330150     2.1453150    -0.5142540
  H        3.2873230    -2.0271970     0.4738100
  H        4.3785670     0.1979470    -0.0409660
  C       -1.4969110     2.0704780     0.2948980
  H       -0.7998500     2.2172910     1.1191120
  H       -1.0792200     2.5269500    -0.6013110
  H       -2.4567070     2.5274350     0.5414280
units angstrom
no_reorient  #important for SAPT in psi4, default
symmetry c1  #important for SAPT in psi4, default
}

set PROPERTIES_ORIGIN ["COM"]
properties('MP2/aug-cc-pvtz', properties = ['dipole'])
--------------------------------------------------------------------------

    Molecular point group: c1
  Charge       = 0
  Multiplicity = 1
  Basis Set: AUG-CC-PVTZ
    Blend: AUG-CC-PVTZ
  Basis Set: (AUG-CC-PVTZ AUX)
    Blend: AUG-CC-PVTZ-JKFIT

    Orbital Energies [Eh]
    ---------------------

    Doubly Occupied:

       1A    -15.629326     2A    -15.576787     3A    -15.572182
       4A    -15.545134     5A    -11.334599     6A    -11.304077
       7A    -11.301435     8A    -11.286411     9A    -11.281885
      10A    -11.252942    11A    -11.248647    12A    -11.228875
      13A     -1.371030    14A     -1.309617    15A     -1.194865
      16A     -1.172914    17A     -1.087703    18A     -1.017711
      19A     -0.961197    20A     -0.897489    21A     -0.893501
      22A     -0.812694    23A     -0.781396    24A     -0.727373
      25A     -0.700370    26A     -0.693569    27A     -0.649735
      28A     -0.647556    29A     -0.604949    30A     -0.594652
      31A     -0.587999    32A     -0.578250    33A     -0.559814
      34A     -0.557048    35A     -0.542200    36A     -0.480513
      37A     -0.432608    38A     -0.422854    39A     -0.410821
      40A     -0.405805    41A     -0.376564    42A     -0.289660

  @DF-RHF Final Energy:  -525.52812801904372

   => Energetics <=

    Nuclear Repulsion Energy =            654.8015486633728415
    One-Electron Energy =               -2012.0098329675793138
    Two-Electron Energy =                 831.6801562851627523
    Total Energy =                       -525.5281280190437201
  Basis Set: (AUG-CC-PVTZ AUX)
    Blend: AUG-CC-PVTZ-RI
    Molecular point group: c1

    Geometry (in Angstrom), charge = 0, multiplicity = 1:

       Center              X                  Y                   Z               Mass
    ------------   -----------------  -----------------  -----------------  -----------------
         N           -1.833091671796     0.592108108425     0.075747334526    14.003074004430
         N           -1.433118071796    -1.517609991575    -0.178731765474    14.003074004430
         N            1.112763928204     1.068266008425    -0.287041765474    14.003074004430
         N            1.366523928204    -1.258026991575     0.283067234526    14.003074004430
         C           -0.819729071796    -0.336841991575    -0.020569765474    12.000000000000
         C            0.631701928204    -0.161353991575    -0.001864765474    12.000000000000
         C           -2.975980071796     0.124772008425    -0.001527765474    12.000000000000
         C           -2.765539071796    -1.231014991575    -0.168149765474    12.000000000000
         C            2.449246928204     1.199022008425    -0.283735765474    12.000000000000
         C            2.695109928204    -1.094530991575     0.256958234526    12.000000000000
         C            3.300798928204     0.130603008425    -0.024245765474    12.000000000000
         H           -3.874506071796     0.722264008425     0.068848234526     1.007825032230
         H           -3.510214071796    -2.008162991575    -0.282829765474     1.007825032230
         H            2.834460928204     2.192545008425    -0.508336765474     1.007825032230
         H            3.288768928204    -1.979966991575     0.479727234526     1.007825032230
         H            4.380012928204     0.245177008425    -0.035048765474     1.007825032230
         C           -1.495465071796     2.117708008425     0.300815234526    12.000000000000
         H           -0.798404071796     2.264521008425     1.125029234526     1.007825032230
         H           -1.077774071796     2.574180008425    -0.595393765474     1.007825032230
         H           -2.455261071796     2.574665008425     0.547345234526     1.007825032230

  Basis Set: AUG-CC-PVTZ
    Blend: AUG-CC-PVTZ
  Basis Set: (AUG-CC-PVTZ AUX)
    Blend: AUG-CC-PVTZ-JKFIT
	 Reference Energy          =    -525.5281280190437201 [Eh]
	 Singles Energy            =      -0.0000000000000000 [Eh]
	 Same-Spin Energy          =      -0.5785991479753759 [Eh]
	 Opposite-Spin Energy      =      -1.7379719731477152 [Eh]
	 Correlation Energy        =      -2.3165711211230913 [Eh]
	 Total Energy              =    -527.8446991401667674 [Eh]

	 ================> DF-SCS-MP2 Energies <==================
	-----------------------------------------------------------
	 SCS Same-Spin Scale       =       0.3333333333333333 [-]
	 SCS Opposite-Spin Scale   =       1.2000000000000000 [-]
	 SCS Same-Spin Energy      =      -0.1928663826584586 [Eh]
	 SCS Opposite-Spin Energy  =      -2.0855663677772580 [Eh]
	 SCS Correlation Energy    =      -2.2784327504357167 [Eh]
	 SCS Total Energy          =    -527.8065607694794608 [Eh]
	-----------------------------------------------------------

  Dipole Moment: [D]
     X:     1.2978      Y:     4.4977      Z:     0.5276     Total:     4.7109

*** Psi4 exiting successfully. Buy a developer a beer!
