                               Psi4 1.3.2 release

  ==> Input File <==

--------------------------------------------------------------------------
#psi4
#
memory 32 gb

molecule  {
0 1
  N       -1.7982560     0.7707619     0.1004636
  N       -1.4345640    -1.5648400    -0.1846490
  N        1.1113180     1.0210360    -0.2929590
  N        1.3650780    -1.3052570     0.2771500
  C       -0.8211750    -0.3840720    -0.0264870
  C        0.6302560    -0.2085840    -0.0077820
  C       -2.9774260     0.0775420    -0.0074450
  C       -2.7669850    -1.2782450    -0.1740670
  C        2.4478010     1.1517920    -0.2896530
  C        2.6936640    -1.1417610     0.2510410
  C        3.2993530     0.0833730    -0.0301630
  H       -3.8759520     0.6750340     0.0629310
  H       -3.5116600    -2.0553930    -0.2887470
  H        2.8330150     2.1453150    -0.5142540
  H        3.2873230    -2.0271970     0.4738100
  H        4.3785670     0.1979470    -0.0409660
  C       -1.4969110     2.0704780     0.2948980
  H       -0.7998500     2.2172910     1.1191120
  H       -1.0792200     2.5269500    -0.6013110
  H       -2.4567070     2.5274350     0.5414280
units angstrom
no_reorient  #important for SAPT in psi4, default
symmetry c1  #important for SAPT in psi4, default
}

set PROPERTIES_ORIGIN ["COM"]
properties('MP2/aug-cc-pvtz', properties = ['dipole'])
--------------------------------------------------------------------------

    Molecular point group: c1
  Charge       = 0
  Multiplicity = 1
  Basis Set: AUG-CC-PVTZ
    Blend: AUG-CC-PVTZ
  Basis Set: (AUG-CC-PVTZ AUX)
    Blend: AUG-CC-PVTZ-JKFIT

    Orbital Energies [Eh]
    ---------------------

    Doubly Occupied:

       1A    -15.623842     2A    -15.578892     3A    -15.574428
       4A    -15.564961     5A    -11.333609     6A    -11.306755
       7A    -11.305116     8A    -11.302678     9A    -11.272559
      10A    -11.261301    11A    -11.250968    12A    -11.243388
      13A     -1.332469    14A     -1.305966    15A     -1.208893
      16A     -1.192277    17A     -1.087714    18A     -1.014206
      19A     -0.964310    20A     -0.898914    21A     -0.887687
      22A     -0.795354    23A     -0.788108    24A     -0.729397
      25A     -0.702531    26A     -0.685505    27A     -0.650237
      28A     -0.642717    29A     -0.611601    30A     -0.608099
      31A     -0.591530    32A     -0.579692    33A     -0.564081
      34A     -0.540421    35A     -0.532967    36A     -0.477531
      37A     -0.443670    38A     -0.423889    39A     -0.412988
      40A     -0.401882    41A     -0.377043    42A     -0.293065

  @DF-RHF Final Energy:  -525.52658732980888

   => Energetics <=

    Nuclear Repulsion Energy =            652.1330702213259656
    One-Electron Energy =               -2006.5928296576321372
    Two-Electron Energy =                 828.9331721064974090
    Total Energy =                       -525.5265873298088763
  Basis Set: (AUG-CC-PVTZ AUX)
    Blend: AUG-CC-PVTZ-RI
    Molecular point group: c1

    Geometry (in Angstrom), charge = 0, multiplicity = 1:

       Center              X                  Y                   Z               Mass
    ------------   -----------------  -----------------  -----------------  -----------------
         N           -1.799983923172     0.798231985781     0.103701069132    14.003074004430
         N           -1.436291923172    -1.537369914219    -0.181411530868    14.003074004430
         N            1.109590076828     1.048506085781    -0.289721530868    14.003074004430
         N            1.363350076828    -1.277786914219     0.280387469132    14.003074004430
         C           -0.822902923172    -0.356601914219    -0.023249530868    12.000000000000
         C            0.628528076828    -0.181113914219    -0.004544530868    12.000000000000
         C           -2.979153923172     0.105012085781    -0.004207530868    12.000000000000
         C           -2.768712923172    -1.250774914219    -0.170829530868    12.000000000000
         C            2.446073076828     1.179262085781    -0.286415530868    12.000000000000
         C            2.691936076828    -1.114290914219     0.254278469132    12.000000000000
         C            3.297625076828     0.110843085781    -0.026925530868    12.000000000000
         H           -3.877679923172     0.702504085781     0.066168469132     1.007825032230
         H           -3.513387923172    -2.027922914219    -0.285509530868     1.007825032230
         H            2.831287076828     2.172785085781    -0.511016530868     1.007825032230
         H            3.285595076828    -1.999726914219     0.477047469132     1.007825032230
         H            4.376839076828     0.225417085781    -0.037728530868     1.007825032230
         C           -1.498638923172     2.097948085781     0.298135469132    12.000000000000
         H           -0.801577923172     2.244761085781     1.122349469132     1.007825032230
         H           -1.080947923172     2.554420085781    -0.598073530868     1.007825032230
         H           -2.458434923172     2.554905085781     0.544665469132     1.007825032230

  Basis Set: AUG-CC-PVTZ
    Blend: AUG-CC-PVTZ
  Basis Set: (AUG-CC-PVTZ AUX)
    Blend: AUG-CC-PVTZ-JKFIT
	 Reference Energy          =    -525.5265873298088763 [Eh]
	 Singles Energy            =      -0.0000000000000000 [Eh]
	 Same-Spin Energy          =      -0.5800225024530113 [Eh]
	 Opposite-Spin Energy      =      -1.7425493187208292 [Eh]
	 Correlation Energy        =      -2.3225718211738404 [Eh]
	 Total Energy              =    -527.8491591509827003 [Eh]

	 ================> DF-SCS-MP2 Energies <==================
	-----------------------------------------------------------
	 SCS Same-Spin Scale       =       0.3333333333333333 [-]
	 SCS Opposite-Spin Scale   =       1.2000000000000000 [-]
	 SCS Same-Spin Energy      =      -0.1933408341510038 [Eh]
	 SCS Opposite-Spin Energy  =      -2.0910591824649951 [Eh]
	 SCS Correlation Energy    =      -2.2844000166159990 [Eh]
	 SCS Total Energy          =    -527.8109873464248949 [Eh]
	-----------------------------------------------------------

  Dipole Moment: [D]
     X:     1.3765      Y:     3.7213      Z:     0.4263     Total:     3.9905

*** Psi4 exiting successfully. Buy a developer a beer!
