                               Psi4 1.3.2 release

  ==> Input File <==

--------------------------------------------------------------------------
#psi4
#
memory 32 gb

molecule  {
0 1
  N       -1.7314010     0.6447010     0.0841650
  N       -1.4345640    -1.5648400    -0.1846490
  N        1.1113180     1.0210360    -0.2929590
  N        1.3650780    -1.3052570     0.2771500
  C       -0.8211750    -0.3840720    -0.0264870
  C        0.5309871    -0.2205863    -0.0090613
  C       -2.9774260     0.0775420    -0.0074450
  C       -2.7669850    -1.2782450    -0.1740670
  C        2.4478010     1.1517920    -0.2896530
  C        2.6936640    -1.1417610     0.2510410
  C        3.2993530     0.0833730    -0.0301630
  H       -3.8759520     0.6750340     0.0629310
  H       -3.5116600    -2.0553930    -0.2887470
  H        2.8330150     2.1453150    -0.5142540
  H        3.2873230    -2.0271970     0.4738100
  H        4.3785670     0.1979470    -0.0409660
  C       -1.4969110     2.0704780     0.2948980
  H       -0.7998500     2.2172910     1.1191120
  H       -1.0792200     2.5269500    -0.6013110
  H       -2.4567070     2.5274350     0.5414280
units angstrom
no_reorient  #important for SAPT in psi4, default
symmetry c1  #important for SAPT in psi4, default
}

set PROPERTIES_ORIGIN ["COM"]
properties('MP2/aug-cc-pvtz', properties = ['dipole'])
--------------------------------------------------------------------------

    Molecular point group: c1
  Charge       = 0
  Multiplicity = 1
  Basis Set: AUG-CC-PVTZ
    Blend: AUG-CC-PVTZ
  Basis Set: (AUG-CC-PVTZ AUX)
    Blend: AUG-CC-PVTZ-JKFIT

    Orbital Energies [Eh]
    ---------------------

    Doubly Occupied:

       1A    -15.633566     2A    -15.576702     3A    -15.571511
       4A    -15.556207     5A    -11.334194     6A    -11.299454
       7A    -11.296298     8A    -11.293703     9A    -11.276540
      10A    -11.270038    11A    -11.247993    12A    -11.246003
      13A     -1.352459    14A     -1.287052    15A     -1.191464
      16A     -1.171757    17A     -1.093420    18A     -1.015587
      19A     -0.976350    20A     -0.900307    21A     -0.885327
      22A     -0.809625    23A     -0.791131    24A     -0.732023
      25A     -0.690740    26A     -0.685410    27A     -0.651813
      28A     -0.644093    29A     -0.607194    30A     -0.595616
      31A     -0.586235    32A     -0.579808    33A     -0.569109
      34A     -0.563225    35A     -0.543321    36A     -0.477493
      37A     -0.442335    38A     -0.414514    39A     -0.400303
      40A     -0.394054    41A     -0.381287    42A     -0.296695

  @DF-RHF Final Energy:  -525.53674786204772

   => Energetics <=

    Nuclear Repulsion Energy =            654.1519103010861045
    One-Electron Energy =               -2010.7134042992788636
    Two-Electron Energy =                 831.0247461361451542
    Total Energy =                       -525.5367478620477186
  Basis Set: (AUG-CC-PVTZ AUX)
    Blend: AUG-CC-PVTZ-RI
    Molecular point group: c1

    Geometry (in Angstrom), charge = 0, multiplicity = 1:

       Center              X                  Y                   Z               Mass
    ------------   -----------------  -----------------  -----------------  -----------------
         N           -1.731535598463     0.684098425771     0.088924144970    14.003074004430
         N           -1.434698598463    -1.525442574229    -0.179889855030    14.003074004430
         N            1.111183401537     1.060433425771    -0.288199855030    14.003074004430
         N            1.364943401537    -1.265859574229     0.281909144970    14.003074004430
         C           -0.821309598463    -0.344674574229    -0.021727855030    12.000000000000
         C            0.530852501537    -0.181188874229    -0.004302155030    12.000000000000
         C           -2.977560598463     0.116939425771    -0.002685855030    12.000000000000
         C           -2.767119598463    -1.238847574229    -0.169307855030    12.000000000000
         C            2.447666401537     1.191189425771    -0.284893855030    12.000000000000
         C            2.693529401537    -1.102363574229     0.255800144970    12.000000000000
         C            3.299218401537     0.122770425771    -0.025403855030    12.000000000000
         H           -3.876086598463     0.714431425771     0.067690144970     1.007825032230
         H           -3.511794598463    -2.015995574229    -0.283987855030     1.007825032230
         H            2.832880401537     2.184712425771    -0.509494855030     1.007825032230
         H            3.287188401537    -1.987799574229     0.478569144970     1.007825032230
         H            4.378432401537     0.237344425771    -0.036206855030     1.007825032230
         C           -1.497045598463     2.109875425771     0.299657144970    12.000000000000
         H           -0.799984598463     2.256688425771     1.123871144970     1.007825032230
         H           -1.079354598463     2.566347425771    -0.596551855030     1.007825032230
         H           -2.456841598463     2.566832425771     0.546187144970     1.007825032230

  Basis Set: AUG-CC-PVTZ
    Blend: AUG-CC-PVTZ
  Basis Set: (AUG-CC-PVTZ AUX)
    Blend: AUG-CC-PVTZ-JKFIT
	 Reference Energy          =    -525.5367478620477186 [Eh]
	 Singles Energy            =      -0.0000000000000000 [Eh]
	 Same-Spin Energy          =      -0.5809490056747282 [Eh]
	 Opposite-Spin Energy      =      -1.7431448781880339 [Eh]
	 Correlation Energy        =      -2.3240938838627621 [Eh]
	 Total Energy              =    -527.8608417459105340 [Eh]

	 ================> DF-SCS-MP2 Energies <==================
	-----------------------------------------------------------
	 SCS Same-Spin Scale       =       0.3333333333333333 [-]
	 SCS Opposite-Spin Scale   =       1.2000000000000000 [-]
	 SCS Same-Spin Energy      =      -0.1936496685582427 [Eh]
	 SCS Opposite-Spin Energy  =      -2.0917738538256407 [Eh]
	 SCS Correlation Energy    =      -2.2854235223838835 [Eh]
	 SCS Total Energy          =    -527.8221713844316128 [Eh]
	-----------------------------------------------------------

  Dipole Moment: [D]
     X:     0.5687      Y:     4.0668      Z:     0.4714     Total:     4.1333

*** Psi4 exiting successfully. Buy a developer a beer!
