                               Psi4 1.4a3.dev225

  ==> Input File <==

--------------------------------------------------------------------------
#psi4
#
memory 32 gb

molecule  {
0 1
  N       -1.7314010     0.6447010     0.0841650
  N       -1.4345640    -1.5648400    -0.1846490
  N        1.1113180     1.0210360    -0.2929590
  N        1.3650780    -1.3052570     0.2771500
  C       -0.8211750    -0.3840720    -0.0264870
  C        0.6231335    -0.2267895    -0.0035597
  C       -2.9774260     0.0775420    -0.0074450
  C       -2.7669850    -1.2782450    -0.1740670
  C        2.4478010     1.1517920    -0.2896530
  C        2.6936640    -1.1417610     0.2510410
  C        3.2993530     0.0833730    -0.0301630
  H       -3.8759520     0.6750340     0.0629310
  H       -3.5116600    -2.0553930    -0.2887470
  H        2.8330150     2.1453150    -0.5142540
  H        3.2873230    -2.0271970     0.4738100
  H        4.3785670     0.1979470    -0.0409660
  C       -1.4969110     2.0704780     0.2948980
  H       -0.7998500     2.2172910     1.1191120
  H       -1.0792200     2.5269500    -0.6013110
  H       -2.4567070     2.5274350     0.5414280
units angstrom
no_reorient  #important for SAPT in psi4, default
symmetry c1  #important for SAPT in psi4, default
}

set PROPERTIES_ORIGIN ["COM"]
properties('MP2/aug-cc-pvtz', properties = ['dipole'])
--------------------------------------------------------------------------

    Molecular point group: c1
  Charge       = 0
  Multiplicity = 1
  Basis Set: AUG-CC-PVTZ
    Blend: AUG-CC-PVTZ
  Basis Set: (AUG-CC-PVTZ AUX)
    Blend: AUG-CC-PVTZ-JKFIT

    Orbital Energies [Eh]
    ---------------------

    Doubly Occupied:

       1A    -15.626719     2A    -15.580165     3A    -15.573844
       4A    -15.547130     5A    -11.333381     6A    -11.305049
       7A    -11.302926     8A    -11.295312     9A    -11.273469
      10A    -11.260813    11A    -11.251263    12A    -11.240877
      13A     -1.345245    14A     -1.306340    15A     -1.196417
      16A     -1.178173    17A     -1.088976    18A     -1.008679
      19A     -0.969029    20A     -0.898560    21A     -0.893949
      22A     -0.802819    23A     -0.785261    24A     -0.727305
      25A     -0.701491    26A     -0.686069    27A     -0.646543
      28A     -0.640086    29A     -0.607734    30A     -0.592782
      31A     -0.586975    32A     -0.579265    33A     -0.569724
      34A     -0.556556    35A     -0.543302    36A     -0.481241
      37A     -0.436326    38A     -0.423596    39A     -0.411060
      40A     -0.396664    41A     -0.378072    42A     -0.298577

  @DF-RHF Final Energy:  -525.55699442932473

   => Energetics <=

    Nuclear Repulsion Energy =            654.0807333116541713
    One-Electron Energy =               -2010.6199287273029768
    Two-Electron Energy =                 830.9822009863241874
    Total Energy =                       -525.5569944293247318
  Basis Set: (AUG-CC-PVTZ AUX)
    Blend: AUG-CC-PVTZ-RI
    Molecular point group: c1

    Geometry (in Angstrom), charge = 0, multiplicity = 1:

       Center              X                  Y                   Z               Mass
    ------------   -----------------  -----------------  -----------------  -----------------
         N           -1.738443344935     0.684563448093     0.088511718028    14.003074004430
         N           -1.441606344935    -1.524977551907    -0.180302281972    14.003074004430
         N            1.104275655065     1.060898448093    -0.288612281972    14.003074004430
         N            1.358035655065    -1.265394551907     0.281496718028    14.003074004430
         C           -0.828217344935    -0.344209551907    -0.022140281972    12.000000000000
         C            0.616091155065    -0.186927051907     0.000787018028    12.000000000000
         C           -2.984468344935     0.117404448093    -0.003098281972    12.000000000000
         C           -2.774027344935    -1.238382551907    -0.169720281972    12.000000000000
         C            2.440758655065     1.191654448093    -0.285306281972    12.000000000000
         C            2.686621655065    -1.101898551907     0.255387718028    12.000000000000
         C            3.292310655065     0.123235448093    -0.025816281972    12.000000000000
         H           -3.882994344935     0.714896448093     0.067277718028     1.007825032230
         H           -3.518702344935    -2.015530551907    -0.284400281972     1.007825032230
         H            2.825972655065     2.185177448093    -0.509907281972     1.007825032230
         H            3.280280655065    -1.987334551907     0.478156718028     1.007825032230
         H            4.371524655065     0.237809448093    -0.036619281972     1.007825032230
         C           -1.503953344935     2.110340448093     0.299244718028    12.000000000000
         H           -0.806892344935     2.257153448093     1.123458718028     1.007825032230
         H           -1.086262344935     2.566812448093    -0.596964281972     1.007825032230
         H           -2.463749344935     2.567297448093     0.545774718028     1.007825032230

  Basis Set: AUG-CC-PVTZ
    Blend: AUG-CC-PVTZ
  Basis Set: (AUG-CC-PVTZ AUX)
    Blend: AUG-CC-PVTZ-JKFIT
	 Reference Energy          =    -525.5569944293247318 [Eh]
	 Singles Energy            =      -0.0000000000000000 [Eh]
	 Same-Spin Energy          =      -0.5781709624301543 [Eh]
	 Opposite-Spin Energy      =      -1.7386374188127691 [Eh]
	 Correlation Energy        =      -2.3168083812429234 [Eh]
	 Total Energy              =    -527.8738028105676676 [Eh]

	 ================> DF-SCS-MP2 Energies <==================
	-----------------------------------------------------------
	 SCS Same-Spin Scale       =       0.3333333333333333 [-]
	 SCS Opposite-Spin Scale   =       1.2000000000000000 [-]
	 SCS Same-Spin Energy      =      -0.1927236541433848 [Eh]
	 SCS Opposite-Spin Energy  =      -2.0863649025753230 [Eh]
	 SCS Correlation Energy    =      -2.2790885567187078 [Eh]
	 SCS Total Energy          =    -527.8360829860434933 [Eh]
	-----------------------------------------------------------

  Dipole Moment: [D]
     X:     1.3254      Y:     4.0900      Z:     0.4853     Total:     4.3267

*** Psi4 exiting successfully. Buy a developer a beer!
