                               Psi4 1.4a3.dev225

  ==> Input File <==

--------------------------------------------------------------------------
#psi4
#
memory 32 gb

molecule  {
0 1
  N       -1.7314010     0.6447010     0.0841650
  N       -1.4345640    -1.5648400    -0.1846490
  N        1.1113180     1.0210360    -0.2929590
  N        1.3650780    -1.3052570     0.2771500
  C       -0.8211750    -0.3840720    -0.0264870
  C        0.6574616    -0.2491866     0.0027672
  C       -2.9774260     0.0775420    -0.0074450
  C       -2.7669850    -1.2782450    -0.1740670
  C        2.4478010     1.1517920    -0.2896530
  C        2.6936640    -1.1417610     0.2510410
  C        3.2993530     0.0833730    -0.0301630
  H       -3.8759520     0.6750340     0.0629310
  H       -3.5116600    -2.0553930    -0.2887470
  H        2.8330150     2.1453150    -0.5142540
  H        3.2873230    -2.0271970     0.4738100
  H        4.3785670     0.1979470    -0.0409660
  C       -1.4969110     2.0704780     0.2948980
  H       -0.7998500     2.2172910     1.1191120
  H       -1.0792200     2.5269500    -0.6013110
  H       -2.4567070     2.5274350     0.5414280
units angstrom
no_reorient  #important for SAPT in psi4, default
symmetry c1  #important for SAPT in psi4, default
}

set PROPERTIES_ORIGIN ["COM"]
properties('MP2/aug-cc-pvtz', properties = ['dipole'])
--------------------------------------------------------------------------

    Molecular point group: c1
  Charge       = 0
  Multiplicity = 1
  Basis Set: AUG-CC-PVTZ
    Blend: AUG-CC-PVTZ
  Basis Set: (AUG-CC-PVTZ AUX)
    Blend: AUG-CC-PVTZ-JKFIT

    Orbital Energies [Eh]
    ---------------------

    Doubly Occupied:

       1A    -15.624669     2A    -15.581846     3A    -15.573439
       4A    -15.543881     5A    -11.332692     6A    -11.306642
       7A    -11.305807     8A    -11.295020     9A    -11.272211
      10A    -11.257966    11A    -11.252864    12A    -11.238471
      13A     -1.343590    14A     -1.313539    15A     -1.201998
      16A     -1.176852    17A     -1.088390    18A     -1.005797
      19A     -0.966282    20A     -0.904378    21A     -0.891090
      22A     -0.800330    23A     -0.782807    24A     -0.726119
      25A     -0.705427    26A     -0.685176    27A     -0.644699
      28A     -0.639336    29A     -0.608395    30A     -0.592928
      31A     -0.586947    32A     -0.580941    33A     -0.568106
      34A     -0.553345    35A     -0.542165    36A     -0.481005
      37A     -0.434524    38A     -0.427788    39A     -0.415813
      40A     -0.395810    41A     -0.376819    42A     -0.298443

  @DF-RHF Final Energy:  -525.55640938675845

   => Energetics <=

    Nuclear Repulsion Energy =            654.0661490642902436
    One-Electron Energy =               -2010.5964244316451186
    Two-Electron Energy =                 830.9738659805965426
    Total Energy =                       -525.5564093867584461
  Basis Set: (AUG-CC-PVTZ AUX)
    Blend: AUG-CC-PVTZ-RI
    Molecular point group: c1

    Geometry (in Angstrom), charge = 0, multiplicity = 1:

       Center              X                  Y                   Z               Mass
    ------------   -----------------  -----------------  -----------------  -----------------
         N           -1.741016747821     0.686242444652     0.088037422547    14.003074004430
         N           -1.444179747821    -1.523298555348    -0.180776577453    14.003074004430
         N            1.101702252179     1.062577444652    -0.289086577453    14.003074004430
         N            1.355462252179    -1.263715555348     0.281022422547    14.003074004430
         C           -0.830790747821    -0.342530555348    -0.022614577453    12.000000000000
         C            0.647845852179    -0.207645155348     0.006639622547    12.000000000000
         C           -2.987041747821     0.119083444652    -0.003572577453    12.000000000000
         C           -2.776600747821    -1.236703555348    -0.170194577453    12.000000000000
         C            2.438185252179     1.193333444652    -0.285780577453    12.000000000000
         C            2.684048252179    -1.100219555348     0.254913422547    12.000000000000
         C            3.289737252179     0.124914444652    -0.026290577453    12.000000000000
         H           -3.885567747821     0.716575444652     0.066803422547     1.007825032230
         H           -3.521275747821    -2.013851555348    -0.284874577453     1.007825032230
         H            2.823399252179     2.186856444652    -0.510381577453     1.007825032230
         H            3.277707252179    -1.985655555348     0.477682422547     1.007825032230
         H            4.368951252179     0.239488444652    -0.037093577453     1.007825032230
         C           -1.506526747821     2.112019444652     0.298770422547    12.000000000000
         H           -0.809465747821     2.258832444652     1.122984422547     1.007825032230
         H           -1.088835747821     2.568491444652    -0.597438577453     1.007825032230
         H           -2.466322747821     2.568976444652     0.545300422547     1.007825032230

  Basis Set: AUG-CC-PVTZ
    Blend: AUG-CC-PVTZ
  Basis Set: (AUG-CC-PVTZ AUX)
    Blend: AUG-CC-PVTZ-JKFIT
	 Reference Energy          =    -525.5564093867584461 [Eh]
	 Singles Energy            =      -0.0000000000000000 [Eh]
	 Same-Spin Energy          =      -0.5773973223187688 [Eh]
	 Opposite-Spin Energy      =      -1.7375852412402069 [Eh]
	 Correlation Energy        =      -2.3149825635589756 [Eh]
	 Total Energy              =    -527.8713919503173884 [Eh]

	 ================> DF-SCS-MP2 Energies <==================
	-----------------------------------------------------------
	 SCS Same-Spin Scale       =       0.3333333333333333 [-]
	 SCS Opposite-Spin Scale   =       1.2000000000000000 [-]
	 SCS Same-Spin Energy      =      -0.1924657741062563 [Eh]
	 SCS Opposite-Spin Energy  =      -2.0851022894882481 [Eh]
	 SCS Correlation Energy    =      -2.2775680635945044 [Eh]
	 SCS Total Energy          =    -527.8339774503529043 [Eh]
	-----------------------------------------------------------

  Dipole Moment: [D]
     X:     1.5885      Y:     4.0791      Z:     0.4974     Total:     4.4056

*** Psi4 exiting successfully. Buy a developer a beer!
