                               Psi4 1.3.2 release

  ==> Input File <==

--------------------------------------------------------------------------
#psi4
#
memory 32 gb

molecule  {
0 1
  N       -1.7314010     0.6447010     0.0841650
  N       -1.4345640    -1.5648400    -0.1846490
  N        1.1113180     1.0210360    -0.2929590
  N        1.3650780    -1.3052570     0.2771500
  C       -0.8211750    -0.3840720    -0.0264870
  C        0.6083080    -0.2003660    -0.0103463
  C       -2.9774260     0.0775420    -0.0074450
  C       -2.7669850    -1.2782450    -0.1740670
  C        2.4478010     1.1517920    -0.2896530
  C        2.6936640    -1.1417610     0.2510410
  C        3.2993530     0.0833730    -0.0301630
  H       -3.8759520     0.6750340     0.0629310
  H       -3.5116600    -2.0553930    -0.2887470
  H        2.8330150     2.1453150    -0.5142540
  H        3.2873230    -2.0271970     0.4738100
  H        4.3785670     0.1979470    -0.0409660
  C       -1.4969110     2.0704780     0.2948980
  H       -0.7998500     2.2172910     1.1191120
  H       -1.0792200     2.5269500    -0.6013110
  H       -2.4567070     2.5274350     0.5414280
units angstrom
no_reorient  #important for SAPT in psi4, default
symmetry c1  #important for SAPT in psi4, default
}

set PROPERTIES_ORIGIN ["COM"]
properties('MP2/aug-cc-pvtz', properties = ['dipole'])
--------------------------------------------------------------------------

    Molecular point group: c1
  Charge       = 0
  Multiplicity = 1
  Basis Set: AUG-CC-PVTZ
    Blend: AUG-CC-PVTZ
  Basis Set: (AUG-CC-PVTZ AUX)
    Blend: AUG-CC-PVTZ-JKFIT

    Orbital Energies [Eh]
    ---------------------

    Doubly Occupied:

       1A    -15.627226     2A    -15.579066     3A    -15.574653
       4A    -15.548590     5A    -11.333584     6A    -11.304649
       7A    -11.301242     8A    -11.295428     9A    -11.274146
      10A    -11.261828    11A    -11.250793    12A    -11.241922
      13A     -1.346175    14A     -1.303993    15A     -1.194503
      16A     -1.178304    17A     -1.089393    18A     -1.009749
      19A     -0.970293    20A     -0.897438    21A     -0.893890
      22A     -0.804000    23A     -0.786002    24A     -0.727813
      25A     -0.700606    26A     -0.685701    27A     -0.647445
      28A     -0.640366    29A     -0.607025    30A     -0.593189
      31A     -0.587047    32A     -0.578464    33A     -0.570744
      34A     -0.558158    35A     -0.543806    36A     -0.481021
      37A     -0.437282    38A     -0.422219    39A     -0.408820
      40A     -0.396793    41A     -0.378595    42A     -0.298549

  @DF-RHF Final Energy:  -525.55587822621646

   => Energetics <=

    Nuclear Repulsion Energy =            654.1318535022227252
    One-Electron Energy =               -2010.7144444351499715
    Two-Electron Energy =                 831.0267127067108959
    Total Energy =                       -525.5558782262164641
  Basis Set: (AUG-CC-PVTZ AUX)
    Blend: AUG-CC-PVTZ-RI
    Molecular point group: c1

    Geometry (in Angstrom), charge = 0, multiplicity = 1:

       Center              X                  Y                   Z               Mass
    ------------   -----------------  -----------------  -----------------  -----------------
         N           -1.737331952680     0.682582612825     0.089020474878    14.003074004430
         N           -1.440494952680    -1.526958387175    -0.179793525122    14.003074004430
         N            1.105387047320     1.058917612825    -0.288103525122    14.003074004430
         N            1.359147047320    -1.267375387175     0.282005474878    14.003074004430
         C           -0.827105952680    -0.346190387175    -0.021631525122    12.000000000000
         C            0.602377047320    -0.162484387175    -0.005490825122    12.000000000000
         C           -2.983356952680     0.115423612825    -0.002589525122    12.000000000000
         C           -2.772915952680    -1.240363387175    -0.169211525122    12.000000000000
         C            2.441870047320     1.189673612825    -0.284797525122    12.000000000000
         C            2.687733047320    -1.103879387175     0.255896474878    12.000000000000
         C            3.293422047320     0.121254612825    -0.025307525122    12.000000000000
         H           -3.881882952680     0.712915612825     0.067786474878     1.007825032230
         H           -3.517590952680    -2.017511387175    -0.283891525122     1.007825032230
         H            2.827084047320     2.183196612825    -0.509398525122     1.007825032230
         H            3.281392047320    -1.989315387175     0.478665474878     1.007825032230
         H            4.372636047320     0.235828612825    -0.036110525122     1.007825032230
         C           -1.502841952680     2.108359612825     0.299753474878    12.000000000000
         H           -0.805780952680     2.255172612825     1.123967474878     1.007825032230
         H           -1.085150952680     2.564831612825    -0.596455525122     1.007825032230
         H           -2.462637952680     2.565316612825     0.546283474878     1.007825032230

  Basis Set: AUG-CC-PVTZ
    Blend: AUG-CC-PVTZ
  Basis Set: (AUG-CC-PVTZ AUX)
    Blend: AUG-CC-PVTZ-JKFIT
	 Reference Energy          =    -525.5558782262164641 [Eh]
	 Singles Energy            =      -0.0000000000000000 [Eh]
	 Same-Spin Energy          =      -0.5784889157850657 [Eh]
	 Opposite-Spin Energy      =      -1.7391690062100562 [Eh]
	 Correlation Energy        =      -2.3176579219951217 [Eh]
	 Total Energy              =    -527.8735361482115422 [Eh]

	 ================> DF-SCS-MP2 Energies <==================
	-----------------------------------------------------------
	 SCS Same-Spin Scale       =       0.3333333333333333 [-]
	 SCS Opposite-Spin Scale   =       1.2000000000000000 [-]
	 SCS Same-Spin Energy      =      -0.1928296385950219 [Eh]
	 SCS Opposite-Spin Energy  =      -2.0870028074520675 [Eh]
	 SCS Correlation Energy    =      -2.2798324460470893 [Eh]
	 SCS Total Energy          =    -527.8357106722635308 [Eh]
	-----------------------------------------------------------

  Dipole Moment: [D]
     X:     1.2186      Y:     4.1090      Z:     0.4744     Total:     4.3121

*** Psi4 exiting successfully. Buy a developer a beer!
