                               Psi4 1.3.2 release

  ==> Input File <==

--------------------------------------------------------------------------
#psi4
#
memory 32 gb

molecule  {
0 1
  N       -1.7314010     0.6447010     0.0841650
  N       -1.4297834    -1.5417405    -0.1815827
  N        1.1113180     1.0210360    -0.2929590
  N        1.3650780    -1.3052570     0.2771500
  C       -0.8211750    -0.3840720    -0.0264870
  C        0.6302560    -0.2085840    -0.0077820
  C       -2.9774260     0.0775420    -0.0074450
  C       -2.7669850    -1.2782450    -0.1740670
  C        2.4478010     1.1517920    -0.2896530
  C        2.6936640    -1.1417610     0.2510410
  C        3.2993530     0.0833730    -0.0301630
  H       -3.8759520     0.6750340     0.0629310
  H       -3.5116600    -2.0553930    -0.2887470
  H        2.8330150     2.1453150    -0.5142540
  H        3.2873230    -2.0271970     0.4738100
  H        4.3785670     0.1979470    -0.0409660
  C       -1.4969110     2.0704780     0.2948980
  H       -0.7998500     2.2172910     1.1191120
  H       -1.0792200     2.5269500    -0.6013110
  H       -2.4567070     2.5274350     0.5414280
units angstrom
no_reorient  #important for SAPT in psi4, default
symmetry c1  #important for SAPT in psi4, default
}

set PROPERTIES_ORIGIN ["COM"]
properties('MP2/aug-cc-pvtz', properties = ['dipole'])
--------------------------------------------------------------------------

    Molecular point group: c1
  Charge       = 0
  Multiplicity = 1
  Basis Set: AUG-CC-PVTZ
    Blend: AUG-CC-PVTZ
  Basis Set: (AUG-CC-PVTZ AUX)
    Blend: AUG-CC-PVTZ-JKFIT

    Orbital Energies [Eh]
    ---------------------

    Doubly Occupied:

       1A    -15.622900     2A    -15.580008     3A    -15.574973
       4A    -15.542956     5A    -11.333143     6A    -11.305797
       7A    -11.302978     8A    -11.292576     9A    -11.272205
      10A    -11.260167    11A    -11.251904    12A    -11.239841
      13A     -1.347034    14A     -1.308287    15A     -1.198299
      16A     -1.179508    17A     -1.089004    18A     -1.009283
      19A     -0.966719    20A     -0.899379    21A     -0.894236
      22A     -0.804053    23A     -0.784247    24A     -0.726329
      25A     -0.702689    26A     -0.686171    27A     -0.646129
      28A     -0.639936    29A     -0.607717    30A     -0.592621
      31A     -0.586711    32A     -0.579204    33A     -0.571465
      34A     -0.557756    35A     -0.544228    36A     -0.481186
      37A     -0.433804    38A     -0.424128    39A     -0.411852
      40A     -0.397216    41A     -0.377278    42A     -0.300133

  @DF-RHF Final Energy:  -525.55956960006199

   => Energetics <=

    Nuclear Repulsion Energy =            654.7959599627787384
    One-Electron Energy =               -2012.0589579198317551
    Two-Electron Energy =                 831.7034283569909121
    Total Energy =                       -525.5595696000619910
  Basis Set: (AUG-CC-PVTZ AUX)
    Blend: AUG-CC-PVTZ-RI
    Molecular point group: c1

    Geometry (in Angstrom), charge = 0, multiplicity = 1:

       Center              X                  Y                   Z               Mass
    ------------   -----------------  -----------------  -----------------  -----------------
         N           -1.739395481086     0.681177970291     0.088560007762    14.003074004430
         N           -1.437777881086    -1.505263529709    -0.177187692238    14.003074004430
         N            1.103323518914     1.057512970291    -0.288563992238    14.003074004430
         N            1.357083518914    -1.268780029709     0.281545007762    14.003074004430
         C           -0.829169481086    -0.347595029709    -0.022091992238    12.000000000000
         C            0.622261518914    -0.172107029709    -0.003386992238    12.000000000000
         C           -2.985420481086     0.114018970291    -0.003049992238    12.000000000000
         C           -2.774979481086    -1.241768029709    -0.169671992238    12.000000000000
         C            2.439806518914     1.188268970291    -0.285257992238    12.000000000000
         C            2.685669518914    -1.105284029709     0.255436007762    12.000000000000
         C            3.291358518914     0.119849970291    -0.025767992238    12.000000000000
         H           -3.883946481086     0.711510970291     0.067326007762     1.007825032230
         H           -3.519654481086    -2.018916029709    -0.284351992238     1.007825032230
         H            2.825020518914     2.181791970291    -0.509858992238     1.007825032230
         H            3.279328518914    -1.990720029709     0.478205007762     1.007825032230
         H            4.370572518914     0.234423970291    -0.036570992238     1.007825032230
         C           -1.504905481086     2.106954970291     0.299293007762    12.000000000000
         H           -0.807844481086     2.253767970291     1.123507007762     1.007825032230
         H           -1.087214481086     2.563426970291    -0.596915992238     1.007825032230
         H           -2.464701481086     2.563911970291     0.545823007762     1.007825032230

  Basis Set: AUG-CC-PVTZ
    Blend: AUG-CC-PVTZ
  Basis Set: (AUG-CC-PVTZ AUX)
    Blend: AUG-CC-PVTZ-JKFIT
	 Reference Energy          =    -525.5595696000619910 [Eh]
	 Singles Energy            =      -0.0000000000000000 [Eh]
	 Same-Spin Energy          =      -0.5774338361787742 [Eh]
	 Opposite-Spin Energy      =      -1.7371900253566681 [Eh]
	 Correlation Energy        =      -2.3146238615354422 [Eh]
	 Total Energy              =    -527.8741934615974287 [Eh]

	 ================> DF-SCS-MP2 Energies <==================
	-----------------------------------------------------------
	 SCS Same-Spin Scale       =       0.3333333333333333 [-]
	 SCS Opposite-Spin Scale   =       1.2000000000000000 [-]
	 SCS Same-Spin Energy      =      -0.1924779453929247 [Eh]
	 SCS Opposite-Spin Energy  =      -2.0846280304280018 [Eh]
	 SCS Correlation Energy    =      -2.2771059758209264 [Eh]
	 SCS Total Energy          =    -527.8366755758829640 [Eh]
	-----------------------------------------------------------

  Dipole Moment: [D]
     X:     1.4237      Y:     4.0481      Z:     0.4710     Total:     4.3169

*** Psi4 exiting successfully. Buy a developer a beer!
