                               Psi4 1.3.2 release

  ==> Input File <==

--------------------------------------------------------------------------
#psi4
#
memory 32 gb

molecule  {
0 1
  N       -1.7314010     0.6447010     0.0841650
  N       -1.4345640    -1.5648400    -0.1846490
  N        1.1113180     1.0210360    -0.2929590
  N        1.3650780    -1.3052570     0.2771500
  C       -0.8032603    -0.3681845    -0.0242183
  C        0.6302560    -0.2085840    -0.0077820
  C       -2.9774260     0.0775420    -0.0074450
  C       -2.7669850    -1.2782450    -0.1740670
  C        2.4478010     1.1517920    -0.2896530
  C        2.6936640    -1.1417610     0.2510410
  C        3.2993530     0.0833730    -0.0301630
  H       -3.8759520     0.6750340     0.0629310
  H       -3.5116600    -2.0553930    -0.2887470
  H        2.8330150     2.1453150    -0.5142540
  H        3.2873230    -2.0271970     0.4738100
  H        4.3785670     0.1979470    -0.0409660
  C       -1.4969110     2.0704780     0.2948980
  H       -0.7998500     2.2172910     1.1191120
  H       -1.0792200     2.5269500    -0.6013110
  H       -2.4567070     2.5274350     0.5414280
units angstrom
no_reorient  #important for SAPT in psi4, default
symmetry c1  #important for SAPT in psi4, default
}

set PROPERTIES_ORIGIN ["COM"]
properties('MP2/aug-cc-pvtz', properties = ['dipole'])
--------------------------------------------------------------------------

    Molecular point group: c1
  Charge       = 0
  Multiplicity = 1
  Basis Set: AUG-CC-PVTZ
    Blend: AUG-CC-PVTZ
  Basis Set: (AUG-CC-PVTZ AUX)
    Blend: AUG-CC-PVTZ-JKFIT

    Orbital Energies [Eh]
    ---------------------

    Doubly Occupied:

       1A    -15.628404     2A    -15.579427     3A    -15.574671
       4A    -15.548247     5A    -11.332291     6A    -11.305503
       7A    -11.302818     8A    -11.295475     9A    -11.273344
      10A    -11.260851    11A    -11.251449    12A    -11.241282
      13A     -1.343239    14A     -1.307813    15A     -1.197305
      16A     -1.173905    17A     -1.090543    18A     -1.008288
      19A     -0.968957    20A     -0.899412    21A     -0.895608
      22A     -0.800991    23A     -0.785943    24A     -0.726916
      25A     -0.702712    26A     -0.685719    27A     -0.646372
      28A     -0.641031    29A     -0.607406    30A     -0.593025
      31A     -0.586049    32A     -0.580544    33A     -0.570153
      34A     -0.556573    35A     -0.541594    36A     -0.482016
      37A     -0.434392    38A     -0.424082    39A     -0.411786
      40A     -0.396874    41A     -0.377194    42A     -0.296907

  @DF-RHF Final Energy:  -525.55505871533967

   => Energetics <=

    Nuclear Repulsion Energy =            654.1198749805651005
    One-Electron Energy =               -2010.6956398679628819
    Two-Electron Energy =                 831.0207061720581123
    Total Energy =                       -525.5550587153396691
  Basis Set: (AUG-CC-PVTZ AUX)
    Blend: AUG-CC-PVTZ-RI
    Molecular point group: c1

    Geometry (in Angstrom), charge = 0, multiplicity = 1:

       Center              X                  Y                   Z               Mass
    ------------   -----------------  -----------------  -----------------  -----------------
         N           -1.740320256350     0.682007669457     0.088658169474    14.003074004430
         N           -1.443483256350    -1.527533330543    -0.180155830526    14.003074004430
         N            1.102398743650     1.058342669457    -0.288465830526    14.003074004430
         N            1.356158743650    -1.267950330543     0.281643169474    14.003074004430
         C           -0.812179556350    -0.330877830543    -0.019725130526    12.000000000000
         C            0.621336743650    -0.171277330543    -0.003288830526    12.000000000000
         C           -2.986345256350     0.114848669457    -0.002951830526    12.000000000000
         C           -2.775904256350    -1.240938330543    -0.169573830526    12.000000000000
         C            2.438881743650     1.189098669457    -0.285159830526    12.000000000000
         C            2.684744743650    -1.104454330543     0.255534169474    12.000000000000
         C            3.290433743650     0.120679669457    -0.025669830526    12.000000000000
         H           -3.884871256350     0.712340669457     0.067424169474     1.007825032230
         H           -3.520579256350    -2.018086330543    -0.284253830526     1.007825032230
         H            2.824095743650     2.182621669457    -0.509760830526     1.007825032230
         H            3.278403743650    -1.989890330543     0.478303169474     1.007825032230
         H            4.369647743650     0.235253669457    -0.036472830526     1.007825032230
         C           -1.505830256350     2.107784669457     0.299391169474    12.000000000000
         H           -0.808769256350     2.254597669457     1.123605169474     1.007825032230
         H           -1.088139256350     2.564256669457    -0.596817830526     1.007825032230
         H           -2.465626256350     2.564741669457     0.545921169474     1.007825032230

  Basis Set: AUG-CC-PVTZ
    Blend: AUG-CC-PVTZ
  Basis Set: (AUG-CC-PVTZ AUX)
    Blend: AUG-CC-PVTZ-JKFIT
	 Reference Energy          =    -525.5550587153396691 [Eh]
	 Singles Energy            =      -0.0000000000000000 [Eh]
	 Same-Spin Energy          =      -0.5787746593351981 [Eh]
	 Opposite-Spin Energy      =      -1.7396364549985883 [Eh]
	 Correlation Energy        =      -2.3184111143337862 [Eh]
	 Total Energy              =    -527.8734698296734678 [Eh]

	 ================> DF-SCS-MP2 Energies <==================
	-----------------------------------------------------------
	 SCS Same-Spin Scale       =       0.3333333333333333 [-]
	 SCS Opposite-Spin Scale   =       1.2000000000000000 [-]
	 SCS Same-Spin Energy      =      -0.1929248864450660 [Eh]
	 SCS Opposite-Spin Energy  =      -2.0875637459983061 [Eh]
	 SCS Correlation Energy    =      -2.2804886324433720 [Eh]
	 SCS Total Energy          =    -527.8355473477830628 [Eh]
	-----------------------------------------------------------

  Dipole Moment: [D]
     X:     1.3128      Y:     4.1236      Z:     0.4822     Total:     4.3543

*** Psi4 exiting successfully. Buy a developer a beer!
