                               Psi4 1.3.2 release

  ==> Input File <==

--------------------------------------------------------------------------
#psi4
#
memory 32 gb

molecule  {
0 1
  N       -1.7314010     0.6447010     0.0841650
  N       -1.4345640    -1.5648400    -0.1846490
  N        1.1113180     1.0210360    -0.2929590
  N        1.3650780    -1.3052570     0.2771500
  C       -0.8211750    -0.3840720    -0.0264870
  C        0.6302560    -0.2085840    -0.0077820
  C       -2.9672109     0.0561023    -0.0105211
  C       -2.7669850    -1.2782450    -0.1740670
  C        2.4478010     1.1517920    -0.2896530
  C        2.6936640    -1.1417610     0.2510410
  C        3.2993530     0.0833730    -0.0301630
  H       -3.8759520     0.6750340     0.0629310
  H       -3.5116600    -2.0553930    -0.2887470
  H        2.8330150     2.1453150    -0.5142540
  H        3.2873230    -2.0271970     0.4738100
  H        4.3785670     0.1979470    -0.0409660
  C       -1.4969110     2.0704780     0.2948980
  H       -0.7998500     2.2172910     1.1191120
  H       -1.0792200     2.5269500    -0.6013110
  H       -2.4567070     2.5274350     0.5414280
units angstrom
no_reorient  #important for SAPT in psi4, default
symmetry c1  #important for SAPT in psi4, default
}

set PROPERTIES_ORIGIN ["COM"]
properties('MP2/aug-cc-pvtz', properties = ['dipole'])
--------------------------------------------------------------------------

    Molecular point group: c1
  Charge       = 0
  Multiplicity = 1
  Basis Set: AUG-CC-PVTZ
    Blend: AUG-CC-PVTZ
  Basis Set: (AUG-CC-PVTZ AUX)
    Blend: AUG-CC-PVTZ-JKFIT

    Orbital Energies [Eh]
    ---------------------

    Doubly Occupied:

       1A    -15.624078     2A    -15.580173     3A    -15.575003
       4A    -15.545448     5A    -11.333301     6A    -11.305903
       7A    -11.303005     8A    -11.295448     9A    -11.273600
      10A    -11.258703    11A    -11.252002    12A    -11.237072
      13A     -1.345630    14A     -1.308315    15A     -1.197950
      16A     -1.177401    17A     -1.089314    18A     -1.009666
      19A     -0.968625    20A     -0.899445    21A     -0.894570
      22A     -0.801213    23A     -0.784051    24A     -0.727601
      25A     -0.702652    26A     -0.684945    27A     -0.646370
      28A     -0.637745    29A     -0.605697    30A     -0.594081
      31A     -0.587387    32A     -0.578258    33A     -0.569808
      34A     -0.556381    35A     -0.544260    36A     -0.481119
      37A     -0.435753    38A     -0.424245    39A     -0.412368
      40A     -0.396597    41A     -0.377698    42A     -0.301262

  @DF-RHF Final Energy:  -525.55797379335820

   => Energetics <=

    Nuclear Repulsion Energy =            654.4746652731975018
    One-Electron Energy =               -2011.4169959880441638
    Two-Electron Energy =                 831.3843569214885747
    Total Energy =                       -525.5579737933582010
  Basis Set: (AUG-CC-PVTZ AUX)
    Blend: AUG-CC-PVTZ-RI
    Molecular point group: c1

    Geometry (in Angstrom), charge = 0, multiplicity = 1:

       Center              X                  Y                   Z               Mass
    ------------   -----------------  -----------------  -----------------  -----------------
         N           -1.739743056538     0.684805899601     0.089058841918    14.003074004430
         N           -1.442906056538    -1.524735100399    -0.179755158082    14.003074004430
         N            1.102975943462     1.061140899601    -0.288065158082    14.003074004430
         N            1.356735943462    -1.265152100399     0.282043841918    14.003074004430
         C           -0.829517056538    -0.343967100399    -0.021593158082    12.000000000000
         C            0.621913943462    -0.168479100399    -0.002888158082    12.000000000000
         C           -2.975552956538     0.096207199601    -0.005627258082    12.000000000000
         C           -2.775327056538    -1.238140100399    -0.169173158082    12.000000000000
         C            2.439458943462     1.191896899601    -0.284759158082    12.000000000000
         C            2.685321943462    -1.101656100399     0.255934841918    12.000000000000
         C            3.291010943462     0.123477899601    -0.025269158082    12.000000000000
         H           -3.884294056538     0.715138899601     0.067824841918     1.007825032230
         H           -3.520002056538    -2.015288100399    -0.283853158082     1.007825032230
         H            2.824672943462     2.185419899601    -0.509360158082     1.007825032230
         H            3.278980943462    -1.987092100399     0.478703841918     1.007825032230
         H            4.370224943462     0.238051899601    -0.036072158082     1.007825032230
         C           -1.505253056538     2.110582899601     0.299791841918    12.000000000000
         H           -0.808192056538     2.257395899601     1.124005841918     1.007825032230
         H           -1.087562056538     2.567054899601    -0.596417158082     1.007825032230
         H           -2.465049056538     2.567539899601     0.546321841918     1.007825032230

  Basis Set: AUG-CC-PVTZ
    Blend: AUG-CC-PVTZ
  Basis Set: (AUG-CC-PVTZ AUX)
    Blend: AUG-CC-PVTZ-JKFIT
	 Reference Energy          =    -525.5579737933582010 [Eh]
	 Singles Energy            =      -0.0000000000000000 [Eh]
	 Same-Spin Energy          =      -0.5776720199191526 [Eh]
	 Opposite-Spin Energy      =      -1.7378247742887283 [Eh]
	 Correlation Energy        =      -2.3154967942078808 [Eh]
	 Total Energy              =    -527.8734705875660893 [Eh]

	 ================> DF-SCS-MP2 Energies <==================
	-----------------------------------------------------------
	 SCS Same-Spin Scale       =       0.3333333333333333 [-]
	 SCS Opposite-Spin Scale   =       1.2000000000000000 [-]
	 SCS Same-Spin Energy      =      -0.1925573399730509 [Eh]
	 SCS Opposite-Spin Energy  =      -2.0853897291464740 [Eh]
	 SCS Correlation Energy    =      -2.2779470691195249 [Eh]
	 SCS Total Energy          =    -527.8359208624776784 [Eh]
	-----------------------------------------------------------

  Dipole Moment: [D]
     X:     1.4045      Y:     4.1014      Z:     0.4796     Total:     4.3616

*** Psi4 exiting successfully. Buy a developer a beer!
