                               Psi4 1.4a3.dev225

  ==> Input File <==

--------------------------------------------------------------------------
#psi4
#
memory 32 gb

molecule  {
0 1
  N       -1.7314010     0.6447010     0.0841650
  N       -1.4345640    -1.5648400    -0.1846490
  N        1.1113180     1.0210360    -0.2929590
  N        1.3650780    -1.3052570     0.2771500
  C       -0.8211750    -0.3840720    -0.0264870
  C        0.6302560    -0.2085840    -0.0077820
  C       -2.9320200     0.0982097    -0.0041067
  C       -2.7669850    -1.2782450    -0.1740670
  C        2.4478010     1.1517920    -0.2896530
  C        2.6936640    -1.1417610     0.2510410
  C        3.2993530     0.0833730    -0.0301630
  H       -3.8759520     0.6750340     0.0629310
  H       -3.5116600    -2.0553930    -0.2887470
  H        2.8330150     2.1453150    -0.5142540
  H        3.2873230    -2.0271970     0.4738100
  H        4.3785670     0.1979470    -0.0409660
  C       -1.4969110     2.0704780     0.2948980
  H       -0.7998500     2.2172910     1.1191120
  H       -1.0792200     2.5269500    -0.6013110
  H       -2.4567070     2.5274350     0.5414280
units angstrom
no_reorient  #important for SAPT in psi4, default
symmetry c1  #important for SAPT in psi4, default
}

set PROPERTIES_ORIGIN ["COM"]
properties('MP2/aug-cc-pvtz', properties = ['dipole'])
--------------------------------------------------------------------------

    Molecular point group: c1
  Charge       = 0
  Multiplicity = 1
  Basis Set: AUG-CC-PVTZ
    Blend: AUG-CC-PVTZ
  Basis Set: (AUG-CC-PVTZ AUX)
    Blend: AUG-CC-PVTZ-JKFIT

    Orbital Energies [Eh]
    ---------------------

    Doubly Occupied:

       1A    -15.629471     2A    -15.578022     3A    -15.572763
       4A    -15.548644     5A    -11.332053     6A    -11.304648
       7A    -11.301685     8A    -11.291169     9A    -11.276225
      10A    -11.261923    11A    -11.249835    12A    -11.239129
      13A     -1.355507    14A     -1.308340    15A     -1.197427
      16A     -1.182469    17A     -1.087731    18A     -1.008122
      19A     -0.972389    20A     -0.898113    21A     -0.890938
      22A     -0.806839    23A     -0.782093    24A     -0.730417
      25A     -0.701100    26A     -0.685639    27A     -0.652197
      28A     -0.640374    29A     -0.606591    30A     -0.593297
      31A     -0.583853    32A     -0.574619    33A     -0.572251
      34A     -0.560515    35A     -0.546533    36A     -0.479861
      37A     -0.435646    38A     -0.423134    39A     -0.411140
      40A     -0.399412    41A     -0.379536    42A     -0.293295

  @DF-RHF Final Energy:  -525.55547263049129

   => Energetics <=

    Nuclear Repulsion Energy =            655.1479464076439854
    One-Electron Energy =               -2012.7169421602184229
    Two-Electron Energy =                 832.0135231220831429
    Total Energy =                       -525.5554726304912947
  Basis Set: (AUG-CC-PVTZ AUX)
    Blend: AUG-CC-PVTZ-RI
    Molecular point group: c1

    Geometry (in Angstrom), charge = 0, multiplicity = 1:

       Center              X                  Y                   Z               Mass
    ------------   -----------------  -----------------  -----------------  -----------------
         N           -1.742381139147     0.681649322200     0.088577987007    14.003074004430
         N           -1.445544139147    -1.527891677800    -0.180236012993    14.003074004430
         N            1.100337860853     1.057984322200    -0.288546012993    14.003074004430
         N            1.354097860853    -1.268308677800     0.281562987007    14.003074004430
         C           -0.832155139147    -0.347123677800    -0.022074012993    12.000000000000
         C            0.619275860853    -0.171635677800    -0.003369012993    12.000000000000
         C           -2.943000139147     0.135158022200     0.000306287007    12.000000000000
         C           -2.777965139147    -1.241296677800    -0.169654012993    12.000000000000
         C            2.436820860853     1.188740322200    -0.285240012993    12.000000000000
         C            2.682683860853    -1.104812677800     0.255453987007    12.000000000000
         C            3.288372860853     0.120321322200    -0.025750012993    12.000000000000
         H           -3.886932139147     0.711982322200     0.067343987007     1.007825032230
         H           -3.522640139147    -2.018444677800    -0.284334012993     1.007825032230
         H            2.822034860853     2.182263322200    -0.509841012993     1.007825032230
         H            3.276342860853    -1.990248677800     0.478222987007     1.007825032230
         H            4.367586860853     0.234895322200    -0.036553012993     1.007825032230
         C           -1.507891139147     2.107426322200     0.299310987007    12.000000000000
         H           -0.810830139147     2.254239322200     1.123524987007     1.007825032230
         H           -1.090200139147     2.563898322200    -0.596898012993     1.007825032230
         H           -2.467687139147     2.564383322200     0.545840987007     1.007825032230

  Basis Set: AUG-CC-PVTZ
    Blend: AUG-CC-PVTZ
  Basis Set: (AUG-CC-PVTZ AUX)
    Blend: AUG-CC-PVTZ-JKFIT
	 Reference Energy          =    -525.5554726304912947 [Eh]
	 Singles Energy            =      -0.0000000000000000 [Eh]
	 Same-Spin Energy          =      -0.5782935388186580 [Eh]
	 Opposite-Spin Energy      =      -1.7380396347498603 [Eh]
	 Correlation Energy        =      -2.3163331735685184 [Eh]
	 Total Energy              =    -527.8718058040598180 [Eh]

	 ================> DF-SCS-MP2 Energies <==================
	-----------------------------------------------------------
	 SCS Same-Spin Scale       =       0.3333333333333333 [-]
	 SCS Opposite-Spin Scale   =       1.2000000000000000 [-]
	 SCS Same-Spin Energy      =      -0.1927645129395527 [Eh]
	 SCS Opposite-Spin Energy  =      -2.0856475616998322 [Eh]
	 SCS Correlation Energy    =      -2.2784120746393848 [Eh]
	 SCS Total Energy          =    -527.8338847051306857 [Eh]
	-----------------------------------------------------------

  Dipole Moment: [D]
     X:     1.3121      Y:     4.1665      Z:     0.4882     Total:     4.3954

*** Psi4 exiting successfully. Buy a developer a beer!
