                               Psi4 1.3.2 release

  ==> Input File <==

--------------------------------------------------------------------------
#psi4
#
memory 32 gb

molecule  {
0 1
  N       -1.7314010     0.6447010     0.0841650
  N       -1.4345640    -1.5648400    -0.1846490
  N        1.1113180     1.0210360    -0.2929590
  N        1.3650780    -1.3052570     0.2771500
  C       -0.8955504    -0.4444412    -0.0352180
  C        0.6302560    -0.2085840    -0.0077820
  C       -2.9774260     0.0775420    -0.0074450
  C       -2.7669850    -1.2782450    -0.1740670
  C        2.4478010     1.1517920    -0.2896530
  C        2.6936640    -1.1417610     0.2510410
  C        3.2993530     0.0833730    -0.0301630
  H       -3.8759520     0.6750340     0.0629310
  H       -3.5116600    -2.0553930    -0.2887470
  H        2.8330150     2.1453150    -0.5142540
  H        3.2873230    -2.0271970     0.4738100
  H        4.3785670     0.1979470    -0.0409660
  C       -1.4969110     2.0704780     0.2948980
  H       -0.7998500     2.2172910     1.1191120
  H       -1.0792200     2.5269500    -0.6013110
  H       -2.4567070     2.5274350     0.5414280
units angstrom
no_reorient  #important for SAPT in psi4, default
symmetry c1  #important for SAPT in psi4, default
}

set PROPERTIES_ORIGIN ["COM"]
properties('MP2/aug-cc-pvtz', properties = ['dipole'])
--------------------------------------------------------------------------

    Molecular point group: c1
  Charge       = 0
  Multiplicity = 1
  Basis Set: AUG-CC-PVTZ
    Blend: AUG-CC-PVTZ
  Basis Set: (AUG-CC-PVTZ AUX)
    Blend: AUG-CC-PVTZ-JKFIT

    Orbital Energies [Eh]
    ---------------------

    Doubly Occupied:

       1A    -15.616412     2A    -15.580831     3A    -15.574574
       4A    -15.540001     5A    -11.335215     6A    -11.306110
       7A    -11.302639     8A    -11.295017     9A    -11.273934
      10A    -11.257869    11A    -11.252131    12A    -11.238193
      13A     -1.355631    14A     -1.308034    15A     -1.204851
      16A     -1.190626    17A     -1.082871    18A     -1.007647
      19A     -0.966446    20A     -0.898023    21A     -0.887117
      22A     -0.809545    23A     -0.777069    24A     -0.727335
      25A     -0.701777    26A     -0.685829    27A     -0.647081
      28A     -0.635877    29A     -0.606781    30A     -0.594895
      31A     -0.590184    32A     -0.577813    33A     -0.562939
      34A     -0.552934    35A     -0.551142    36A     -0.476560
      37A     -0.442021    38A     -0.423840    39A     -0.413382
      40A     -0.398524    41A     -0.380192    42A     -0.304078

  @DF-RHF Final Energy:  -525.55195749514974

   => Energetics <=

    Nuclear Repulsion Energy =            654.2417559680972090
    One-Electron Energy =               -2010.9194784193280157
    Two-Electron Energy =                 831.1257649560809568
    Total Energy =                       -525.5519574951497361
  Basis Set: (AUG-CC-PVTZ AUX)
    Blend: AUG-CC-PVTZ-RI
    Molecular point group: c1

    Geometry (in Angstrom), charge = 0, multiplicity = 1:

       Center              X                  Y                   Z               Mass
    ------------   -----------------  -----------------  -----------------  -----------------
         N           -1.733401737421     0.687724246018     0.089482760981    14.003074004430
         N           -1.436564737421    -1.521816753982    -0.179331239019    14.003074004430
         N            1.109317262579     1.064059246018    -0.287641239019    14.003074004430
         N            1.363077262579    -1.262233753982     0.282467760981    14.003074004430
         C           -0.897551137421    -0.401417953982    -0.029900239019    12.000000000000
         C            0.628255262579    -0.165560753982    -0.002464239019    12.000000000000
         C           -2.979426737421     0.120565246018    -0.002127239019    12.000000000000
         C           -2.768985737421    -1.235221753982    -0.168749239019    12.000000000000
         C            2.445800262579     1.194815246018    -0.284335239019    12.000000000000
         C            2.691663262579    -1.098737753982     0.256358760981    12.000000000000
         C            3.297352262579     0.126396246018    -0.024845239019    12.000000000000
         H           -3.877952737421     0.718057246018     0.068248760981     1.007825032230
         H           -3.513660737421    -2.012369753982    -0.283429239019     1.007825032230
         H            2.831014262579     2.188338246018    -0.508936239019     1.007825032230
         H            3.285322262579    -1.984173753982     0.479127760981     1.007825032230
         H            4.376566262579     0.240970246018    -0.035648239019     1.007825032230
         C           -1.498911737421     2.113501246018     0.300215760981    12.000000000000
         H           -0.801850737421     2.260314246018     1.124429760981     1.007825032230
         H           -1.081220737421     2.569973246018    -0.595993239019     1.007825032230
         H           -2.458707737421     2.570458246018     0.546745760981     1.007825032230

  Basis Set: AUG-CC-PVTZ
    Blend: AUG-CC-PVTZ
  Basis Set: (AUG-CC-PVTZ AUX)
    Blend: AUG-CC-PVTZ-JKFIT
	 Reference Energy          =    -525.5519574951497361 [Eh]
	 Singles Energy            =      -0.0000000000000000 [Eh]
	 Same-Spin Energy          =      -0.5752505395487426 [Eh]
	 Opposite-Spin Energy      =      -1.7342799591629410 [Eh]
	 Correlation Energy        =      -2.3095304987116836 [Eh]
	 Total Energy              =    -527.8614879938613740 [Eh]

	 ================> DF-SCS-MP2 Energies <==================
	-----------------------------------------------------------
	 SCS Same-Spin Scale       =       0.3333333333333333 [-]
	 SCS Opposite-Spin Scale   =       1.2000000000000000 [-]
	 SCS Same-Spin Energy      =      -0.1917501798495809 [Eh]
	 SCS Opposite-Spin Energy  =      -2.0811359509955292 [Eh]
	 SCS Correlation Energy    =      -2.2728861308451100 [Eh]
	 SCS Total Energy          =    -527.8248436259948448 [Eh]
	-----------------------------------------------------------

  Dipole Moment: [D]
     X:     1.6225      Y:     4.0152      Z:     0.4650     Total:     4.3555

*** Psi4 exiting successfully. Buy a developer a beer!
