                               Psi4 1.3.2 release

  ==> Input File <==

--------------------------------------------------------------------------
#psi4
#
memory 32 gb

molecule  {
0 1
  N       -1.6182584     0.7336663     0.0937136
  N       -1.4345640    -1.5648400    -0.1846490
  N        1.1113180     1.0210360    -0.2929590
  N        1.3650780    -1.3052570     0.2771500
  C       -0.8211750    -0.3840720    -0.0264870
  C        0.6302560    -0.2085840    -0.0077820
  C       -2.9774260     0.0775420    -0.0074450
  C       -2.7669850    -1.2782450    -0.1740670
  C        2.4478010     1.1517920    -0.2896530
  C        2.6936640    -1.1417610     0.2510410
  C        3.2993530     0.0833730    -0.0301630
  H       -3.8759520     0.6750340     0.0629310
  H       -3.5116600    -2.0553930    -0.2887470
  H        2.8330150     2.1453150    -0.5142540
  H        3.2873230    -2.0271970     0.4738100
  H        4.3785670     0.1979470    -0.0409660
  C       -1.4969110     2.0704780     0.2948980
  H       -0.7998500     2.2172910     1.1191120
  H       -1.0792200     2.5269500    -0.6013110
  H       -2.4567070     2.5274350     0.5414280
units angstrom
no_reorient  #important for SAPT in psi4, default
symmetry c1  #important for SAPT in psi4, default
}

set PROPERTIES_ORIGIN ["COM"]
properties('MP2/aug-cc-pvtz', properties = ['dipole'])
--------------------------------------------------------------------------

    Molecular point group: c1
  Charge       = 0
  Multiplicity = 1
  Basis Set: AUG-CC-PVTZ
    Blend: AUG-CC-PVTZ
  Basis Set: (AUG-CC-PVTZ AUX)
    Blend: AUG-CC-PVTZ-JKFIT

    Orbital Energies [Eh]
    ---------------------

    Doubly Occupied:

       1A    -15.621464     2A    -15.582125     3A    -15.576460
       4A    -15.547619     5A    -11.331628     6A    -11.309899
       7A    -11.306925     8A    -11.303781     9A    -11.266123
      10A    -11.261869    11A    -11.253909    12A    -11.252156
      13A     -1.335888    14A     -1.304049    15A     -1.203984
      16A     -1.189647    17A     -1.089331    18A     -0.999655
      19A     -0.975655    20A     -0.900170    21A     -0.893912
      22A     -0.797959    23A     -0.784924    24A     -0.725938
      25A     -0.703526    26A     -0.682877    27A     -0.650788
      28A     -0.637320    29A     -0.617967    30A     -0.610580
      31A     -0.592233    32A     -0.580451    33A     -0.566954
      34A     -0.532501    35A     -0.528120    36A     -0.478141
      37A     -0.439327    38A     -0.424981    39A     -0.414037
      40A     -0.392371    41A     -0.373068    42A     -0.305140

  @DF-RHF Final Energy:  -525.52858823695078

   => Energetics <=

    Nuclear Repulsion Energy =            654.0086110762094904
    One-Electron Energy =               -2010.3834977583919681
    Two-Electron Energy =                 830.8462984452316960
    Total Energy =                       -525.5285882369507817
  Basis Set: (AUG-CC-PVTZ AUX)
    Blend: AUG-CC-PVTZ-RI
    Molecular point group: c1

    Geometry (in Angstrom), charge = 0, multiplicity = 1:

       Center              X                  Y                   Z               Mass
    ------------   -----------------  -----------------  -----------------  -----------------
         N           -1.635732200708     0.764381444463     0.097541547413    14.003074004430
         N           -1.452037800708    -1.534124855537    -0.180821052587    14.003074004430
         N            1.093844199292     1.051751144463    -0.289131052587    14.003074004430
         N            1.347604199292    -1.274541855537     0.280977947413    14.003074004430
         C           -0.838648800708    -0.353356855537    -0.022659052587    12.000000000000
         C            0.612782199292    -0.177868855537    -0.003954052587    12.000000000000
         C           -2.994899800708     0.108257144463    -0.003617052587    12.000000000000
         C           -2.784458800708    -1.247529855537    -0.170239052587    12.000000000000
         C            2.430327199292     1.182507144463    -0.285825052587    12.000000000000
         C            2.676190199292    -1.111045855537     0.254868947413    12.000000000000
         C            3.281879199292     0.114088144463    -0.026335052587    12.000000000000
         H           -3.893425800708     0.705749144463     0.066758947413     1.007825032230
         H           -3.529133800708    -2.024677855537    -0.284919052587     1.007825032230
         H            2.815541199292     2.176030144463    -0.510426052587     1.007825032230
         H            3.269849199292    -1.996481855537     0.477637947413     1.007825032230
         H            4.361093199292     0.228662144463    -0.037138052587     1.007825032230
         C           -1.514384800708     2.101193144463     0.298725947413    12.000000000000
         H           -0.817323800708     2.248006144463     1.122939947413     1.007825032230
         H           -1.096693800708     2.557665144463    -0.597483052587     1.007825032230
         H           -2.474180800708     2.558150144463     0.545255947413     1.007825032230

  Basis Set: AUG-CC-PVTZ
    Blend: AUG-CC-PVTZ
  Basis Set: (AUG-CC-PVTZ AUX)
    Blend: AUG-CC-PVTZ-JKFIT
	 Reference Energy          =    -525.5285882369507817 [Eh]
	 Singles Energy            =      -0.0000000000000000 [Eh]
	 Same-Spin Energy          =      -0.5788075960999363 [Eh]
	 Opposite-Spin Energy      =      -1.7417115938765053 [Eh]
	 Correlation Energy        =      -2.3205191899764417 [Eh]
	 Total Energy              =    -527.8491074269272758 [Eh]

	 ================> DF-SCS-MP2 Energies <==================
	-----------------------------------------------------------
	 SCS Same-Spin Scale       =       0.3333333333333333 [-]
	 SCS Opposite-Spin Scale   =       1.2000000000000000 [-]
	 SCS Same-Spin Energy      =      -0.1929358653666454 [Eh]
	 SCS Opposite-Spin Energy  =      -2.0900539126518063 [Eh]
	 SCS Correlation Energy    =      -2.2829897780184516 [Eh]
	 SCS Total Energy          =    -527.8115780149692000 [Eh]
	-----------------------------------------------------------

  Dipole Moment: [D]
     X:     1.3845      Y:     3.7543      Z:     0.4377     Total:     4.0253

*** Psi4 exiting successfully. Buy a developer a beer!
