                               Psi4 1.3.2 release

  ==> Input File <==

--------------------------------------------------------------------------
#psi4
#
memory 32 gb

molecule  {
0 1
  N       -1.7314010     0.6447010     0.0841650
  N       -1.4345640    -1.5648400    -0.1846490
  N        1.1113180     1.0210360    -0.2929590
  N        1.3650780    -1.3052570     0.2771500
  C       -0.8211750    -0.3840720    -0.0264870
  C        0.7390785    -0.3709943     0.0344146
  C       -2.9774260     0.0775420    -0.0074450
  C       -2.7669850    -1.2782450    -0.1740670
  C        2.4478010     1.1517920    -0.2896530
  C        2.6936640    -1.1417610     0.2510410
  C        3.2993530     0.0833730    -0.0301630
  H       -3.8759520     0.6750340     0.0629310
  H       -3.5116600    -2.0553930    -0.2887470
  H        2.8330150     2.1453150    -0.5142540
  H        3.2873230    -2.0271970     0.4738100
  H        4.3785670     0.1979470    -0.0409660
  C       -1.4969110     2.0704780     0.2948980
  H       -0.7998500     2.2172910     1.1191120
  H       -1.0792200     2.5269500    -0.6013110
  H       -2.4567070     2.5274350     0.5414280
units angstrom
no_reorient  #important for SAPT in psi4, default
symmetry c1  #important for SAPT in psi4, default
}

set PROPERTIES_ORIGIN ["COM"]
properties('MP2/aug-cc-pvtz', properties = ['dipole'])
--------------------------------------------------------------------------

    Molecular point group: c1
  Charge       = 0
  Multiplicity = 1
  Basis Set: AUG-CC-PVTZ
    Blend: AUG-CC-PVTZ
  Basis Set: (AUG-CC-PVTZ AUX)
    Blend: AUG-CC-PVTZ-JKFIT

    Orbital Energies [Eh]
    ---------------------

    Doubly Occupied:

       1A    -15.620319     2A    -15.585913     3A    -15.566366
       4A    -15.535565     5A    -11.325518     6A    -11.314066
       7A    -11.307788     8A    -11.291771     9A    -11.268501
      10A    -11.258006    11A    -11.251565    12A    -11.232516
      13A     -1.363996    14A     -1.328580    15A     -1.209002
      16A     -1.171935    17A     -1.087083    18A     -0.998901
      19A     -0.959131    20A     -0.925065    21A     -0.875568
      22A     -0.794921    23A     -0.777439    24A     -0.726907
      25A     -0.715164    26A     -0.677887    27A     -0.641037
      28A     -0.637619    29A     -0.613111    30A     -0.604682
      31A     -0.590853    32A     -0.579531    33A     -0.564696
      34A     -0.545573    35A     -0.537793    36A     -0.479130
      37A     -0.448950    38A     -0.424870    39A     -0.414940
      40A     -0.388743    41A     -0.372797    42A     -0.297044

  @DF-RHF Final Energy:  -525.50353123805110

   => Energetics <=

    Nuclear Repulsion Energy =            654.2502775471630230
    One-Electron Energy =               -2010.8859358330685154
    Two-Electron Energy =                 831.1321270478543966
    Total Energy =                       -525.5035312380510959
  Basis Set: (AUG-CC-PVTZ AUX)
    Blend: AUG-CC-PVTZ-RI
    Molecular point group: c1

    Geometry (in Angstrom), charge = 0, multiplicity = 1:

       Center              X                  Y                   Z               Mass
    ------------   -----------------  -----------------  -----------------  -----------------
         N           -1.747135151286     0.695373747773     0.085664978092    14.003074004430
         N           -1.450298151286    -1.514167252227    -0.183149021908    14.003074004430
         N            1.095583848714     1.071708747773    -0.291459021908    14.003074004430
         N            1.349343848714    -1.254584252227     0.278649978092    14.003074004430
         C           -0.836909151286    -0.333399252227    -0.024987021908    12.000000000000
         C            0.723344348714    -0.320321552227     0.035914578092    12.000000000000
         C           -2.993160151286     0.128214747773    -0.005945021908    12.000000000000
         C           -2.782719151286    -1.227572252227    -0.172567021908    12.000000000000
         C            2.432066848714     1.202464747773    -0.288153021908    12.000000000000
         C            2.677929848714    -1.091088252227     0.252540978092    12.000000000000
         C            3.283618848714     0.134045747773    -0.028663021908    12.000000000000
         H           -3.891686151286     0.725706747773     0.064430978092     1.007825032230
         H           -3.527394151286    -2.004720252227    -0.287247021908     1.007825032230
         H            2.817280848714     2.195987747773    -0.512754021908     1.007825032230
         H            3.271588848714    -1.976524252227     0.475309978092     1.007825032230
         H            4.362832848714     0.248619747773    -0.039466021908     1.007825032230
         C           -1.512645151286     2.121150747773     0.296397978092    12.000000000000
         H           -0.815584151286     2.267963747773     1.120611978092     1.007825032230
         H           -1.094954151286     2.577622747773    -0.599811021908     1.007825032230
         H           -2.472441151286     2.578107747773     0.542927978092     1.007825032230

  Basis Set: AUG-CC-PVTZ
    Blend: AUG-CC-PVTZ
  Basis Set: (AUG-CC-PVTZ AUX)
    Blend: AUG-CC-PVTZ-JKFIT
	 Reference Energy          =    -525.5035312380510959 [Eh]
	 Singles Energy            =      -0.0000000000000000 [Eh]
	 Same-Spin Energy          =      -0.5755691115850379 [Eh]
	 Opposite-Spin Energy      =      -1.7376138946827435 [Eh]
	 Correlation Energy        =      -2.3131830062677814 [Eh]
	 Total Energy              =    -527.8167142443188595 [Eh]

	 ================> DF-SCS-MP2 Energies <==================
	-----------------------------------------------------------
	 SCS Same-Spin Scale       =       0.3333333333333333 [-]
	 SCS Opposite-Spin Scale   =       1.2000000000000000 [-]
	 SCS Same-Spin Energy      =      -0.1918563705283459 [Eh]
	 SCS Opposite-Spin Energy  =      -2.0851366736192922 [Eh]
	 SCS Correlation Energy    =      -2.2769930441476380 [Eh]
	 SCS Total Energy          =    -527.7805242821987122 [Eh]
	-----------------------------------------------------------

  Dipole Moment: [D]
     X:     2.1758      Y:     3.9286      Z:     0.5675     Total:     4.5265

*** Psi4 exiting successfully. Buy a developer a beer!
