                               Psi4 1.3.2 release

  ==> Input File <==

--------------------------------------------------------------------------
#psi4
#
memory 32 gb

molecule  {
0 1
  N       -1.7314010     0.6447010     0.0841650
  N       -1.4345640    -1.5648400    -0.1846490
  N        1.1113180     1.0210360    -0.2929590
  N        1.3650780    -1.3052570     0.2771500
  C       -0.8211750    -0.3840720    -0.0264870
  C        0.6302560    -0.2085840    -0.0077820
  C       -2.9774260     0.0775420    -0.0074450
  C       -2.7669850    -1.2782450    -0.1740670
  C        2.4478010     1.1517920    -0.2896530
  C        2.6936640    -1.1417610     0.2510410
  C        3.2993530     0.0833730    -0.0301630
  H       -3.8759520     0.6750340     0.0629310
  H       -3.5116600    -2.0553930    -0.2887470
  H        2.8330150     2.1453150    -0.5142540
  H        3.2873230    -2.0271970     0.4738100
  H        4.3785670     0.1979470    -0.0409660
  C       -1.4808524     2.1681194     0.3093296
  H       -0.7998500     2.2172910     1.1191120
  H       -1.0792200     2.5269500    -0.6013110
  H       -2.4567070     2.5274350     0.5414280
units angstrom
no_reorient  #important for SAPT in psi4, default
symmetry c1  #important for SAPT in psi4, default
}

set PROPERTIES_ORIGIN ["COM"]
properties('MP2/aug-cc-pvtz', properties = ['dipole'])
--------------------------------------------------------------------------

    Molecular point group: c1
  Charge       = 0
  Multiplicity = 1
  Basis Set: AUG-CC-PVTZ
    Blend: AUG-CC-PVTZ
  Basis Set: (AUG-CC-PVTZ AUX)
    Blend: AUG-CC-PVTZ-JKFIT

    Orbital Energies [Eh]
    ---------------------

    Doubly Occupied:

       1A    -15.622064     2A    -15.579336     3A    -15.573661
       4A    -15.543133     5A    -11.332129     6A    -11.305400
       7A    -11.302255     8A    -11.291417     9A    -11.278240
      10A    -11.256894    11A    -11.250901    12A    -11.237259
      13A     -1.336281    14A     -1.305345    15A     -1.196113
      16A     -1.164883    17A     -1.087569    18A     -1.004263
      19A     -0.972663    20A     -0.898348    21A     -0.892864
      22A     -0.796615    23A     -0.781740    24A     -0.718211
      25A     -0.701485    26A     -0.682138    27A     -0.646934
      28A     -0.638090    29A     -0.611958    30A     -0.594360
      31A     -0.586226    32A     -0.578674    33A     -0.564993
      34A     -0.553672    35A     -0.551853    36A     -0.481559
      37A     -0.433221    38A     -0.423781    39A     -0.411557
      40A     -0.395270    41A     -0.377106    42A     -0.295670

  @DF-RHF Final Energy:  -525.54999934655007

   => Energetics <=

    Nuclear Repulsion Energy =            652.2015806533424893
    One-Electron Energy =               -2006.9909090866528913
    Two-Electron Energy =                 829.2393290867603355
    Total Energy =                       -525.5499993465500665
  Basis Set: (AUG-CC-PVTZ AUX)
    Blend: AUG-CC-PVTZ-RI
    Molecular point group: c1

    Geometry (in Angstrom), charge = 0, multiplicity = 1:

       Center              X                  Y                   Z               Mass
    ------------   -----------------  -----------------  -----------------  -----------------
         N           -1.740181113983     0.675878995800     0.087746378785    14.003074004430
         N           -1.443344113983    -1.533662004200    -0.181067621215    14.003074004430
         N            1.102537886017     1.052213995800    -0.289377621215    14.003074004430
         N            1.356297886017    -1.274079004200     0.280731378785    14.003074004430
         C           -0.829955113983    -0.352894004200    -0.022905621215    12.000000000000
         C            0.621475886017    -0.177406004200    -0.004200621215    12.000000000000
         C           -2.986206113983     0.108719995800    -0.003863621215    12.000000000000
         C           -2.775765113983    -1.247067004200    -0.170485621215    12.000000000000
         C            2.439020886017     1.182969995800    -0.286071621215    12.000000000000
         C            2.684883886017    -1.110583004200     0.254622378785    12.000000000000
         C            3.290572886017     0.114550995800    -0.026581621215    12.000000000000
         H           -3.884732113983     0.706211995800     0.066512378785     1.007825032230
         H           -3.520440113983    -2.024215004200    -0.285165621215     1.007825032230
         H            2.824234886017     2.176492995800    -0.510672621215     1.007825032230
         H            3.278542886017    -1.996019004200     0.477391378785     1.007825032230
         H            4.369786886017     0.229124995800    -0.037384621215     1.007825032230
         C           -1.489632513983     2.199297395800     0.312910978785    12.000000000000
         H           -0.808630113983     2.248468995800     1.122693378785     1.007825032230
         H           -1.088000113983     2.558127995800    -0.597729621215     1.007825032230
         H           -2.465487113983     2.558612995800     0.545009378785     1.007825032230

  Basis Set: AUG-CC-PVTZ
    Blend: AUG-CC-PVTZ
  Basis Set: (AUG-CC-PVTZ AUX)
    Blend: AUG-CC-PVTZ-JKFIT
	 Reference Energy          =    -525.5499993465500665 [Eh]
	 Singles Energy            =      -0.0000000000000000 [Eh]
	 Same-Spin Energy          =      -0.5777625245338204 [Eh]
	 Opposite-Spin Energy      =      -1.7387334184010641 [Eh]
	 Correlation Energy        =      -2.3164959429348846 [Eh]
	 Total Energy              =    -527.8664952894849876 [Eh]

	 ================> DF-SCS-MP2 Energies <==================
	-----------------------------------------------------------
	 SCS Same-Spin Scale       =       0.3333333333333333 [-]
	 SCS Opposite-Spin Scale   =       1.2000000000000000 [-]
	 SCS Same-Spin Energy      =      -0.1925875081779401 [Eh]
	 SCS Opposite-Spin Energy  =      -2.0864801020812767 [Eh]
	 SCS Correlation Energy    =      -2.2790676102592169 [Eh]
	 SCS Total Energy          =    -527.8290669568092426 [Eh]
	-----------------------------------------------------------

  Dipole Moment: [D]
     X:     1.3785      Y:     4.3588      Z:     0.5177     Total:     4.6008

*** Psi4 exiting successfully. Buy a developer a beer!
