                               Psi4 1.3.2 release

  ==> Input File <==

--------------------------------------------------------------------------
#psi4
#
memory 32 gb

molecule  {
0 1
  N       -1.7314010     0.6447010     0.0841650
  N       -1.3926144    -1.5853136    -0.1875770
  N        1.1113180     1.0210360    -0.2929590
  N        1.3650780    -1.3052570     0.2771500
  C       -0.8211750    -0.3840720    -0.0264870
  C        0.6302560    -0.2085840    -0.0077820
  C       -2.9774260     0.0775420    -0.0074450
  C       -2.7669850    -1.2782450    -0.1740670
  C        2.4478010     1.1517920    -0.2896530
  C        2.6936640    -1.1417610     0.2510410
  C        3.2993530     0.0833730    -0.0301630
  H       -3.8759520     0.6750340     0.0629310
  H       -3.5116600    -2.0553930    -0.2887470
  H        2.8330150     2.1453150    -0.5142540
  H        3.2873230    -2.0271970     0.4738100
  H        4.3785670     0.1979470    -0.0409660
  C       -1.4969110     2.0704780     0.2948980
  H       -0.7998500     2.2172910     1.1191120
  H       -1.0792200     2.5269500    -0.6013110
  H       -2.4567070     2.5274350     0.5414280
units angstrom
no_reorient  #important for SAPT in psi4, default
symmetry c1  #important for SAPT in psi4, default
}

set PROPERTIES_ORIGIN ["COM"]
properties('MP2/aug-cc-pvtz', properties = ['dipole'])
--------------------------------------------------------------------------

    Molecular point group: c1
  Charge       = 0
  Multiplicity = 1
  Basis Set: AUG-CC-PVTZ
    Blend: AUG-CC-PVTZ
  Basis Set: (AUG-CC-PVTZ AUX)
    Blend: AUG-CC-PVTZ-JKFIT

    Orbital Energies [Eh]
    ---------------------

    Doubly Occupied:

       1A    -15.624315     2A    -15.580128     3A    -15.574982
       4A    -15.551954     5A    -11.332626     6A    -11.305745
       7A    -11.302948     8A    -11.297615     9A    -11.273665
      10A    -11.261940    11A    -11.252100    12A    -11.244104
      13A     -1.341574    14A     -1.307221    15A     -1.197535
      16A     -1.172420    17A     -1.088432    18A     -1.009257
      19A     -0.965995    20A     -0.899245    21A     -0.893832
      22A     -0.803618    23A     -0.782517    24A     -0.723962
      25A     -0.702772    26A     -0.685481    27A     -0.645899
      28A     -0.639483    29A     -0.606571    30A     -0.592725
      31A     -0.586220    32A     -0.579682    33A     -0.567567
      34A     -0.550453    35A     -0.540946    36A     -0.480823
      37A     -0.441941    38A     -0.424143    39A     -0.412810
      40A     -0.397355    41A     -0.372751    42A     -0.301597

  @DF-RHF Final Energy:  -525.55448423811720

   => Energetics <=

    Nuclear Repulsion Energy =            653.5331237226816938
    One-Electron Energy =               -2009.5413183116929758
    Two-Electron Energy =                 830.4537103508940845
    Total Energy =                       -525.5544842381171975
  Basis Set: (AUG-CC-PVTZ AUX)
    Blend: AUG-CC-PVTZ-RI
    Molecular point group: c1

    Geometry (in Angstrom), charge = 0, multiplicity = 1:

       Center              X                  Y                   Z               Mass
    ------------   -----------------  -----------------  -----------------  -----------------
         N           -1.742646960674     0.684989669428     0.089084378719    14.003074004430
         N           -1.403860360674    -1.545024930572    -0.182657621281    14.003074004430
         N            1.100072039326     1.061324669428    -0.288039621281    14.003074004430
         N            1.353832039326    -1.264968330572     0.282069378719    14.003074004430
         C           -0.832420960674    -0.343783330572    -0.021567621281    12.000000000000
         C            0.619010039326    -0.168295330572    -0.002862621281    12.000000000000
         C           -2.988671960674     0.117830669428    -0.002525621281    12.000000000000
         C           -2.778230960674    -1.237956330572    -0.169147621281    12.000000000000
         C            2.436555039326     1.192080669428    -0.284733621281    12.000000000000
         C            2.682418039326    -1.101472330572     0.255960378719    12.000000000000
         C            3.288107039326     0.123661669428    -0.025243621281    12.000000000000
         H           -3.887197960674     0.715322669428     0.067850378719     1.007825032230
         H           -3.522905960674    -2.015104330572    -0.283827621281     1.007825032230
         H            2.821769039326     2.185603669428    -0.509334621281     1.007825032230
         H            3.276077039326    -1.986908330572     0.478729378719     1.007825032230
         H            4.367321039326     0.238235669428    -0.036046621281     1.007825032230
         C           -1.508156960674     2.110766669428     0.299817378719    12.000000000000
         H           -0.811095960674     2.257579669428     1.124031378719     1.007825032230
         H           -1.090465960674     2.567238669428    -0.596391621281     1.007825032230
         H           -2.467952960674     2.567723669428     0.546347378719     1.007825032230

  Basis Set: AUG-CC-PVTZ
    Blend: AUG-CC-PVTZ
  Basis Set: (AUG-CC-PVTZ AUX)
    Blend: AUG-CC-PVTZ-JKFIT
	 Reference Energy          =    -525.5544842381171975 [Eh]
	 Singles Energy            =      -0.0000000000000000 [Eh]
	 Same-Spin Energy          =      -0.5778404355155435 [Eh]
	 Opposite-Spin Energy      =      -1.7393559292255869 [Eh]
	 Correlation Energy        =      -2.3171963647411307 [Eh]
	 Total Energy              =    -527.8716806028583051 [Eh]

	 ================> DF-SCS-MP2 Energies <==================
	-----------------------------------------------------------
	 SCS Same-Spin Scale       =       0.3333333333333333 [-]
	 SCS Opposite-Spin Scale   =       1.2000000000000000 [-]
	 SCS Same-Spin Energy      =      -0.1926134785051812 [Eh]
	 SCS Opposite-Spin Energy  =      -2.0872271150707040 [Eh]
	 SCS Correlation Energy    =      -2.2798405935758854 [Eh]
	 SCS Total Energy          =    -527.8343248316930385 [Eh]
	-----------------------------------------------------------

  Dipole Moment: [D]
     X:     1.3786      Y:     4.1539      Z:     0.4894     Total:     4.4039

*** Psi4 exiting successfully. Buy a developer a beer!
