                               Psi4 1.3.2 release

  ==> Input File <==

--------------------------------------------------------------------------
#psi4
#
memory 32 gb

molecule  {
0 1
  N       -1.7314010     0.6447010     0.0841650
  N       -1.4345640    -1.5648400    -0.1846490
  N        1.1113180     1.0210360    -0.2929590
  N        1.3650780    -1.3052570     0.2771500
  C       -0.7296212    -0.2078318    -0.0028799
  C        0.6302560    -0.2085840    -0.0077820
  C       -2.9774260     0.0775420    -0.0074450
  C       -2.7669850    -1.2782450    -0.1740670
  C        2.4478010     1.1517920    -0.2896530
  C        2.6936640    -1.1417610     0.2510410
  C        3.2993530     0.0833730    -0.0301630
  H       -3.8759520     0.6750340     0.0629310
  H       -3.5116600    -2.0553930    -0.2887470
  H        2.8330150     2.1453150    -0.5142540
  H        3.2873230    -2.0271970     0.4738100
  H        4.3785670     0.1979470    -0.0409660
  C       -1.4969110     2.0704780     0.2948980
  H       -0.7998500     2.2172910     1.1191120
  H       -1.0792200     2.5269500    -0.6013110
  H       -2.4567070     2.5274350     0.5414280
units angstrom
no_reorient  #important for SAPT in psi4, default
symmetry c1  #important for SAPT in psi4, default
}

set PROPERTIES_ORIGIN ["COM"]
properties('MP2/aug-cc-pvtz', properties = ['dipole'])
--------------------------------------------------------------------------

    Molecular point group: c1
  Charge       = 0
  Multiplicity = 1
  Basis Set: AUG-CC-PVTZ
    Blend: AUG-CC-PVTZ
  Basis Set: (AUG-CC-PVTZ AUX)
    Blend: AUG-CC-PVTZ-JKFIT

    Orbital Energies [Eh]
    ---------------------

    Doubly Occupied:

       1A    -15.648774     2A    -15.574923     3A    -15.573703
       4A    -15.552458     5A    -11.327090     6A    -11.302668
       7A    -11.302218     8A    -11.295631     9A    -11.276141
      10A    -11.262212    11A    -11.248845    12A    -11.248074
      13A     -1.350500    14A     -1.309357    15A     -1.194900
      16A     -1.151650    17A     -1.099266    18A     -1.010830
      19A     -0.975217    20A     -0.909939    21A     -0.898232
      22A     -0.802663    23A     -0.788447    24A     -0.728891
      25A     -0.702704    26A     -0.684632    27A     -0.655639
      28A     -0.650089    29A     -0.607010    30A     -0.596208
      31A     -0.592389    32A     -0.584667    33A     -0.568224
      34A     -0.537906    35A     -0.535136    36A     -0.484954
      37A     -0.424500    38A     -0.420595    39A     -0.403856
      40A     -0.397808    41A     -0.377295    42A     -0.283838

  @DF-RHF Final Energy:  -525.50089984495423

   => Energetics <=

    Nuclear Repulsion Energy =            654.5854343703343829
    One-Electron Energy =               -2011.4925174957529634
    Two-Electron Energy =                 831.4061832804642336
    Total Energy =                       -525.5008998449542332
  Basis Set: (AUG-CC-PVTZ AUX)
    Blend: AUG-CC-PVTZ-RI
    Molecular point group: c1

    Geometry (in Angstrom), charge = 0, multiplicity = 1:

       Center              X                  Y                   Z               Mass
    ------------   -----------------  -----------------  -----------------  -----------------
         N           -1.745840604765     0.669986843926     0.087058538264    14.003074004430
         N           -1.449003604765    -1.539554156074    -0.181755461736    14.003074004430
         N            1.096878395235     1.046321843926    -0.290065461736    14.003074004430
         N            1.350638395235    -1.279971156074     0.280043538264    14.003074004430
         C           -0.744060804765    -0.182545956074     0.000013638264    12.000000000000
         C            0.615816395235    -0.183298156074    -0.004888461736    12.000000000000
         C           -2.991865604765     0.102827843926    -0.004551461736    12.000000000000
         C           -2.781424604765    -1.252959156074    -0.171173461736    12.000000000000
         C            2.433361395235     1.177077843926    -0.286759461736    12.000000000000
         C            2.679224395235    -1.116475156074     0.253934538264    12.000000000000
         C            3.284913395235     0.108658843926    -0.027269461736    12.000000000000
         H           -3.890391604765     0.700319843926     0.065824538264     1.007825032230
         H           -3.526099604765    -2.030107156074    -0.285853461736     1.007825032230
         H            2.818575395235     2.170600843926    -0.511360461736     1.007825032230
         H            3.272883395235    -2.001911156074     0.476703538264     1.007825032230
         H            4.364127395235     0.223232843926    -0.038072461736     1.007825032230
         C           -1.511350604765     2.095763843926     0.297791538264    12.000000000000
         H           -0.814289604765     2.242576843926     1.122005538264     1.007825032230
         H           -1.093659604765     2.552235843926    -0.598417461736     1.007825032230
         H           -2.471146604765     2.552720843926     0.544321538264     1.007825032230

  Basis Set: AUG-CC-PVTZ
    Blend: AUG-CC-PVTZ
  Basis Set: (AUG-CC-PVTZ AUX)
    Blend: AUG-CC-PVTZ-JKFIT
	 Reference Energy          =    -525.5008998449542332 [Eh]
	 Singles Energy            =      -0.0000000000000000 [Eh]
	 Same-Spin Energy          =      -0.5844948039399720 [Eh]
	 Opposite-Spin Energy      =      -1.7498102092802403 [Eh]
	 Correlation Energy        =      -2.3343050132202121 [Eh]
	 Total Energy              =    -527.8352048581743929 [Eh]

	 ================> DF-SCS-MP2 Energies <==================
	-----------------------------------------------------------
	 SCS Same-Spin Scale       =       0.3333333333333333 [-]
	 SCS Opposite-Spin Scale   =       1.2000000000000000 [-]
	 SCS Same-Spin Energy      =      -0.1948316013133240 [Eh]
	 SCS Opposite-Spin Energy  =      -2.0997722511362884 [Eh]
	 SCS Correlation Energy    =      -2.2946038524496126 [Eh]
	 SCS Total Energy          =    -527.7955036974038876 [Eh]
	-----------------------------------------------------------

  Dipole Moment: [D]
     X:     0.8259      Y:     4.2291      Z:     0.5034     Total:     4.3383

*** Psi4 exiting successfully. Buy a developer a beer!
