                               Psi4 1.3.2 release

  ==> Input File <==

--------------------------------------------------------------------------
#psi4
#
memory 32 gb

molecule  {
0 1
  N       -1.7744817     0.7296545     0.0941146
  N       -1.4345640    -1.5648400    -0.1846490
  N        1.1113180     1.0210360    -0.2929590
  N        1.3650780    -1.3052570     0.2771500
  C       -0.8211750    -0.3840720    -0.0264870
  C        0.6302560    -0.2085840    -0.0077820
  C       -2.9774260     0.0775420    -0.0074450
  C       -2.7669850    -1.2782450    -0.1740670
  C        2.4478010     1.1517920    -0.2896530
  C        2.6936640    -1.1417610     0.2510410
  C        3.2993530     0.0833730    -0.0301630
  H       -3.8759520     0.6750340     0.0629310
  H       -3.5116600    -2.0553930    -0.2887470
  H        2.8330150     2.1453150    -0.5142540
  H        3.2873230    -2.0271970     0.4738100
  H        4.3785670     0.1979470    -0.0409660
  C       -1.4969110     2.0704780     0.2948980
  H       -0.7998500     2.2172910     1.1191120
  H       -1.0792200     2.5269500    -0.6013110
  H       -2.4567070     2.5274350     0.5414280
units angstrom
no_reorient  #important for SAPT in psi4, default
symmetry c1  #important for SAPT in psi4, default
}

set PROPERTIES_ORIGIN ["COM"]
properties('MP2/aug-cc-pvtz', properties = ['dipole'])
--------------------------------------------------------------------------

    Molecular point group: c1
  Charge       = 0
  Multiplicity = 1
  Basis Set: AUG-CC-PVTZ
    Blend: AUG-CC-PVTZ
  Basis Set: (AUG-CC-PVTZ AUX)
    Blend: AUG-CC-PVTZ-JKFIT

    Orbital Energies [Eh]
    ---------------------

    Doubly Occupied:

       1A    -15.624725     2A    -15.579153     3A    -15.574475
       4A    -15.559165     5A    -11.333429     6A    -11.305290
       7A    -11.303480     8A    -11.302705     9A    -11.268295
      10A    -11.265038    11A    -11.251154    12A    -11.242395
      13A     -1.335179    14A     -1.306360    15A     -1.202595
      16A     -1.189936    17A     -1.087991    18A     -1.010847
      19A     -0.965909    20A     -0.898970    21A     -0.889586
      22A     -0.797837    23A     -0.786952    24A     -0.728644
      25A     -0.702456    26A     -0.685351    27A     -0.648122
      28A     -0.640837    29A     -0.608451    30A     -0.603856
      31A     -0.590781    32A     -0.578909    33A     -0.563724
      34A     -0.550512    35A     -0.535840    36A     -0.478978
      37A     -0.442017    38A     -0.423949    39A     -0.412867
      40A     -0.400160    41A     -0.377541    42A     -0.294947

  @DF-RHF Final Energy:  -525.54255835342872

   => Energetics <=

    Nuclear Repulsion Energy =            652.7598183617287759
    One-Electron Energy =               -2007.9059361646520756
    Two-Electron Energy =                 829.6035594494945826
    Total Energy =                       -525.5425583534287171
  Basis Set: (AUG-CC-PVTZ AUX)
    Blend: AUG-CC-PVTZ-RI
    Molecular point group: c1

    Geometry (in Angstrom), charge = 0, multiplicity = 1:

       Center              X                  Y                   Z               Mass
    ------------   -----------------  -----------------  -----------------  -----------------
         N           -1.778289357659     0.760720589762     0.097907468629    14.003074004430
         N           -1.438371657659    -1.533773910238    -0.180856131371    14.003074004430
         N            1.107510342341     1.052102089762    -0.289166131371    14.003074004430
         N            1.361270342341    -1.274190910238     0.280942868629    14.003074004430
         C           -0.824982657659    -0.353005910238    -0.022694131371    12.000000000000
         C            0.626448342341    -0.177517910238    -0.003989131371    12.000000000000
         C           -2.981233657659     0.108608089762    -0.003652131371    12.000000000000
         C           -2.770792657659    -1.247178910238    -0.170274131371    12.000000000000
         C            2.443993342341     1.182858089762    -0.285860131371    12.000000000000
         C            2.689856342341    -1.110694910238     0.254833868629    12.000000000000
         C            3.295545342341     0.114439089762    -0.026370131371    12.000000000000
         H           -3.879759657659     0.706100089762     0.066723868629     1.007825032230
         H           -3.515467657659    -2.024326910238    -0.284954131371     1.007825032230
         H            2.829207342341     2.176381089762    -0.510461131371     1.007825032230
         H            3.283515342341    -1.996130910238     0.477602868629     1.007825032230
         H            4.374759342341     0.229013089762    -0.037173131371     1.007825032230
         C           -1.500718657659     2.101544089762     0.298690868629    12.000000000000
         H           -0.803657657659     2.248357089762     1.122904868629     1.007825032230
         H           -1.083027657659     2.558016089762    -0.597518131371     1.007825032230
         H           -2.460514657659     2.558501089762     0.545220868629     1.007825032230

  Basis Set: AUG-CC-PVTZ
    Blend: AUG-CC-PVTZ
  Basis Set: (AUG-CC-PVTZ AUX)
    Blend: AUG-CC-PVTZ-JKFIT
	 Reference Energy          =    -525.5425583534287171 [Eh]
	 Singles Energy            =      -0.0000000000000000 [Eh]
	 Same-Spin Energy          =      -0.5791539578037876 [Eh]
	 Opposite-Spin Energy      =      -1.7407726156199774 [Eh]
	 Correlation Energy        =      -2.3199265734237651 [Eh]
	 Total Energy              =    -527.8624849268525168 [Eh]

	 ================> DF-SCS-MP2 Energies <==================
	-----------------------------------------------------------
	 SCS Same-Spin Scale       =       0.3333333333333333 [-]
	 SCS Opposite-Spin Scale   =       1.2000000000000000 [-]
	 SCS Same-Spin Energy      =      -0.1930513192679292 [Eh]
	 SCS Opposite-Spin Energy  =      -2.0889271387439727 [Eh]
	 SCS Correlation Energy    =      -2.2819784580119018 [Eh]
	 SCS Total Energy          =    -527.8245368114405665 [Eh]
	-----------------------------------------------------------

  Dipole Moment: [D]
     X:     1.3691      Y:     3.8474      Z:     0.4439     Total:     4.1078

*** Psi4 exiting successfully. Buy a developer a beer!
