                               Psi4 1.3.2 release

  ==> Input File <==

--------------------------------------------------------------------------
#psi4
#
memory 32 gb

molecule  {
0 1
  N       -1.6182918     0.7332524     0.0972875
  N       -1.4345640    -1.5648400    -0.1846490
  N        1.1113180     1.0210360    -0.2929590
  N        1.3650780    -1.3052570     0.2771500
  C       -0.8211750    -0.3840720    -0.0264870
  C        0.6302560    -0.2085840    -0.0077820
  C       -2.9774260     0.0775420    -0.0074450
  C       -2.7669850    -1.2782450    -0.1740670
  C        2.4478010     1.1517920    -0.2896530
  C        2.6936640    -1.1417610     0.2510410
  C        3.2993530     0.0833730    -0.0301630
  H       -3.8759520     0.6750340     0.0629310
  H       -3.5116600    -2.0553930    -0.2887470
  H        2.8330150     2.1453150    -0.5142540
  H        3.2873230    -2.0271970     0.4738100
  H        4.3785670     0.1979470    -0.0409660
  C       -1.4969110     2.0704780     0.2948980
  H       -0.7998500     2.2172910     1.1191120
  H       -1.0792200     2.5269500    -0.6013110
  H       -2.4567070     2.5274350     0.5414280
units angstrom
no_reorient  #important for SAPT in psi4, default
symmetry c1  #important for SAPT in psi4, default
}

set PROPERTIES_ORIGIN ["COM"]
properties('MP2/aug-cc-pvtz', properties = ['dipole'])
--------------------------------------------------------------------------

    Molecular point group: c1
  Charge       = 0
  Multiplicity = 1
  Basis Set: AUG-CC-PVTZ
    Blend: AUG-CC-PVTZ
  Basis Set: (AUG-CC-PVTZ AUX)
    Blend: AUG-CC-PVTZ-JKFIT

    Orbital Energies [Eh]
    ---------------------

    Doubly Occupied:

       1A    -15.621463     2A    -15.582137     3A    -15.576469
       4A    -15.547612     5A    -11.331634     6A    -11.309913
       7A    -11.306932     8A    -11.303788     9A    -11.266110
      10A    -11.261859    11A    -11.253920    12A    -11.252156
      13A     -1.335893    14A     -1.304059    15A     -1.203995
      16A     -1.189666    17A     -1.089338    18A     -0.999655
      19A     -0.975667    20A     -0.900177    21A     -0.893917
      22A     -0.797965    23A     -0.784927    24A     -0.725939
      25A     -0.703545    26A     -0.682889    27A     -0.650768
      28A     -0.637332    29A     -0.617989    30A     -0.610596
      31A     -0.592266    32A     -0.580416    33A     -0.566961
      34A     -0.532525    35A     -0.528081    36A     -0.478135
      37A     -0.439328    38A     -0.424985    39A     -0.414042
      40A     -0.392361    41A     -0.373070    42A     -0.305153

  @DF-RHF Final Energy:  -525.52856827295886

   => Energetics <=

    Nuclear Repulsion Energy =            654.0080051194356656
    One-Electron Energy =               -2010.3818816945790786
    Two-Electron Energy =                 830.8453083021845487
    Total Energy =                       -525.5285682729588643
  Basis Set: (AUG-CC-PVTZ AUX)
    Blend: AUG-CC-PVTZ-RI
    Molecular point group: c1

    Geometry (in Angstrom), charge = 0, multiplicity = 1:

       Center              X                  Y                   Z               Mass
    ------------   -----------------  -----------------  -----------------  -----------------
         N           -1.635762678934     0.764003751717     0.100802808846    14.003074004430
         N           -1.452034878934    -1.534088648283    -0.181133691154    14.003074004430
         N            1.093847121066     1.051787351717    -0.289443691154    14.003074004430
         N            1.347607121066    -1.274505648283     0.280665308846    14.003074004430
         C           -0.838645878934    -0.353320648283    -0.022971691154    12.000000000000
         C            0.612785121066    -0.177832648283    -0.004266691154    12.000000000000
         C           -2.994896878934     0.108293351717    -0.003929691154    12.000000000000
         C           -2.784455878934    -1.247493648283    -0.170551691154    12.000000000000
         C            2.430330121066     1.182543351717    -0.286137691154    12.000000000000
         C            2.676193121066    -1.111009648283     0.254556308846    12.000000000000
         C            3.281882121066     0.114124351717    -0.026647691154    12.000000000000
         H           -3.893422878934     0.705785351717     0.066446308846     1.007825032230
         H           -3.529130878934    -2.024641648283    -0.285231691154     1.007825032230
         H            2.815544121066     2.176066351717    -0.510738691154     1.007825032230
         H            3.269852121066    -1.996445648283     0.477325308846     1.007825032230
         H            4.361096121066     0.228698351717    -0.037450691154     1.007825032230
         C           -1.514381878934     2.101229351717     0.298413308846    12.000000000000
         H           -0.817320878934     2.248042351717     1.122627308846     1.007825032230
         H           -1.096690878934     2.557701351717    -0.597795691154     1.007825032230
         H           -2.474177878934     2.558186351717     0.544943308846     1.007825032230

  Basis Set: AUG-CC-PVTZ
    Blend: AUG-CC-PVTZ
  Basis Set: (AUG-CC-PVTZ AUX)
    Blend: AUG-CC-PVTZ-JKFIT
	 Reference Energy          =    -525.5285682729588643 [Eh]
	 Singles Energy            =      -0.0000000000000000 [Eh]
	 Same-Spin Energy          =      -0.5788060258161014 [Eh]
	 Opposite-Spin Energy      =      -1.7417086140724711 [Eh]
	 Correlation Energy        =      -2.3205146398885725 [Eh]
	 Total Energy              =    -527.8490829128473933 [Eh]

	 ================> DF-SCS-MP2 Energies <==================
	-----------------------------------------------------------
	 SCS Same-Spin Scale       =       0.3333333333333333 [-]
	 SCS Opposite-Spin Scale   =       1.2000000000000000 [-]
	 SCS Same-Spin Energy      =      -0.1929353419387005 [Eh]
	 SCS Opposite-Spin Energy  =      -2.0900503368869652 [Eh]
	 SCS Correlation Energy    =      -2.2829856788256655 [Eh]
	 SCS Total Energy          =    -527.8115539517845036 [Eh]
	-----------------------------------------------------------

  Dipole Moment: [D]
     X:     1.3858      Y:     3.7542      Z:     0.4354     Total:     4.0254

*** Psi4 exiting successfully. Buy a developer a beer!
