                               Psi4 1.3.2 release

  ==> Input File <==

--------------------------------------------------------------------------
#psi4
#
memory 32 gb

molecule  {
0 1
  N       -1.7314010     0.6447010     0.0841650
  N       -1.4345640    -1.5648400    -0.1846490
  N        1.1113180     1.0210360    -0.2929590
  N        1.3650780    -1.3052570     0.2771500
  C       -0.8211750    -0.3840720    -0.0264870
  C        0.6302560    -0.2085840    -0.0077820
  C       -2.9774260     0.0775420    -0.0074450
  C       -2.7669850    -1.2782450    -0.1740670
  C        2.4478010     1.1517920    -0.2896530
  C        2.6936640    -1.1417610     0.2510410
  C        3.2993530     0.0833730    -0.0301630
  H       -3.7097647     0.5645246     0.0499146
  H       -3.5116600    -2.0553930    -0.2887470
  H        2.8330150     2.1453150    -0.5142540
  H        3.2873230    -2.0271970     0.4738100
  H        4.3785670     0.1979470    -0.0409660
  C       -1.4969110     2.0704780     0.2948980
  H       -0.7998500     2.2172910     1.1191120
  H       -1.0792200     2.5269500    -0.6013110
  H       -2.4567070     2.5274350     0.5414280
units angstrom
no_reorient  #important for SAPT in psi4, default
symmetry c1  #important for SAPT in psi4, default
}

set PROPERTIES_ORIGIN ["COM"]
properties('MP2/aug-cc-pvtz', properties = ['dipole'])
--------------------------------------------------------------------------

    Molecular point group: c1
  Charge       = 0
  Multiplicity = 1
  Basis Set: AUG-CC-PVTZ
    Blend: AUG-CC-PVTZ
  Basis Set: (AUG-CC-PVTZ AUX)
    Blend: AUG-CC-PVTZ-JKFIT

    Orbital Energies [Eh]
    ---------------------

    Doubly Occupied:

       1A    -15.624731     2A    -15.579983     3A    -15.574818
       4A    -15.545554     5A    -11.333188     6A    -11.305790
       7A    -11.302892     8A    -11.294912     9A    -11.273713
      10A    -11.251810    11A    -11.239976    12A    -11.236878
      13A     -1.344309    14A     -1.307978    15A     -1.197838
      16A     -1.177827    17A     -1.089454    18A     -1.017029
      19A     -0.968385    20A     -0.900867    21A     -0.899064
      22A     -0.819895    23A     -0.789373    24A     -0.728318
      25A     -0.705769    26A     -0.695983    27A     -0.652430
      28A     -0.645839    29A     -0.613734    30A     -0.592881
      31A     -0.591530    32A     -0.581482    33A     -0.569699
      34A     -0.556068    35A     -0.542926    36A     -0.481074
      37A     -0.436243    38A     -0.424154    39A     -0.412396
      40A     -0.396456    41A     -0.377268    42A     -0.298620

  @DF-RHF Final Energy:  -525.52187012353897

   => Energetics <=

    Nuclear Repulsion Energy =            655.3482352429624598
    One-Electron Energy =               -2012.9819450501772735
    Two-Electron Energy =                 832.1118396836759530
    Total Energy =                       -525.5218701235389744
  Basis Set: (AUG-CC-PVTZ AUX)
    Blend: AUG-CC-PVTZ-RI
    Molecular point group: c1

    Geometry (in Angstrom), charge = 0, multiplicity = 1:

       Center              X                  Y                   Z               Mass
    ------------   -----------------  -----------------  -----------------  -----------------
         N           -1.740023590976     0.683894437131     0.088910193087    14.003074004430
         N           -1.443186590976    -1.525646562869    -0.179903806913    14.003074004430
         N            1.102695409024     1.060229437131    -0.288213806913    14.003074004430
         N            1.356455409024    -1.266063562869     0.281895193087    14.003074004430
         C           -0.829797590976    -0.344878562869    -0.021741806913    12.000000000000
         C            0.621633409024    -0.169390562869    -0.003036806913    12.000000000000
         C           -2.986048590976     0.116735437131    -0.002699806913    12.000000000000
         C           -2.775607590976    -1.239051562869    -0.169321806913    12.000000000000
         C            2.439178409024     1.190985437131    -0.284907806913    12.000000000000
         C            2.685041409024    -1.102567562869     0.255786193087    12.000000000000
         C            3.290730409024     0.122566437131    -0.025417806913    12.000000000000
         H           -3.718387290976     0.603718037131     0.054659793087     1.007825032230
         H           -3.520282590976    -2.016199562869    -0.284001806913     1.007825032230
         H            2.824392409024     2.184508437131    -0.509508806913     1.007825032230
         H            3.278700409024    -1.988003562869     0.478555193087     1.007825032230
         H            4.369944409024     0.237140437131    -0.036220806913     1.007825032230
         C           -1.505533590976     2.109671437131     0.299643193087    12.000000000000
         H           -0.808472590976     2.256484437131     1.123857193087     1.007825032230
         H           -1.087842590976     2.566143437131    -0.596565806913     1.007825032230
         H           -2.465329590976     2.566628437131     0.546173193087     1.007825032230

  Basis Set: AUG-CC-PVTZ
    Blend: AUG-CC-PVTZ
  Basis Set: (AUG-CC-PVTZ AUX)
    Blend: AUG-CC-PVTZ-JKFIT
	 Reference Energy          =    -525.5218701235389744 [Eh]
	 Singles Energy            =      -0.0000000000000000 [Eh]
	 Same-Spin Energy          =      -0.5776515850592301 [Eh]
	 Opposite-Spin Energy      =      -1.7377073464050778 [Eh]
	 Correlation Energy        =      -2.3153589314643082 [Eh]
	 Total Energy              =    -527.8372290550032631 [Eh]

	 ================> DF-SCS-MP2 Energies <==================
	-----------------------------------------------------------
	 SCS Same-Spin Scale       =       0.3333333333333333 [-]
	 SCS Opposite-Spin Scale   =       1.2000000000000000 [-]
	 SCS Same-Spin Energy      =      -0.1925505283530767 [Eh]
	 SCS Opposite-Spin Energy  =      -2.0852488156860933 [Eh]
	 SCS Correlation Energy    =      -2.2777993440391699 [Eh]
	 SCS Total Energy          =    -527.7996694675781555 [Eh]
	-----------------------------------------------------------

  Dipole Moment: [D]
     X:     1.4103      Y:     4.1056      Z:     0.4802     Total:     4.3676

*** Psi4 exiting successfully. Buy a developer a beer!
