                               Psi4 1.3.2 release

  ==> Input File <==

--------------------------------------------------------------------------
#psi4
#
memory 32 gb

molecule  {
0 1
  N       -1.7314010     0.6447010     0.0841650
  N       -1.4345640    -1.5648400    -0.1846490
  N        1.1113180     1.0210360    -0.2929590
  N        1.3650780    -1.3052570     0.2771500
  C       -0.9341794    -0.4721356    -0.0432819
  C        0.6302560    -0.2085840    -0.0077820
  C       -2.9774260     0.0775420    -0.0074450
  C       -2.7669850    -1.2782450    -0.1740670
  C        2.4478010     1.1517920    -0.2896530
  C        2.6936640    -1.1417610     0.2510410
  C        3.2993530     0.0833730    -0.0301630
  H       -3.8759520     0.6750340     0.0629310
  H       -3.5116600    -2.0553930    -0.2887470
  H        2.8330150     2.1453150    -0.5142540
  H        3.2873230    -2.0271970     0.4738100
  H        4.3785670     0.1979470    -0.0409660
  C       -1.4969110     2.0704780     0.2948980
  H       -0.7998500     2.2172910     1.1191120
  H       -1.0792200     2.5269500    -0.6013110
  H       -2.4567070     2.5274350     0.5414280
units angstrom
no_reorient  #important for SAPT in psi4, default
symmetry c1  #important for SAPT in psi4, default
}

set PROPERTIES_ORIGIN ["COM"]
properties('MP2/aug-cc-pvtz', properties = ['dipole'])
--------------------------------------------------------------------------

    Molecular point group: c1
  Charge       = 0
  Multiplicity = 1
  Basis Set: AUG-CC-PVTZ
    Blend: AUG-CC-PVTZ
  Basis Set: (AUG-CC-PVTZ AUX)
    Blend: AUG-CC-PVTZ-JKFIT

    Orbital Energies [Eh]
    ---------------------

    Doubly Occupied:

       1A    -15.612507     2A    -15.580273     3A    -15.573649
       4A    -15.537142     5A    -11.334300     6A    -11.305564
       7A    -11.301901     8A    -11.294947     9A    -11.274466
      10A    -11.257896    11A    -11.251532    12A    -11.238200
      13A     -1.364477    14A     -1.307154    15A     -1.213691
      16A     -1.191854    17A     -1.079892    18A     -1.008624
      19A     -0.965054    20A     -0.896764    21A     -0.883729
      22A     -0.813692    23A     -0.773087    24A     -0.727799
      25A     -0.700677    26A     -0.685708    27A     -0.648586
      28A     -0.634246    29A     -0.606666    30A     -0.598049
      31A     -0.589831    32A     -0.577116    33A     -0.560733
      34A     -0.556848    35A     -0.547645    36A     -0.475199
      37A     -0.441902    38A     -0.423042    39A     -0.413032
      40A     -0.402015    41A     -0.380045    42A     -0.306267

  @DF-RHF Final Energy:  -525.53720511791460

   => Energetics <=

    Nuclear Repulsion Energy =            654.3881058640131414
    One-Electron Energy =               -2011.1790211976642695
    Two-Electron Energy =                 831.2537102157365325
    Total Energy =                       -525.5372051179145956
  Basis Set: (AUG-CC-PVTZ AUX)
    Blend: AUG-CC-PVTZ-RI
    Molecular point group: c1

    Geometry (in Angstrom), charge = 0, multiplicity = 1:

       Center              X                  Y                   Z               Mass
    ------------   -----------------  -----------------  -----------------  -----------------
         N           -1.730505917959     0.689800354188     0.090087270509    14.003074004430
         N           -1.433668917959    -1.519740645812    -0.178726729491    14.003074004430
         N            1.112213082041     1.066135354188    -0.287036729491    14.003074004430
         N            1.365973082041    -1.260157645812     0.283072270509    14.003074004430
         C           -0.933284317959    -0.427036245812    -0.037359629491    12.000000000000
         C            0.631151082041    -0.163484645812    -0.001859729491    12.000000000000
         C           -2.976530917959     0.122641354188    -0.001522729491    12.000000000000
         C           -2.766089917959    -1.233145645812    -0.168144729491    12.000000000000
         C            2.448696082041     1.196891354188    -0.283730729491    12.000000000000
         C            2.694559082041    -1.096661645812     0.256963270509    12.000000000000
         C            3.300248082041     0.128472354188    -0.024240729491    12.000000000000
         H           -3.875056917959     0.720133354188     0.068853270509     1.007825032230
         H           -3.510764917959    -2.010293645812    -0.282824729491     1.007825032230
         H            2.833910082041     2.190414354188    -0.508331729491     1.007825032230
         H            3.288218082041    -1.982097645812     0.479732270509     1.007825032230
         H            4.379462082041     0.243046354188    -0.035043729491     1.007825032230
         C           -1.496015917959     2.115577354188     0.300820270509    12.000000000000
         H           -0.798954917959     2.262390354188     1.125034270509     1.007825032230
         H           -1.078324917959     2.572049354188    -0.595388729491     1.007825032230
         H           -2.455811917959     2.572534354188     0.547350270509     1.007825032230

  Basis Set: AUG-CC-PVTZ
    Blend: AUG-CC-PVTZ
  Basis Set: (AUG-CC-PVTZ AUX)
    Blend: AUG-CC-PVTZ-JKFIT
	 Reference Energy          =    -525.5372051179145956 [Eh]
	 Singles Energy            =      -0.0000000000000000 [Eh]
	 Same-Spin Energy          =      -0.5742342534007252 [Eh]
	 Opposite-Spin Energy      =      -1.7329847114387733 [Eh]
	 Correlation Energy        =      -2.3072189648394987 [Eh]
	 Total Energy              =    -527.8444240827541307 [Eh]

	 ================> DF-SCS-MP2 Energies <==================
	-----------------------------------------------------------
	 SCS Same-Spin Scale       =       0.3333333333333333 [-]
	 SCS Opposite-Spin Scale   =       1.2000000000000000 [-]
	 SCS Same-Spin Energy      =      -0.1914114178002417 [Eh]
	 SCS Opposite-Spin Energy  =      -2.0795816537265277 [Eh]
	 SCS Correlation Energy    =      -2.2709930715267692 [Eh]
	 SCS Total Energy          =    -527.8081981894413275 [Eh]
	-----------------------------------------------------------

  Dipole Moment: [D]
     X:     1.6647      Y:     3.9492      Z:     0.4530     Total:     4.3096

*** Psi4 exiting successfully. Buy a developer a beer!
