                               Psi4 1.3.2 release

  ==> Input File <==

--------------------------------------------------------------------------
#psi4
#
memory 32 gb

molecule  {
0 1
  N       -1.7314010     0.6447010     0.0841650
  N       -1.4345640    -1.5648400    -0.1846490
  N        1.1113180     1.0210360    -0.2929590
  N        1.3650780    -1.3052570     0.2771500
  C       -0.8211750    -0.3840720    -0.0264870
  C        0.6302560    -0.2085840    -0.0077820
  C       -2.9774260     0.0775420    -0.0074450
  C       -2.7669850    -1.2782450    -0.1740670
  C        2.4478010     1.1517920    -0.2896530
  C        2.6936640    -1.1417610     0.2510410
  C        3.2993530     0.0833730    -0.0301630
  H       -3.7928583     0.6197793     0.0564228
  H       -3.5116600    -2.0553930    -0.2887470
  H        2.8330150     2.1453150    -0.5142540
  H        3.2873230    -2.0271970     0.4738100
  H        4.3785670     0.1979470    -0.0409660
  C       -1.4969110     2.0704780     0.2948980
  H       -0.7998500     2.2172910     1.1191120
  H       -1.0792200     2.5269500    -0.6013110
  H       -2.4567070     2.5274350     0.5414280
units angstrom
no_reorient  #important for SAPT in psi4, default
symmetry c1  #important for SAPT in psi4, default
}

set PROPERTIES_ORIGIN ["COM"]
properties('MP2/aug-cc-pvtz', properties = ['dipole'])
--------------------------------------------------------------------------

    Molecular point group: c1
  Charge       = 0
  Multiplicity = 1
  Basis Set: AUG-CC-PVTZ
    Blend: AUG-CC-PVTZ
  Basis Set: (AUG-CC-PVTZ AUX)
    Blend: AUG-CC-PVTZ-JKFIT

    Orbital Energies [Eh]
    ---------------------

    Doubly Occupied:

       1A    -15.625152     2A    -15.579951     3A    -15.574816
       4A    -15.545978     5A    -11.333242     6A    -11.305778
       7A    -11.302894     8A    -11.295081     9A    -11.273556
      10A    -11.251782    11A    -11.248519    12A    -11.239924
      13A     -1.344467    14A     -1.307969    15A     -1.197835
      16A     -1.177739    17A     -1.089082    18A     -1.011433
      19A     -0.968447    20A     -0.899261    21A     -0.896449
      22A     -0.808960    23A     -0.787489    24A     -0.727452
      25A     -0.703521    26A     -0.691001    27A     -0.646953
      28A     -0.645539    29A     -0.611032    30A     -0.592837
      31A     -0.589899    32A     -0.581006    33A     -0.569775
      34A     -0.556197    35A     -0.543039    36A     -0.481072
      37A     -0.436199    38A     -0.424155    39A     -0.412361
      40A     -0.396483    41A     -0.377518    42A     -0.298494

  @DF-RHF Final Energy:  -525.55189121520073

   => Energetics <=

    Nuclear Repulsion Energy =            654.6927042112552044
    One-Electron Energy =               -2011.7885213695101356
    Two-Electron Energy =                 831.5439259430542052
    Total Energy =                       -525.5518912152007260
  Basis Set: (AUG-CC-PVTZ AUX)
    Blend: AUG-CC-PVTZ-RI
    Molecular point group: c1

    Geometry (in Angstrom), charge = 0, multiplicity = 1:

       Center              X                  Y                   Z               Mass
    ------------   -----------------  -----------------  -----------------  -----------------
         N           -1.739500437052     0.683546555788     0.088869217725    14.003074004430
         N           -1.442663437052    -1.525994444212    -0.179944782275    14.003074004430
         N            1.103218562948     1.059881555788    -0.288254782275    14.003074004430
         N            1.356978562948    -1.266411444212     0.281854217725    14.003074004430
         C           -0.829274437052    -0.345226444212    -0.021782782275    12.000000000000
         C            0.622156562948    -0.169738444212    -0.003077782275    12.000000000000
         C           -2.985525437052     0.116387555788    -0.002740782275    12.000000000000
         C           -2.775084437052    -1.239399444212    -0.169362782275    12.000000000000
         C            2.439701562948     1.190637555788    -0.284948782275    12.000000000000
         C            2.685564562948    -1.102915444212     0.255745217725    12.000000000000
         C            3.291253562948     0.122218555788    -0.025458782275    12.000000000000
         H           -3.800957737052     0.658624855788     0.061127017725     1.007825032230
         H           -3.519759437052    -2.016547444212    -0.284042782275     1.007825032230
         H            2.824915562948     2.184160555788    -0.509549782275     1.007825032230
         H            3.279223562948    -1.988351444212     0.478514217725     1.007825032230
         H            4.370467562948     0.236792555788    -0.036261782275     1.007825032230
         C           -1.505010437052     2.109323555788     0.299602217725    12.000000000000
         H           -0.807949437052     2.256136555788     1.123816217725     1.007825032230
         H           -1.087319437052     2.565795555788    -0.596606782275     1.007825032230
         H           -2.464806437052     2.566280555788     0.546132217725     1.007825032230

  Basis Set: AUG-CC-PVTZ
    Blend: AUG-CC-PVTZ
  Basis Set: (AUG-CC-PVTZ AUX)
    Blend: AUG-CC-PVTZ-JKFIT
	 Reference Energy          =    -525.5518912152007260 [Eh]
	 Singles Energy            =      -0.0000000000000000 [Eh]
	 Same-Spin Energy          =      -0.5777510583008660 [Eh]
	 Opposite-Spin Energy      =      -1.7377751635309204 [Eh]
	 Correlation Energy        =      -2.3155262218317865 [Eh]
	 Total Energy              =    -527.8674174370324863 [Eh]

	 ================> DF-SCS-MP2 Energies <==================
	-----------------------------------------------------------
	 SCS Same-Spin Scale       =       0.3333333333333333 [-]
	 SCS Opposite-Spin Scale   =       1.2000000000000000 [-]
	 SCS Same-Spin Energy      =      -0.1925836861002887 [Eh]
	 SCS Opposite-Spin Energy  =      -2.0853301962371042 [Eh]
	 SCS Correlation Energy    =      -2.2779138823373928 [Eh]
	 SCS Total Energy          =    -527.8298050975381557 [Eh]
	-----------------------------------------------------------

  Dipole Moment: [D]
     X:     1.3956      Y:     4.1089      Z:     0.4801     Total:     4.3660

*** Psi4 exiting successfully. Buy a developer a beer!
