                               Psi4 1.3.2 release

  ==> Input File <==

--------------------------------------------------------------------------
#psi4
#
memory 32 gb

molecule  {
0 1
  N       -1.7314010     0.6447010     0.0841650
  N       -1.4345640    -1.5648400    -0.1846490
  N        1.1113180     1.0210360    -0.2929590
  N        1.3650780    -1.3052570     0.2771500
  C       -0.8211750    -0.3840720    -0.0264870
  C        0.6302560    -0.2085840    -0.0077820
  C       -2.9774260     0.0775420    -0.0074450
  C       -2.7669850    -1.2782450    -0.1740670
  C        2.6468500     1.1712661    -0.2891606
  C        2.6936640    -1.1417610     0.2510410
  C        3.2993530     0.0833730    -0.0301630
  H       -3.8759520     0.6750340     0.0629310
  H       -3.5116600    -2.0553930    -0.2887470
  H        2.8330150     2.1453150    -0.5142540
  H        3.2873230    -2.0271970     0.4738100
  H        4.3785670     0.1979470    -0.0409660
  C       -1.4969110     2.0704780     0.2948980
  H       -0.7998500     2.2172910     1.1191120
  H       -1.0792200     2.5269500    -0.6013110
  H       -2.4567070     2.5274350     0.5414280
units angstrom
no_reorient  #important for SAPT in psi4, default
symmetry c1  #important for SAPT in psi4, default
}

set PROPERTIES_ORIGIN ["COM"]
properties('MP2/aug-cc-pvtz', properties = ['dipole'])
--------------------------------------------------------------------------

    Molecular point group: c1
  Charge       = 0
  Multiplicity = 1
  Basis Set: AUG-CC-PVTZ
    Blend: AUG-CC-PVTZ
  Basis Set: (AUG-CC-PVTZ AUX)
    Blend: AUG-CC-PVTZ-JKFIT

    Orbital Energies [Eh]
    ---------------------

    Doubly Occupied:

       1A    -15.622535     2A    -15.582207     3A    -15.578899
       4A    -15.543945     5A    -11.327665     6A    -11.312998
       7A    -11.302713     8A    -11.293213     9A    -11.269792
      10A    -11.256999    11A    -11.250876    12A    -11.237743
      13A     -1.340516    14A     -1.292733    15A     -1.179471
      16A     -1.159787    17A     -1.107416    18A     -1.006410
      19A     -0.964683    20A     -0.917783    21A     -0.879201
      22A     -0.800604    23A     -0.786844    24A     -0.728567
      25A     -0.701085    26A     -0.687615    27A     -0.642735
      28A     -0.632744    29A     -0.619011    30A     -0.593614
      31A     -0.583179    32A     -0.573613    33A     -0.567935
      34A     -0.551254    35A     -0.539142    36A     -0.459171
      37A     -0.434739    38A     -0.417061    39A     -0.412900
      40A     -0.400682    41A     -0.377453    42A     -0.298826

  @DF-RHF Final Energy:  -525.51301759862110

   => Energetics <=

    Nuclear Repulsion Energy =            651.2128579878201435
    One-Electron Energy =               -2004.9790392678089574
    Two-Electron Energy =                 828.2531636813677096
    Total Energy =                       -525.5130175986211043
  Basis Set: (AUG-CC-PVTZ AUX)
    Blend: AUG-CC-PVTZ-RI
    Molecular point group: c1

    Geometry (in Angstrom), charge = 0, multiplicity = 1:

       Center              X                  Y                   Z               Mass
    ------------   -----------------  -----------------  -----------------  -----------------
         N           -1.753898972629     0.681738800315     0.088791329641    14.003074004430
         N           -1.457061972629    -1.527802199685    -0.180022670359    14.003074004430
         N            1.088820027371     1.058073800315    -0.288332670359    14.003074004430
         N            1.342580027371    -1.268219199685     0.281776329641    14.003074004430
         C           -0.843672972629    -0.347034199685    -0.021860670359    12.000000000000
         C            0.607758027371    -0.171546199685    -0.003155670359    12.000000000000
         C           -2.999923972629     0.114579800315    -0.002818670359    12.000000000000
         C           -2.789482972629    -1.241207199685    -0.169440670359    12.000000000000
         C            2.624352027371     1.208303900315    -0.284534270359    12.000000000000
         C            2.671166027371    -1.104723199685     0.255667329641    12.000000000000
         C            3.276855027371     0.120410800315    -0.025536670359    12.000000000000
         H           -3.898449972629     0.712071800315     0.067557329641     1.007825032230
         H           -3.534157972629    -2.018355199685    -0.284120670359     1.007825032230
         H            2.810517027371     2.182352800315    -0.509627670359     1.007825032230
         H            3.264825027371    -1.990159199685     0.478436329641     1.007825032230
         H            4.356069027371     0.234984800315    -0.036339670359     1.007825032230
         C           -1.519408972629     2.107515800315     0.299524329641    12.000000000000
         H           -0.822347972629     2.254328800315     1.123738329641     1.007825032230
         H           -1.101717972629     2.563987800315    -0.596684670359     1.007825032230
         H           -2.479204972629     2.564472800315     0.546054329641     1.007825032230

  Basis Set: AUG-CC-PVTZ
    Blend: AUG-CC-PVTZ
  Basis Set: (AUG-CC-PVTZ AUX)
    Blend: AUG-CC-PVTZ-JKFIT
	 Reference Energy          =    -525.5130175986211043 [Eh]
	 Singles Energy            =      -0.0000000000000000 [Eh]
	 Same-Spin Energy          =      -0.5788317250731752 [Eh]
	 Opposite-Spin Energy      =      -1.7443737565582214 [Eh]
	 Correlation Energy        =      -2.3232054816313967 [Eh]
	 Total Energy              =    -527.8362230802524664 [Eh]

	 ================> DF-SCS-MP2 Energies <==================
	-----------------------------------------------------------
	 SCS Same-Spin Scale       =       0.3333333333333333 [-]
	 SCS Opposite-Spin Scale   =       1.2000000000000000 [-]
	 SCS Same-Spin Energy      =      -0.1929439083577250 [Eh]
	 SCS Opposite-Spin Energy  =      -2.0932485078698657 [Eh]
	 SCS Correlation Energy    =      -2.2861924162275908 [Eh]
	 SCS Total Energy          =    -527.7992100148486543 [Eh]
	-----------------------------------------------------------

  Dipole Moment: [D]
     X:     1.6665      Y:     4.0609      Z:     0.4973     Total:     4.4177

*** Psi4 exiting successfully. Buy a developer a beer!
