                               Psi4 1.3.2 release

  ==> Input File <==

--------------------------------------------------------------------------
#psi4
#
memory 32 gb

molecule  {
0 1
  N       -1.7669461     0.6126275     0.0795139
  N       -1.4345640    -1.5648400    -0.1846490
  N        1.1113180     1.0210360    -0.2929590
  N        1.3650780    -1.3052570     0.2771500
  C       -0.8211750    -0.3840720    -0.0264870
  C        0.6302560    -0.2085840    -0.0077820
  C       -2.9774260     0.0775420    -0.0074450
  C       -2.7669850    -1.2782450    -0.1740670
  C        2.4478010     1.1517920    -0.2896530
  C        2.6936640    -1.1417610     0.2510410
  C        3.2993530     0.0833730    -0.0301630
  H       -3.8759520     0.6750340     0.0629310
  H       -3.5116600    -2.0553930    -0.2887470
  H        2.8330150     2.1453150    -0.5142540
  H        3.2873230    -2.0271970     0.4738100
  H        4.3785670     0.1979470    -0.0409660
  C       -1.4969110     2.0704780     0.2948980
  H       -0.7998500     2.2172910     1.1191120
  H       -1.0792200     2.5269500    -0.6013110
  H       -2.4567070     2.5274350     0.5414280
units angstrom
no_reorient  #important for SAPT in psi4, default
symmetry c1  #important for SAPT in psi4, default
}

set PROPERTIES_ORIGIN ["COM"]
properties('MP2/aug-cc-pvtz', properties = ['dipole'])
--------------------------------------------------------------------------

    Molecular point group: c1
  Charge       = 0
  Multiplicity = 1
  Basis Set: AUG-CC-PVTZ
    Blend: AUG-CC-PVTZ
  Basis Set: (AUG-CC-PVTZ AUX)
    Blend: AUG-CC-PVTZ-JKFIT

    Orbital Energies [Eh]
    ---------------------

    Doubly Occupied:

       1A    -15.627143     2A    -15.579028     3A    -15.574100
       4A    -15.546093     5A    -11.333848     6A    -11.305309
       7A    -11.302520     8A    -11.290753     9A    -11.277752
      10A    -11.257638    11A    -11.250868    12A    -11.236393
      13A     -1.351311    14A     -1.308977    15A     -1.196814
      16A     -1.174868    17A     -1.088733    18A     -1.011517
      19A     -0.965909    20A     -0.898781    21A     -0.893760
      22A     -0.805342    23A     -0.783519    24A     -0.727197
      25A     -0.702078    26A     -0.687601    27A     -0.646354
      28A     -0.641984    29A     -0.606435    30A     -0.591569
      31A     -0.582941    32A     -0.578020    33A     -0.570976
      34A     -0.556616    35A     -0.548124    36A     -0.481159
      37A     -0.435071    38A     -0.423823    39A     -0.411733
      40A     -0.399560    41A     -0.377799    42A     -0.295807

  @DF-RHF Final Energy:  -525.55549107232105

   => Energetics <=

    Nuclear Repulsion Energy =            654.2763609337720254
    One-Electron Energy =               -2011.0120643170973835
    Two-Electron Energy =                 831.1802123110044249
    Total Energy =                       -525.5554910723210469
  Basis Set: (AUG-CC-PVTZ AUX)
    Blend: AUG-CC-PVTZ-RI
    Molecular point group: c1

    Geometry (in Angstrom), charge = 0, multiplicity = 1:

       Center              X                  Y                   Z               Mass
    ------------   -----------------  -----------------  -----------------  -----------------
         N           -1.771412958864     0.653930908540     0.084584012515    14.003074004430
         N           -1.439030858864    -1.523536591460    -0.179578887485    14.003074004430
         N            1.106851141136     1.062339408540    -0.287888887485    14.003074004430
         N            1.360611141136    -1.263953591460     0.282220112515    14.003074004430
         C           -0.825641858864    -0.342768591460    -0.021416887485    12.000000000000
         C            0.625789141136    -0.167280591460    -0.002711887485    12.000000000000
         C           -2.981892858864     0.118845408540    -0.002374887485    12.000000000000
         C           -2.771451858864    -1.236941591460    -0.168996887485    12.000000000000
         C            2.443334141136     1.193095408540    -0.284582887485    12.000000000000
         C            2.689197141136    -1.100457591460     0.256111112515    12.000000000000
         C            3.294886141136     0.124676408540    -0.025092887485    12.000000000000
         H           -3.880418858864     0.716337408540     0.068001112515     1.007825032230
         H           -3.516126858864    -2.014089591460    -0.283676887485     1.007825032230
         H            2.828548141136     2.186618408540    -0.509183887485     1.007825032230
         H            3.282856141136    -1.985893591460     0.478880112515     1.007825032230
         H            4.374100141136     0.239250408540    -0.035895887485     1.007825032230
         C           -1.501377858864     2.111781408540     0.299968112515    12.000000000000
         H           -0.804316858864     2.258594408540     1.124182112515     1.007825032230
         H           -1.083686858864     2.568253408540    -0.596240887485     1.007825032230
         H           -2.461173858864     2.568738408540     0.546498112515     1.007825032230

  Basis Set: AUG-CC-PVTZ
    Blend: AUG-CC-PVTZ
  Basis Set: (AUG-CC-PVTZ AUX)
    Blend: AUG-CC-PVTZ-JKFIT
	 Reference Energy          =    -525.5554910723210469 [Eh]
	 Singles Energy            =      -0.0000000000000000 [Eh]
	 Same-Spin Energy          =      -0.5780387265684361 [Eh]
	 Opposite-Spin Energy      =      -1.7378786521515126 [Eh]
	 Correlation Energy        =      -2.3159173787199485 [Eh]
	 Total Energy              =    -527.8714084510410203 [Eh]

	 ================> DF-SCS-MP2 Energies <==================
	-----------------------------------------------------------
	 SCS Same-Spin Scale       =       0.3333333333333333 [-]
	 SCS Opposite-Spin Scale   =       1.2000000000000000 [-]
	 SCS Same-Spin Energy      =      -0.1926795755228120 [Eh]
	 SCS Opposite-Spin Energy  =      -2.0854543825818150 [Eh]
	 SCS Correlation Energy    =      -2.2781339581046272 [Eh]
	 SCS Total Energy          =    -527.8336250304256509 [Eh]
	-----------------------------------------------------------

  Dipole Moment: [D]
     X:     1.3749      Y:     4.2388      Z:     0.4959     Total:     4.4837

*** Psi4 exiting successfully. Buy a developer a beer!
