                               Psi4 1.4a3.dev225

  ==> Input File <==

--------------------------------------------------------------------------
#psi4
#
memory 32 gb

molecule  {
0 1
  N       -1.7314010     0.6447010     0.0841650
  N       -1.4345640    -1.5648400    -0.1846490
  N        1.1113180     1.0210360    -0.2929590
  N        1.3650780    -1.3052570     0.2771500
  C       -0.8211750    -0.3840720    -0.0264870
  C        0.6302560    -0.2085840    -0.0077820
  C       -2.9774260     0.0775420    -0.0074450
  C       -2.7669850    -1.2782450    -0.1740670
  C        2.4478010     1.1517920    -0.2896530
  C        2.6936640    -1.1417610     0.2510410
  C        3.2993530     0.0833730    -0.0301630
  H       -3.8759520     0.6750340     0.0629310
  H       -3.4979007    -2.0410337    -0.2866281
  H        2.8330150     2.1453150    -0.5142540
  H        3.2873230    -2.0271970     0.4738100
  H        4.3785670     0.1979470    -0.0409660
  C       -1.4969110     2.0704780     0.2948980
  H       -0.7998500     2.2172910     1.1191120
  H       -1.0792200     2.5269500    -0.6013110
  H       -2.4567070     2.5274350     0.5414280
units angstrom
no_reorient  #important for SAPT in psi4, default
symmetry c1  #important for SAPT in psi4, default
}

set PROPERTIES_ORIGIN ["COM"]
properties('MP2/aug-cc-pvtz', properties = ['dipole'])
--------------------------------------------------------------------------

    Molecular point group: c1
  Charge       = 0
  Multiplicity = 1
  Basis Set: AUG-CC-PVTZ
    Blend: AUG-CC-PVTZ
  Basis Set: (AUG-CC-PVTZ AUX)
    Blend: AUG-CC-PVTZ-JKFIT

    Orbital Energies [Eh]
    ---------------------

    Doubly Occupied:

       1A    -15.625719     2A    -15.579939     3A    -15.574844
       4A    -15.546360     5A    -11.333316     6A    -11.305783
       7A    -11.302917     8A    -11.295281     9A    -11.273333
      10A    -11.259794    11A    -11.251779    12A    -11.238078
      13A     -1.344699    14A     -1.308003    15A     -1.197867
      16A     -1.177810    17A     -1.088918    18A     -1.008092
      19A     -0.968662    20A     -0.899304    21A     -0.894162
      22A     -0.804033    23A     -0.784390    24A     -0.727476
      25A     -0.702807    26A     -0.686144    27A     -0.646176
      28A     -0.639755    29A     -0.608146    30A     -0.593301
      31A     -0.586895    32A     -0.579356    33A     -0.570119
      34A     -0.558287    35A     -0.543162    36A     -0.481096
      37A     -0.436239    38A     -0.424174    39A     -0.412353
      40A     -0.396553    41A     -0.377778    42A     -0.298509

  @DF-RHF Final Energy:  -525.55808609434405

   => Energetics <=

    Nuclear Repulsion Energy =            654.2277897174996042
    One-Electron Energy =               -2010.9089231600589756
    Two-Electron Energy =                 831.1230473482152092
    Total Energy =                       -525.5580860943440484
  Basis Set: (AUG-CC-PVTZ AUX)
    Blend: AUG-CC-PVTZ-RI
    Molecular point group: c1

    Geometry (in Angstrom), charge = 0, multiplicity = 1:

       Center              X                  Y                   Z               Mass
    ------------   -----------------  -----------------  -----------------  -----------------
         N           -1.739063910491     0.683108268877     0.088814901854    14.003074004430
         N           -1.442226910491    -1.526432731123    -0.179999098146    14.003074004430
         N            1.103655089509     1.059443268877    -0.288309098146    14.003074004430
         N            1.357415089509    -1.266849731123     0.281799901854    14.003074004430
         C           -0.828837910491    -0.345664731123    -0.021837098146    12.000000000000
         C            0.622593089509    -0.170176731123    -0.003132098146    12.000000000000
         C           -2.985088910491     0.115949268877    -0.002795098146    12.000000000000
         C           -2.774647910491    -1.239837731123    -0.169417098146    12.000000000000
         C            2.440138089509     1.190199268877    -0.285003098146    12.000000000000
         C            2.686001089509    -1.103353731123     0.255690901854    12.000000000000
         C            3.291690089509     0.121780268877    -0.025513098146    12.000000000000
         H           -3.883614910491     0.713441268877     0.067580901854     1.007825032230
         H           -3.505563610491    -2.002626431123    -0.281978198146     1.007825032230
         H            2.825352089509     2.183722268877    -0.509604098146     1.007825032230
         H            3.279660089509    -1.988789731123     0.478459901854     1.007825032230
         H            4.370904089509     0.236354268877    -0.036316098146     1.007825032230
         C           -1.504573910491     2.108885268877     0.299547901854    12.000000000000
         H           -0.807512910491     2.255698268877     1.123761901854     1.007825032230
         H           -1.086882910491     2.565357268877    -0.596661098146     1.007825032230
         H           -2.464369910491     2.565842268877     0.546077901854     1.007825032230

  Basis Set: AUG-CC-PVTZ
    Blend: AUG-CC-PVTZ
  Basis Set: (AUG-CC-PVTZ AUX)
    Blend: AUG-CC-PVTZ-JKFIT
	 Reference Energy          =    -525.5580860943440484 [Eh]
	 Singles Energy            =      -0.0000000000000000 [Eh]
	 Same-Spin Energy          =      -0.5779308861620684 [Eh]
	 Opposite-Spin Energy      =      -1.7381964824934775 [Eh]
	 Correlation Energy        =      -2.3161273686555459 [Eh]
	 Total Energy              =    -527.8742134629995917 [Eh]

	 ================> DF-SCS-MP2 Energies <==================
	-----------------------------------------------------------
	 SCS Same-Spin Scale       =       0.3333333333333333 [-]
	 SCS Opposite-Spin Scale   =       1.2000000000000000 [-]
	 SCS Same-Spin Energy      =      -0.1926436287206895 [Eh]
	 SCS Opposite-Spin Energy  =      -2.0858357789921729 [Eh]
	 SCS Correlation Energy    =      -2.2784794077128625 [Eh]
	 SCS Total Energy          =    -527.8365655020569420 [Eh]
	-----------------------------------------------------------

  Dipole Moment: [D]
     X:     1.3866      Y:     4.1078      Z:     0.4796     Total:     4.3620

*** Psi4 exiting successfully. Buy a developer a beer!
