                               Psi4 1.3.2 release

  ==> Input File <==

--------------------------------------------------------------------------
#psi4
#
memory 32 gb

molecule  {
0 1
  N       -1.7314010     0.6447010     0.0841650
  N       -1.4345640    -1.5648400    -0.1846490
  N        1.1113180     1.0210360    -0.2929590
  N        1.3650780    -1.3052570     0.2771500
  C       -0.7512341    -0.3186908    -0.0172170
  C        0.6302560    -0.2085840    -0.0077820
  C       -2.9774260     0.0775420    -0.0074450
  C       -2.7669850    -1.2782450    -0.1740670
  C        2.4478010     1.1517920    -0.2896530
  C        2.6936640    -1.1417610     0.2510410
  C        3.2993530     0.0833730    -0.0301630
  H       -3.8759520     0.6750340     0.0629310
  H       -3.5116600    -2.0553930    -0.2887470
  H        2.8330150     2.1453150    -0.5142540
  H        3.2873230    -2.0271970     0.4738100
  H        4.3785670     0.1979470    -0.0409660
  C       -1.4969110     2.0704780     0.2948980
  H       -0.7998500     2.2172910     1.1191120
  H       -1.0792200     2.5269500    -0.6013110
  H       -2.4567070     2.5274350     0.5414280
units angstrom
no_reorient  #important for SAPT in psi4, default
symmetry c1  #important for SAPT in psi4, default
}

set PROPERTIES_ORIGIN ["COM"]
properties('MP2/aug-cc-pvtz', properties = ['dipole'])
--------------------------------------------------------------------------

    Molecular point group: c1
  Charge       = 0
  Multiplicity = 1
  Basis Set: AUG-CC-PVTZ
    Blend: AUG-CC-PVTZ
  Basis Set: (AUG-CC-PVTZ AUX)
    Blend: AUG-CC-PVTZ-JKFIT

    Orbital Energies [Eh]
    ---------------------

    Doubly Occupied:

       1A    -15.636531     2A    -15.577035     3A    -15.573360
       4A    -15.553374     5A    -11.327861     6A    -11.304038
       7A    -11.301959     8A    -11.295437     9A    -11.273389
      10A    -11.264524    11A    -11.249701    12A    -11.244669
      13A     -1.340392    14A     -1.306815    15A     -1.195596
      16A     -1.163324    17A     -1.095722    18A     -1.009687
      19A     -0.970000    20A     -0.901605    21A     -0.898682
      22A     -0.798760    23A     -0.788717    24A     -0.726888
      25A     -0.702388    26A     -0.685242    27A     -0.647371
      28A     -0.645492    29A     -0.607371    30A     -0.593282
      31A     -0.585437    32A     -0.584868    33A     -0.567901
      34A     -0.554628    35A     -0.537550    36A     -0.483637
      37A     -0.429101    38A     -0.423167    39A     -0.409113
      40A     -0.398490    41A     -0.375845    42A     -0.291286

  @DF-RHF Final Energy:  -525.53705484421812

   => Energetics <=

    Nuclear Repulsion Energy =            654.1966170939275571
    One-Electron Energy =               -2010.8268752287351617
    Two-Electron Energy =                 831.0932032905895994
    Total Energy =                       -525.5370548442181189
  Basis Set: (AUG-CC-PVTZ AUX)
    Blend: AUG-CC-PVTZ-RI
    Molecular point group: c1

    Geometry (in Angstrom), charge = 0, multiplicity = 1:

       Center              X                  Y                   Z               Mass
    ------------   -----------------  -----------------  -----------------  -----------------
         N           -1.744220395688     0.678297378751     0.088133317658    14.003074004430
         N           -1.447383395688    -1.531243621249    -0.180680682342    14.003074004430
         N            1.098498604312     1.054632378751    -0.288990682342    14.003074004430
         N            1.352258604312    -1.271660621249     0.281118317658    14.003074004430
         C           -0.764053495688    -0.285094421249    -0.013248682342    12.000000000000
         C            0.617436604312    -0.174987621249    -0.003813682342    12.000000000000
         C           -2.990245395688     0.111138378751    -0.003476682342    12.000000000000
         C           -2.779804395688    -1.244648621249    -0.170098682342    12.000000000000
         C            2.434981604312     1.185388378751    -0.285684682342    12.000000000000
         C            2.680844604312    -1.108164621249     0.255009317658    12.000000000000
         C            3.286533604312     0.116969378751    -0.026194682342    12.000000000000
         H           -3.888771395688     0.708630378751     0.066899317658     1.007825032230
         H           -3.524479395688    -2.021796621249    -0.284778682342     1.007825032230
         H            2.820195604312     2.178911378751    -0.510285682342     1.007825032230
         H            3.274503604312    -1.993600621249     0.477778317658     1.007825032230
         H            4.365747604312     0.231543378751    -0.036997682342     1.007825032230
         C           -1.509730395688     2.104074378751     0.298866317658    12.000000000000
         H           -0.812669395688     2.250887378751     1.123080317658     1.007825032230
         H           -1.092039395688     2.560546378751    -0.597342682342     1.007825032230
         H           -2.469526395688     2.561031378751     0.545396317658     1.007825032230

  Basis Set: AUG-CC-PVTZ
    Blend: AUG-CC-PVTZ
  Basis Set: (AUG-CC-PVTZ AUX)
    Blend: AUG-CC-PVTZ-JKFIT
	 Reference Energy          =    -525.5370548442181189 [Eh]
	 Singles Energy            =      -0.0000000000000000 [Eh]
	 Same-Spin Energy          =      -0.5814401265908913 [Eh]
	 Opposite-Spin Energy      =      -1.7442147298037063 [Eh]
	 Correlation Energy        =      -2.3256548563945976 [Eh]
	 Total Energy              =    -527.8627097006127542 [Eh]

	 ================> DF-SCS-MP2 Energies <==================
	-----------------------------------------------------------
	 SCS Same-Spin Scale       =       0.3333333333333333 [-]
	 SCS Opposite-Spin Scale   =       1.2000000000000000 [-]
	 SCS Same-Spin Energy      =      -0.1938133755302971 [Eh]
	 SCS Opposite-Spin Energy  =      -2.0930576757644475 [Eh]
	 SCS Correlation Energy    =      -2.2868710512947446 [Eh]
	 SCS Total Energy          =    -527.8239258955128435 [Eh]
	-----------------------------------------------------------

  Dipole Moment: [D]
     X:     1.0538      Y:     4.1524      Z:     0.4874     Total:     4.3117

*** Psi4 exiting successfully. Buy a developer a beer!
