                               Psi4 1.4a3.dev225

  ==> Input File <==

--------------------------------------------------------------------------
#psi4
#
memory 32 gb

molecule  {
0 1
  N       -1.7314010     0.6447010     0.0841650
  N       -1.4345640    -1.5648400    -0.1846490
  N        1.1113180     1.0210360    -0.2929590
  N        1.3650780    -1.3052570     0.2771500
  C       -0.8211750    -0.3840720    -0.0264870
  C        0.6302560    -0.2085840    -0.0077820
  C       -2.9774260     0.0775420    -0.0074450
  C       -2.7181045    -1.2887589    -0.1744552
  C        2.4478010     1.1517920    -0.2896530
  C        2.6936640    -1.1417610     0.2510410
  C        3.2993530     0.0833730    -0.0301630
  H       -3.8759520     0.6750340     0.0629310
  H       -3.5116600    -2.0553930    -0.2887470
  H        2.8330150     2.1453150    -0.5142540
  H        3.2873230    -2.0271970     0.4738100
  H        4.3785670     0.1979470    -0.0409660
  C       -1.4969110     2.0704780     0.2948980
  H       -0.7998500     2.2172910     1.1191120
  H       -1.0792200     2.5269500    -0.6013110
  H       -2.4567070     2.5274350     0.5414280
units angstrom
no_reorient  #important for SAPT in psi4, default
symmetry c1  #important for SAPT in psi4, default
}

set PROPERTIES_ORIGIN ["COM"]
properties('MP2/aug-cc-pvtz', properties = ['dipole'])
--------------------------------------------------------------------------

    Molecular point group: c1
  Charge       = 0
  Multiplicity = 1
  Basis Set: AUG-CC-PVTZ
    Blend: AUG-CC-PVTZ
  Basis Set: (AUG-CC-PVTZ AUX)
    Blend: AUG-CC-PVTZ-JKFIT

    Orbital Energies [Eh]
    ---------------------

    Doubly Occupied:

       1A    -15.630002     2A    -15.578742     3A    -15.573766
       4A    -15.544943     5A    -11.332554     6A    -11.305140
       7A    -11.302301     8A    -11.293999     9A    -11.274340
      10A    -11.259827    11A    -11.250639    12A    -11.241830
      13A     -1.350071    14A     -1.308073    15A     -1.200236
      16A     -1.187053    17A     -1.088295    18A     -1.004841
      19A     -0.972810    20A     -0.898573    21A     -0.891253
      22A     -0.801039    23A     -0.785552    24A     -0.729563
      25A     -0.701717    26A     -0.685126    27A     -0.647660
      28A     -0.639630    29A     -0.608798    30A     -0.591419
      31A     -0.588694    32A     -0.579591    33A     -0.570271
      34A     -0.553520    35A     -0.546659    36A     -0.480383
      37A     -0.436499    38A     -0.423674    39A     -0.411872
      40A     -0.396845    41A     -0.385381    42A     -0.292616

  @DF-RHF Final Energy:  -525.55468521218449

   => Energetics <=

    Nuclear Repulsion Energy =            654.9615133509611269
    One-Electron Energy =               -2012.3408029555434950
    Two-Electron Energy =                 831.8246043923979869
    Total Energy =                       -525.5546852121844950
  Basis Set: (AUG-CC-PVTZ AUX)
    Blend: AUG-CC-PVTZ-RI
    Molecular point group: c1

    Geometry (in Angstrom), charge = 0, multiplicity = 1:

       Center              X                  Y                   Z               Mass
    ------------   -----------------  -----------------  -----------------  -----------------
         N           -1.742641604723     0.683986848000     0.088857343740    14.003074004430
         N           -1.445804604723    -1.525554152000    -0.179956656260    14.003074004430
         N            1.100077395277     1.060321848000    -0.288266656260    14.003074004430
         N            1.353837395277    -1.265971152000     0.281842343740    14.003074004430
         C           -0.832415604723    -0.344786152000    -0.021794656260    12.000000000000
         C            0.619015395277    -0.169298152000    -0.003089656260    12.000000000000
         C           -2.988666604723     0.116827848000    -0.002752656260    12.000000000000
         C           -2.729345104723    -1.249473052000    -0.169762856260    12.000000000000
         C            2.436560395277     1.191077848000    -0.284960656260    12.000000000000
         C            2.682423395277    -1.102475152000     0.255733343740    12.000000000000
         C            3.288112395277     0.122658848000    -0.025470656260    12.000000000000
         H           -3.887192604723     0.714319848000     0.067623343740     1.007825032230
         H           -3.522900604723    -2.016107152000    -0.284054656260     1.007825032230
         H            2.821774395277     2.184600848000    -0.509561656260     1.007825032230
         H            3.276082395277    -1.987911152000     0.478502343740     1.007825032230
         H            4.367326395277     0.237232848000    -0.036273656260     1.007825032230
         C           -1.508151604723     2.109763848000     0.299590343740    12.000000000000
         H           -0.811090604723     2.256576848000     1.123804343740     1.007825032230
         H           -1.090460604723     2.566235848000    -0.596618656260     1.007825032230
         H           -2.467947604723     2.566720848000     0.546120343740     1.007825032230

  Basis Set: AUG-CC-PVTZ
    Blend: AUG-CC-PVTZ
  Basis Set: (AUG-CC-PVTZ AUX)
    Blend: AUG-CC-PVTZ-JKFIT
	 Reference Energy          =    -525.5546852121844950 [Eh]
	 Singles Energy            =      -0.0000000000000000 [Eh]
	 Same-Spin Energy          =      -0.5785980665732181 [Eh]
	 Opposite-Spin Energy      =      -1.7384111111008058 [Eh]
	 Correlation Energy        =      -2.3170091776740240 [Eh]
	 Total Energy              =    -527.8716943898584759 [Eh]

	 ================> DF-SCS-MP2 Energies <==================
	-----------------------------------------------------------
	 SCS Same-Spin Scale       =       0.3333333333333333 [-]
	 SCS Opposite-Spin Scale   =       1.2000000000000000 [-]
	 SCS Same-Spin Energy      =      -0.1928660221910727 [Eh]
	 SCS Opposite-Spin Energy  =      -2.0860933333209668 [Eh]
	 SCS Correlation Energy    =      -2.2789593555120393 [Eh]
	 SCS Total Energy          =    -527.8336445676965241 [Eh]
	-----------------------------------------------------------

  Dipole Moment: [D]
     X:     1.3295      Y:     4.1019      Z:     0.4783     Total:     4.3384

*** Psi4 exiting successfully. Buy a developer a beer!
