                               Psi4 1.3.2 release

  ==> Input File <==

--------------------------------------------------------------------------
#psi4
#
memory 32 gb

molecule  {
0 1
  N       -1.7215681     0.6230483     0.0813460
  N       -1.4345640    -1.5648400    -0.1846490
  N        1.1113180     1.0210360    -0.2929590
  N        1.3650780    -1.3052570     0.2771500
  C       -0.8211750    -0.3840720    -0.0264870
  C        0.6302560    -0.2085840    -0.0077820
  C       -2.9774260     0.0775420    -0.0074450
  C       -2.7669850    -1.2782450    -0.1740670
  C        2.4478010     1.1517920    -0.2896530
  C        2.6936640    -1.1417610     0.2510410
  C        3.2993530     0.0833730    -0.0301630
  H       -3.8759520     0.6750340     0.0629310
  H       -3.5116600    -2.0553930    -0.2887470
  H        2.8330150     2.1453150    -0.5142540
  H        3.2873230    -2.0271970     0.4738100
  H        4.3785670     0.1979470    -0.0409660
  C       -1.4969110     2.0704780     0.2948980
  H       -0.7998500     2.2172910     1.1191120
  H       -1.0792200     2.5269500    -0.6013110
  H       -2.4567070     2.5274350     0.5414280
units angstrom
no_reorient  #important for SAPT in psi4, default
symmetry c1  #important for SAPT in psi4, default
}

set PROPERTIES_ORIGIN ["COM"]
properties('MP2/aug-cc-pvtz', properties = ['dipole'])
--------------------------------------------------------------------------

    Molecular point group: c1
  Charge       = 0
  Multiplicity = 1
  Basis Set: AUG-CC-PVTZ
    Blend: AUG-CC-PVTZ
  Basis Set: (AUG-CC-PVTZ AUX)
    Blend: AUG-CC-PVTZ-JKFIT

    Orbital Energies [Eh]
    ---------------------

    Doubly Occupied:

       1A    -15.625891     2A    -15.580258     3A    -15.575063
       4A    -15.543221     5A    -11.333441     6A    -11.305994
       7A    -11.303061     8A    -11.293131     9A    -11.275575
      10A    -11.257891    11A    -11.252042    12A    -11.239857
      13A     -1.348240    14A     -1.308581    15A     -1.197697
      16A     -1.174092    17A     -1.089257    18A     -1.008278
      19A     -0.968859    20A     -0.899419    21A     -0.895002
      22A     -0.803369    23A     -0.783827    24A     -0.726456
      25A     -0.702814    26A     -0.686057    27A     -0.646320
      28A     -0.640055    29A     -0.607146    30A     -0.592109
      31A     -0.586482    32A     -0.581005    33A     -0.568794
      34A     -0.555193    35A     -0.545423    36A     -0.481560
      37A     -0.434504    38A     -0.424303    39A     -0.412163
      40A     -0.395813    41A     -0.377747    42A     -0.299424

  @DF-RHF Final Energy:  -525.55801844161840

   => Energetics <=

    Nuclear Repulsion Energy =            654.4819814228523001
    One-Electron Energy =               -2011.4291697878315972
    Two-Electron Energy =                 831.3891699233610098
    Total Energy =                       -525.5580184416184011
  Basis Set: (AUG-CC-PVTZ AUX)
    Blend: AUG-CC-PVTZ-RI
    Molecular point group: c1

    Geometry (in Angstrom), charge = 0, multiplicity = 1:

       Center              X                  Y                   Z               Mass
    ------------   -----------------  -----------------  -----------------  -----------------
         N           -1.730004547518     0.663440115048     0.086255843588    14.003074004430
         N           -1.443000447518    -1.524448184952    -0.179739156412    14.003074004430
         N            1.102881552482     1.061427815048    -0.288049156412    14.003074004430
         N            1.356641552482    -1.264865184952     0.282059843588    14.003074004430
         C           -0.829611447518    -0.343680184952    -0.021577156412    12.000000000000
         C            0.621819552482    -0.168192184952    -0.002872156412    12.000000000000
         C           -2.985862447518     0.117933815048    -0.002535156412    12.000000000000
         C           -2.775421447518    -1.237853184952    -0.169157156412    12.000000000000
         C            2.439364552482     1.192183815048    -0.284743156412    12.000000000000
         C            2.685227552482    -1.101369184952     0.255950843588    12.000000000000
         C            3.290916552482     0.123764815048    -0.025253156412    12.000000000000
         H           -3.884388447518     0.715425815048     0.067840843588     1.007825032230
         H           -3.520096447518    -2.015001184952    -0.283837156412     1.007825032230
         H            2.824578552482     2.185706815048    -0.509344156412     1.007825032230
         H            3.278886552482    -1.986805184952     0.478719843588     1.007825032230
         H            4.370130552482     0.238338815048    -0.036056156412     1.007825032230
         C           -1.505347447518     2.110869815048     0.299807843588    12.000000000000
         H           -0.808286447518     2.257682815048     1.124021843588     1.007825032230
         H           -1.087656447518     2.567341815048    -0.596401156412     1.007825032230
         H           -2.465143447518     2.567826815048     0.546337843588     1.007825032230

  Basis Set: AUG-CC-PVTZ
    Blend: AUG-CC-PVTZ
  Basis Set: (AUG-CC-PVTZ AUX)
    Blend: AUG-CC-PVTZ-JKFIT
	 Reference Energy          =    -525.5580184416184011 [Eh]
	 Singles Energy            =      -0.0000000000000000 [Eh]
	 Same-Spin Energy          =      -0.5777838269490492 [Eh]
	 Opposite-Spin Energy      =      -1.7379458875970824 [Eh]
	 Correlation Energy        =      -2.3157297145461317 [Eh]
	 Total Energy              =    -527.8737481561645382 [Eh]

	 ================> DF-SCS-MP2 Energies <==================
	-----------------------------------------------------------
	 SCS Same-Spin Scale       =       0.3333333333333333 [-]
	 SCS Opposite-Spin Scale   =       1.2000000000000000 [-]
	 SCS Same-Spin Energy      =      -0.1925946089830164 [Eh]
	 SCS Opposite-Spin Energy  =      -2.0855350651164986 [Eh]
	 SCS Correlation Energy    =      -2.2781296740995147 [Eh]
	 SCS Total Energy          =    -527.8361481157179469 [Eh]
	-----------------------------------------------------------

  Dipole Moment: [D]
     X:     1.4066      Y:     4.1735      Z:     0.4890     Total:     4.4313

*** Psi4 exiting successfully. Buy a developer a beer!
