                               Psi4 1.4a3.dev225

  ==> Input File <==

--------------------------------------------------------------------------
#psi4
#
memory 32 gb

molecule  {
0 1
  N       -1.7314010     0.6447010     0.0841650
  N       -1.4345640    -1.5648400    -0.1846490
  N        1.1113180     1.0210360    -0.2929590
  N        1.3650780    -1.3052570     0.2771500
  C       -0.8211750    -0.3840720    -0.0264870
  C        0.6302560    -0.2085840    -0.0077820
  C       -3.0228320     0.0568743    -0.0107833
  C       -2.7669850    -1.2782450    -0.1740670
  C        2.4478010     1.1517920    -0.2896530
  C        2.6936640    -1.1417610     0.2510410
  C        3.2993530     0.0833730    -0.0301630
  H       -3.8759520     0.6750340     0.0629310
  H       -3.5116600    -2.0553930    -0.2887470
  H        2.8330150     2.1453150    -0.5142540
  H        3.2873230    -2.0271970     0.4738100
  H        4.3785670     0.1979470    -0.0409660
  C       -1.4969110     2.0704780     0.2948980
  H       -0.7998500     2.2172910     1.1191120
  H       -1.0792200     2.5269500    -0.6013110
  H       -2.4567070     2.5274350     0.5414280
units angstrom
no_reorient  #important for SAPT in psi4, default
symmetry c1  #important for SAPT in psi4, default
}

set PROPERTIES_ORIGIN ["COM"]
properties('MP2/aug-cc-pvtz', properties = ['dipole'])
--------------------------------------------------------------------------

    Molecular point group: c1
  Charge       = 0
  Multiplicity = 1
  Basis Set: AUG-CC-PVTZ
    Blend: AUG-CC-PVTZ
  Basis Set: (AUG-CC-PVTZ AUX)
    Blend: AUG-CC-PVTZ-JKFIT

    Orbital Energies [Eh]
    ---------------------

    Doubly Occupied:

       1A    -15.621963     2A    -15.581753     3A    -15.576811
       4A    -15.544619     5A    -11.334563     6A    -11.306868
       7A    -11.304090     8A    -11.299350     9A    -11.270727
      10A    -11.258617    11A    -11.253604    12A    -11.241969
      13A     -1.337128    14A     -1.306721    15A     -1.198795
      16A     -1.173020    17A     -1.090002    18A     -1.008633
      19A     -0.964670    20A     -0.900348    21A     -0.896531
      22A     -0.799829    23A     -0.785934    24A     -0.723858
      25A     -0.704324    26A     -0.685969    27A     -0.641291
      28A     -0.639898    29A     -0.610250    30A     -0.592119
      31A     -0.590906    32A     -0.581076    33A     -0.568770
      34A     -0.548058    35A     -0.540371    36A     -0.482125
      37A     -0.436658    38A     -0.425176    39A     -0.413564
      40A     -0.395352    41A     -0.375133    42A     -0.303631

  @DF-RHF Final Energy:  -525.55466514236798

   => Energetics <=

    Nuclear Repulsion Energy =            653.1255188943766825
    One-Electron Energy =               -2008.7302221591605758
    Two-Electron Energy =                 830.0500381224159128
    Total Energy =                       -525.5546651423679805
  Basis Set: (AUG-CC-PVTZ AUX)
    Blend: AUG-CC-PVTZ-RI
    Molecular point group: c1

    Geometry (in Angstrom), charge = 0, multiplicity = 1:

       Center              X                  Y                   Z               Mass
    ------------   -----------------  -----------------  -----------------  -----------------
         N           -1.735573425849     0.684748026691     0.089078497718    14.003074004430
         N           -1.438736425849    -1.524792973309    -0.179735502282    14.003074004430
         N            1.107145574151     1.061083026691    -0.288045502282    14.003074004430
         N            1.360905574151    -1.265209973309     0.282063497718    14.003074004430
         C           -0.825347425849    -0.344024973309    -0.021573502282    12.000000000000
         C            0.626083574151    -0.168536973309    -0.002868502282    12.000000000000
         C           -3.027004425849     0.096921326691    -0.005869802282    12.000000000000
         C           -2.771157425849    -1.238197973309    -0.169153502282    12.000000000000
         C            2.443628574151     1.191839026691    -0.284739502282    12.000000000000
         C            2.689491574151    -1.101713973309     0.255954497718    12.000000000000
         C            3.295180574151     0.123420026691    -0.025249502282    12.000000000000
         H           -3.880124425849     0.715081026691     0.067844497718     1.007825032230
         H           -3.515832425849    -2.015345973309    -0.283833502282     1.007825032230
         H            2.828842574151     2.185362026691    -0.509340502282     1.007825032230
         H            3.283150574151    -1.987149973309     0.478723497718     1.007825032230
         H            4.374394574151     0.237994026691    -0.036052502282     1.007825032230
         C           -1.501083425849     2.110525026691     0.299811497718    12.000000000000
         H           -0.804022425849     2.257338026691     1.124025497718     1.007825032230
         H           -1.083392425849     2.566997026691    -0.596397502282     1.007825032230
         H           -2.460879425849     2.567482026691     0.546341497718     1.007825032230

  Basis Set: AUG-CC-PVTZ
    Blend: AUG-CC-PVTZ
  Basis Set: (AUG-CC-PVTZ AUX)
    Blend: AUG-CC-PVTZ-JKFIT
	 Reference Energy          =    -525.5546651423679805 [Eh]
	 Singles Energy            =      -0.0000000000000000 [Eh]
	 Same-Spin Energy          =      -0.5776660852133007 [Eh]
	 Opposite-Spin Energy      =      -1.7387300637462448 [Eh]
	 Correlation Energy        =      -2.3163961489595453 [Eh]
	 Total Energy              =    -527.8710612913275781 [Eh]

	 ================> DF-SCS-MP2 Energies <==================
	-----------------------------------------------------------
	 SCS Same-Spin Scale       =       0.3333333333333333 [-]
	 SCS Opposite-Spin Scale   =       1.2000000000000000 [-]
	 SCS Same-Spin Energy      =      -0.1925553617377669 [Eh]
	 SCS Opposite-Spin Energy  =      -2.0864760764954937 [Eh]
	 SCS Correlation Energy    =      -2.2790314382332606 [Eh]
	 SCS Total Energy          =    -527.8336965806012131 [Eh]
	-----------------------------------------------------------

  Dipole Moment: [D]
     X:     1.4637      Y:     4.0559      Z:     0.4719     Total:     4.3377

*** Psi4 exiting successfully. Buy a developer a beer!
