                               Psi4 1.4a3.dev225

  ==> Input File <==

--------------------------------------------------------------------------
#psi4
#
memory 32 gb

molecule  {
0 1
  N       -1.7314010     0.6447010     0.0841650
  N       -1.4345640    -1.5648400    -0.1846490
  N        1.1113180     1.0210360    -0.2929590
  N        1.3650780    -1.3052570     0.2771500
  C       -0.8211750    -0.3840720    -0.0264870
  C        0.6302560    -0.2085840    -0.0077820
  C       -2.9774260     0.0775420    -0.0074450
  C       -2.7669850    -1.2782450    -0.1740670
  C        2.4478010     1.1517920    -0.2896530
  C        2.6936640    -1.1417610     0.2510410
  C        3.2993530     0.0833730    -0.0301630
  H       -3.8925707     0.6860849     0.0642326
  H       -3.5116600    -2.0553930    -0.2887470
  H        2.8330150     2.1453150    -0.5142540
  H        3.2873230    -2.0271970     0.4738100
  H        4.3785670     0.1979470    -0.0409660
  C       -1.4969110     2.0704780     0.2948980
  H       -0.7998500     2.2172910     1.1191120
  H       -1.0792200     2.5269500    -0.6013110
  H       -2.4567070     2.5274350     0.5414280
units angstrom
no_reorient  #important for SAPT in psi4, default
symmetry c1  #important for SAPT in psi4, default
}

set PROPERTIES_ORIGIN ["COM"]
properties('MP2/aug-cc-pvtz', properties = ['dipole'])
--------------------------------------------------------------------------

    Molecular point group: c1
  Charge       = 0
  Multiplicity = 1
  Basis Set: AUG-CC-PVTZ
    Blend: AUG-CC-PVTZ
  Basis Set: (AUG-CC-PVTZ AUX)
    Blend: AUG-CC-PVTZ-JKFIT

    Orbital Energies [Eh]
    ---------------------

    Doubly Occupied:

       1A    -15.625972     2A    -15.580005     3A    -15.574915
       4A    -15.546663     5A    -11.333417     6A    -11.305839
       7A    -11.302976     8A    -11.295507     9A    -11.273357
      10A    -11.262135    11A    -11.251834    12A    -11.240483
      13A     -1.344902    14A     -1.308090    15A     -1.197940
      16A     -1.177899    17A     -1.088927    18A     -1.007386
      19A     -0.968590    20A     -0.899313    21A     -0.893513
      22A     -0.801533    23A     -0.783750    24A     -0.726880
      25A     -0.702612    26A     -0.684915    27A     -0.646277
      28A     -0.638586    29A     -0.606543    30A     -0.592955
      31A     -0.586249    32A     -0.578638    33A     -0.569938
      34A     -0.556357    35A     -0.543305    36A     -0.481153
      37A     -0.436209    38A     -0.424234    39A     -0.412403
      40A     -0.396654    41A     -0.377953    42A     -0.298612

  @DF-RHF Final Energy:  -525.55727691059678

   => Energetics <=

    Nuclear Repulsion Energy =            654.0109741067745972
    One-Electron Energy =               -2010.4856648310574201
    Two-Electron Energy =                 830.9174138136861529
    Total Energy =                       -525.5572769105967836
  Basis Set: (AUG-CC-PVTZ AUX)
    Blend: AUG-CC-PVTZ-RI
    Molecular point group: c1

    Geometry (in Angstrom), charge = 0, multiplicity = 1:

       Center              X                  Y                   Z               Mass
    ------------   -----------------  -----------------  -----------------  -----------------
         N           -1.738872651839     0.683129098429     0.088820047542    14.003074004430
         N           -1.442035651839    -1.526411901571    -0.179993952458    14.003074004430
         N            1.103846348161     1.059464098429    -0.288303952458    14.003074004430
         N            1.357606348161    -1.266828901571     0.281805047542    14.003074004430
         C           -0.828646651839    -0.345643901571    -0.021831952458    12.000000000000
         C            0.622784348161    -0.170155901571    -0.003126952458    12.000000000000
         C           -2.984897651839     0.115970098429    -0.002789952458    12.000000000000
         C           -2.774456651839    -1.239816901571    -0.169411952458    12.000000000000
         C            2.440329348161     1.190220098429    -0.284997952458    12.000000000000
         C            2.686192348161    -1.103332901571     0.255696047542    12.000000000000
         C            3.291881348161     0.121801098429    -0.025507952458    12.000000000000
         H           -3.900042351839     0.724512998429     0.068887647542     1.007825032230
         H           -3.519131651839    -2.016964901571    -0.284091952458     1.007825032230
         H            2.825543348161     2.183743098429    -0.509598952458     1.007825032230
         H            3.279851348161    -1.988768901571     0.478465047542     1.007825032230
         H            4.371095348161     0.236375098429    -0.036310952458     1.007825032230
         C           -1.504382651839     2.108906098429     0.299553047542    12.000000000000
         H           -0.807321651839     2.255719098429     1.123767047542     1.007825032230
         H           -1.086691651839     2.565378098429    -0.596655952458     1.007825032230
         H           -2.464178651839     2.565863098429     0.546083047542     1.007825032230

  Basis Set: AUG-CC-PVTZ
    Blend: AUG-CC-PVTZ
  Basis Set: (AUG-CC-PVTZ AUX)
    Blend: AUG-CC-PVTZ-JKFIT
	 Reference Energy          =    -525.5572769105967836 [Eh]
	 Singles Energy            =      -0.0000000000000000 [Eh]
	 Same-Spin Energy          =      -0.5780242251486520 [Eh]
	 Opposite-Spin Energy      =      -1.7384957933772252 [Eh]
	 Correlation Energy        =      -2.3165200185258774 [Eh]
	 Total Energy              =    -527.8737969291227046 [Eh]

	 ================> DF-SCS-MP2 Energies <==================
	-----------------------------------------------------------
	 SCS Same-Spin Scale       =       0.3333333333333333 [-]
	 SCS Opposite-Spin Scale   =       1.2000000000000000 [-]
	 SCS Same-Spin Energy      =      -0.1926747417162173 [Eh]
	 SCS Opposite-Spin Energy  =      -2.0861949520526699 [Eh]
	 SCS Correlation Energy    =      -2.2788696937688870 [Eh]
	 SCS Total Energy          =    -527.8361466043656947 [Eh]
	-----------------------------------------------------------

  Dipole Moment: [D]
     X:     1.3926      Y:     4.1078      Z:     0.4796     Total:     4.3639

*** Psi4 exiting successfully. Buy a developer a beer!
