                               Psi4 1.3.2 release

  ==> Input File <==

--------------------------------------------------------------------------
#psi4
#
memory 32 gb

molecule  {
0 1
  N       -1.7314010     0.6447010     0.0841650
  N       -1.4345640    -1.5648400    -0.1846490
  N        1.1113180     1.0210360    -0.2929590
  N        1.3650780    -1.3052570     0.2771500
  C       -0.8393669    -0.3996461    -0.0287220
  C        0.6302560    -0.2085840    -0.0077820
  C       -2.9774260     0.0775420    -0.0074450
  C       -2.7669850    -1.2782450    -0.1740670
  C        2.4478010     1.1517920    -0.2896530
  C        2.6936640    -1.1417610     0.2510410
  C        3.2993530     0.0833730    -0.0301630
  H       -3.8759520     0.6750340     0.0629310
  H       -3.5116600    -2.0553930    -0.2887470
  H        2.8330150     2.1453150    -0.5142540
  H        3.2873230    -2.0271970     0.4738100
  H        4.3785670     0.1979470    -0.0409660
  C       -1.4969110     2.0704780     0.2948980
  H       -0.7998500     2.2172910     1.1191120
  H       -1.0792200     2.5269500    -0.6013110
  H       -2.4567070     2.5274350     0.5414280
units angstrom
no_reorient  #important for SAPT in psi4, default
symmetry c1  #important for SAPT in psi4, default
}

set PROPERTIES_ORIGIN ["COM"]
properties('MP2/aug-cc-pvtz', properties = ['dipole'])
--------------------------------------------------------------------------

    Molecular point group: c1
  Charge       = 0
  Multiplicity = 1
  Basis Set: AUG-CC-PVTZ
    Blend: AUG-CC-PVTZ
  Basis Set: (AUG-CC-PVTZ AUX)
    Blend: AUG-CC-PVTZ-JKFIT

    Orbital Energies [Eh]
    ---------------------

    Doubly Occupied:

       1A    -15.623306     2A    -15.580419     3A    -15.574996
       4A    -15.544841     5A    -11.334238     6A    -11.306050
       7A    -11.303011     8A    -11.295333     9A    -11.273470
      10A    -11.259165    11A    -11.252076    12A    -11.239588
      13A     -1.346782    14A     -1.308227    15A     -1.198687
      16A     -1.181829    17A     -1.087375    18A     -1.007622
      19A     -0.968119    20A     -0.899112    21A     -0.892177
      22A     -0.803943    23A     -0.782775    24A     -0.726995
      25A     -0.702601    26A     -0.685853    27A     -0.646236
      28A     -0.638689    29A     -0.607203    30A     -0.592889
      31A     -0.588008    32A     -0.578723    33A     -0.568708
      34A     -0.555855    35A     -0.545074    36A     -0.480093
      37A     -0.437970    38A     -0.424261    39A     -0.412851
      40A     -0.396577    41A     -0.378592    42A     -0.300120

  @DF-RHF Final Energy:  -525.55918407768684

   => Energetics <=

    Nuclear Repulsion Energy =            654.1287211194274960
    One-Electron Energy =               -2010.7149255917290702
    Two-Electron Energy =                 831.0270203946148513
    Total Energy =                       -525.5591840776868366
  Basis Set: (AUG-CC-PVTZ AUX)
    Blend: AUG-CC-PVTZ-RI
    Molecular point group: c1

    Geometry (in Angstrom), charge = 0, multiplicity = 1:

       Center              X                  Y                   Z               Mass
    ------------   -----------------  -----------------  -----------------  -----------------
         N           -1.737613528374     0.684366185432     0.088995788934    14.003074004430
         N           -1.440776528374    -1.525174814568    -0.179818211066    14.003074004430
         N            1.105105471626     1.060701185432    -0.288128211066    14.003074004430
         N            1.358865471626    -1.265591814568     0.281980788934    14.003074004430
         C           -0.845579428374    -0.359980914568    -0.023891211066    12.000000000000
         C            0.624043471626    -0.168918814568    -0.002951211066    12.000000000000
         C           -2.983638528374     0.117207185432    -0.002614211066    12.000000000000
         C           -2.773197528374    -1.238579814568    -0.169236211066    12.000000000000
         C            2.441588471626     1.191457185432    -0.284822211066    12.000000000000
         C            2.687451471626    -1.102095814568     0.255871788934    12.000000000000
         C            3.293140471626     0.123038185432    -0.025332211066    12.000000000000
         H           -3.882164528374     0.714699185432     0.067761788934     1.007825032230
         H           -3.517872528374    -2.015727814568    -0.283916211066     1.007825032230
         H            2.826802471626     2.184980185432    -0.509423211066     1.007825032230
         H            3.281110471626    -1.987531814568     0.478640788934     1.007825032230
         H            4.372354471626     0.237612185432    -0.036135211066     1.007825032230
         C           -1.503123528374     2.110143185432     0.299728788934    12.000000000000
         H           -0.806062528374     2.256956185432     1.123942788934     1.007825032230
         H           -1.085432528374     2.566615185432    -0.596480211066     1.007825032230
         H           -2.462919528374     2.567100185432     0.546258788934     1.007825032230

  Basis Set: AUG-CC-PVTZ
    Blend: AUG-CC-PVTZ
  Basis Set: (AUG-CC-PVTZ AUX)
    Blend: AUG-CC-PVTZ-JKFIT
	 Reference Energy          =    -525.5591840776868366 [Eh]
	 Singles Energy            =      -0.0000000000000000 [Eh]
	 Same-Spin Energy          =      -0.5772107978355508 [Eh]
	 Opposite-Spin Energy      =      -1.7371367849625921 [Eh]
	 Correlation Energy        =      -2.3143475827981428 [Eh]
	 Total Energy              =    -527.8735316604850141 [Eh]

	 ================> DF-SCS-MP2 Energies <==================
	-----------------------------------------------------------
	 SCS Same-Spin Scale       =       0.3333333333333333 [-]
	 SCS Opposite-Spin Scale   =       1.2000000000000000 [-]
	 SCS Same-Spin Energy      =      -0.1924035992785169 [Eh]
	 SCS Opposite-Spin Energy  =      -2.0845641419551102 [Eh]
	 SCS Correlation Energy    =      -2.2769677412336273 [Eh]
	 SCS Total Energy          =    -527.8361518189204844 [Eh]
	-----------------------------------------------------------

  Dipole Moment: [D]
     X:     1.4642      Y:     4.0901      Z:     0.4767     Total:     4.3704

*** Psi4 exiting successfully. Buy a developer a beer!
