                               Psi4 1.3.2 release

  ==> Input File <==

--------------------------------------------------------------------------
#psi4
#
memory 32 gb

molecule  {
0 1
  N       -1.7314010     0.6447010     0.0841650
  N       -1.4345640    -1.5648400    -0.1846490
  N        1.1113180     1.0210360    -0.2929590
  N        1.3650780    -1.3052570     0.2771500
  C       -0.8211750    -0.3840720    -0.0264870
  C        0.6302560    -0.2085840    -0.0077820
  C       -2.9774260     0.0775420    -0.0074450
  C       -2.7669850    -1.2782450    -0.1740670
  C        2.4478010     1.1517920    -0.2896530
  C        2.6936640    -1.1417610     0.2510410
  C        3.2993530     0.0833730    -0.0301630
  H       -3.8759520     0.6750340     0.0629310
  H       -3.5116600    -2.0553930    -0.2887470
  H        2.8330150     2.1453150    -0.5142540
  H        3.2873230    -2.0271970     0.4738100
  H        4.3785670     0.1979470    -0.0409660
  C       -1.5129696     1.9728366     0.2804664
  H       -0.7998500     2.2172910     1.1191120
  H       -1.0792200     2.5269500    -0.6013110
  H       -2.4567070     2.5274350     0.5414280
units angstrom
no_reorient  #important for SAPT in psi4, default
symmetry c1  #important for SAPT in psi4, default
}

set PROPERTIES_ORIGIN ["COM"]
properties('MP2/aug-cc-pvtz', properties = ['dipole'])
--------------------------------------------------------------------------

    Molecular point group: c1
  Charge       = 0
  Multiplicity = 1
  Basis Set: AUG-CC-PVTZ
    Blend: AUG-CC-PVTZ
  Basis Set: (AUG-CC-PVTZ AUX)
    Blend: AUG-CC-PVTZ-JKFIT

    Orbital Energies [Eh]
    ---------------------

    Doubly Occupied:

       1A    -15.627434     2A    -15.580588     3A    -15.576099
       4A    -15.550046     5A    -11.334573     6A    -11.306171
       7A    -11.303605     8A    -11.299324     9A    -11.272262
      10A    -11.262785    11A    -11.252714    12A    -11.243602
      13A     -1.357243    14A     -1.310549    15A     -1.203146
      16A     -1.190280    17A     -1.090333    18A     -1.012326
      19A     -0.967187    20A     -0.900218    21A     -0.894530
      22A     -0.808959    23A     -0.787154    24A     -0.736606
      25A     -0.703898    26A     -0.689371    27A     -0.651311
      28A     -0.642892    29A     -0.607761    30A     -0.603493
      31A     -0.591107    32A     -0.579774    33A     -0.567245
      34A     -0.543459    35A     -0.529256    36A     -0.479488
      37A     -0.438747    38A     -0.424525    39A     -0.412753
      40A     -0.397237    41A     -0.376022    42A     -0.301437

  @DF-RHF Final Energy:  -525.54725745235135

   => Energetics <=

    Nuclear Repulsion Energy =            656.1681622580919111
    One-Electron Energy =               -2014.6158168753345308
    Two-Electron Energy =                 832.9003971648913875
    Total Energy =                       -525.5472574523513458
  Basis Set: (AUG-CC-PVTZ AUX)
    Blend: AUG-CC-PVTZ-RI
    Molecular point group: c1

    Geometry (in Angstrom), charge = 0, multiplicity = 1:

       Center              X                  Y                   Z               Mass
    ------------   -----------------  -----------------  -----------------  -----------------
         N           -1.737773451014     0.690518353092     0.089910105940    14.003074004430
         N           -1.440936451014    -1.519022646908    -0.178903894060    14.003074004430
         N            1.104945548986     1.066853353092    -0.287213894060    14.003074004430
         N            1.358705548986    -1.259439646908     0.282895105940    14.003074004430
         C           -0.827547451014    -0.338254646908    -0.020741894060    12.000000000000
         C            0.623883548986    -0.162766646908    -0.002036894060    12.000000000000
         C           -2.983798451014     0.123359353092    -0.001699894060    12.000000000000
         C           -2.773357451014    -1.232427646908    -0.168321894060    12.000000000000
         C            2.441428548986     1.197609353092    -0.283907894060    12.000000000000
         C            2.687291548986    -1.095943646908     0.256786105940    12.000000000000
         C            3.292980548986     0.129190353092    -0.024417894060    12.000000000000
         H           -3.882324451014     0.720851353092     0.068676105940     1.007825032230
         H           -3.518032451014    -2.009575646908    -0.283001894060     1.007825032230
         H            2.826642548986     2.191132353092    -0.508508894060     1.007825032230
         H            3.280950548986    -1.981379646908     0.479555105940     1.007825032230
         H            4.372194548986     0.243764353092    -0.035220894060     1.007825032230
         C           -1.519342051014     2.018653953092     0.286211505940    12.000000000000
         H           -0.806222451014     2.263108353092     1.124857105940     1.007825032230
         H           -1.085592451014     2.572767353092    -0.595565894060     1.007825032230
         H           -2.463079451014     2.573252353092     0.547173105940     1.007825032230

  Basis Set: AUG-CC-PVTZ
    Blend: AUG-CC-PVTZ
  Basis Set: (AUG-CC-PVTZ AUX)
    Blend: AUG-CC-PVTZ-JKFIT
	 Reference Energy          =    -525.5472574523513458 [Eh]
	 Singles Energy            =      -0.0000000000000000 [Eh]
	 Same-Spin Energy          =      -0.5788681558242217 [Eh]
	 Opposite-Spin Energy      =      -1.7390284177367046 [Eh]
	 Correlation Energy        =      -2.3178965735609260 [Eh]
	 Total Energy              =    -527.8651540259122612 [Eh]

	 ================> DF-SCS-MP2 Energies <==================
	-----------------------------------------------------------
	 SCS Same-Spin Scale       =       0.3333333333333333 [-]
	 SCS Opposite-Spin Scale   =       1.2000000000000000 [-]
	 SCS Same-Spin Energy      =      -0.1929560519414072 [Eh]
	 SCS Opposite-Spin Energy  =      -2.0868341012840452 [Eh]
	 SCS Correlation Energy    =      -2.2797901532254525 [Eh]
	 SCS Total Energy          =    -527.8270476055768086 [Eh]
	-----------------------------------------------------------

  Dipole Moment: [D]
     X:     1.4029      Y:     3.8432      Z:     0.4413     Total:     4.1150

*** Psi4 exiting successfully. Buy a developer a beer!
