                               Psi4 1.3.2 release

  ==> Input File <==

--------------------------------------------------------------------------
#psi4
#
memory 32 gb

molecule  {
0 1
  N       -1.7314010     0.6447010     0.0841650
  N       -1.4345640    -1.5648400    -0.1846490
  N        1.1113180     1.0210360    -0.2929590
  N        1.3650780    -1.3052570     0.2771500
  C       -0.8211750    -0.3840720    -0.0264870
  C        0.6658686    -0.1175563    -0.0288934
  C       -2.9774260     0.0775420    -0.0074450
  C       -2.7669850    -1.2782450    -0.1740670
  C        2.4478010     1.1517920    -0.2896530
  C        2.6936640    -1.1417610     0.2510410
  C        3.2993530     0.0833730    -0.0301630
  H       -3.8759520     0.6750340     0.0629310
  H       -3.5116600    -2.0553930    -0.2887470
  H        2.8330150     2.1453150    -0.5142540
  H        3.2873230    -2.0271970     0.4738100
  H        4.3785670     0.1979470    -0.0409660
  C       -1.4969110     2.0704780     0.2948980
  H       -0.7998500     2.2172910     1.1191120
  H       -1.0792200     2.5269500    -0.6013110
  H       -2.4567070     2.5274350     0.5414280
units angstrom
no_reorient  #important for SAPT in psi4, default
symmetry c1  #important for SAPT in psi4, default
}

set PROPERTIES_ORIGIN ["COM"]
properties('MP2/aug-cc-pvtz', properties = ['dipole'])
--------------------------------------------------------------------------

    Molecular point group: c1
  Charge       = 0
  Multiplicity = 1
  Basis Set: AUG-CC-PVTZ
    Blend: AUG-CC-PVTZ
  Basis Set: (AUG-CC-PVTZ AUX)
    Blend: AUG-CC-PVTZ-JKFIT

    Orbital Energies [Eh]
    ---------------------

    Doubly Occupied:

       1A    -15.621216     2A    -15.579575     3A    -15.577561
       4A    -15.543448     5A    -11.331501     6A    -11.309378
       7A    -11.302638     8A    -11.295512     9A    -11.273086
      10A    -11.255483    11A    -11.255153    12A    -11.237692
      13A     -1.345986    14A     -1.321568    15A     -1.204077
      16A     -1.175559    17A     -1.088588    18A     -1.003969
      19A     -0.966055    20A     -0.911473    21A     -0.885003
      22A     -0.800440    23A     -0.780227    24A     -0.725536
      25A     -0.711002    26A     -0.681342    27A     -0.645097
      28A     -0.638768    29A     -0.606942    30A     -0.594495
      31A     -0.588815    32A     -0.580107    33A     -0.569627
      34A     -0.554755    35A     -0.542664    36A     -0.479557
      37A     -0.436898    38A     -0.432417    39A     -0.413440
      40A     -0.393184    41A     -0.376208    42A     -0.298407

  @DF-RHF Final Energy:  -525.54732436148436

   => Energetics <=

    Nuclear Repulsion Energy =            654.4067447902313006
    One-Electron Energy =               -2011.2392441271501866
    Two-Electron Energy =                 831.2851749754344155
    Total Energy =                       -525.5473243614843568
  Basis Set: (AUG-CC-PVTZ AUX)
    Blend: AUG-CC-PVTZ-RI
    Molecular point group: c1

    Geometry (in Angstrom), charge = 0, multiplicity = 1:

       Center              X                  Y                   Z               Mass
    ------------   -----------------  -----------------  -----------------  -----------------
         N           -1.741646977809     0.676374791217     0.090410856538    14.003074004430
         N           -1.444809977809    -1.533166208783    -0.178403143462    14.003074004430
         N            1.101072022191     1.052709791217    -0.286713143462    14.003074004430
         N            1.354832022191    -1.273583208783     0.283395856538    14.003074004430
         C           -0.831420977809    -0.352398208783    -0.020241143462    12.000000000000
         C            0.655622622191    -0.085882508783    -0.022647543462    12.000000000000
         C           -2.987671977809     0.109215791217    -0.001199143462    12.000000000000
         C           -2.777230977809    -1.246571208783    -0.167821143462    12.000000000000
         C            2.437555022191     1.183465791217    -0.283407143462    12.000000000000
         C            2.683418022191    -1.110087208783     0.257286856538    12.000000000000
         C            3.289107022191     0.115046791217    -0.023917143462    12.000000000000
         H           -3.886197977809     0.706707791217     0.069176856538     1.007825032230
         H           -3.521905977809    -2.023719208783    -0.282501143462     1.007825032230
         H            2.822769022191     2.176988791217    -0.508008143462     1.007825032230
         H            3.277077022191    -1.995523208783     0.480055856538     1.007825032230
         H            4.368321022191     0.229620791217    -0.034720143462     1.007825032230
         C           -1.507156977809     2.102151791217     0.301143856538    12.000000000000
         H           -0.810095977809     2.248964791217     1.125357856538     1.007825032230
         H           -1.089465977809     2.558623791217    -0.595065143462     1.007825032230
         H           -2.466952977809     2.559108791217     0.547673856538     1.007825032230

  Basis Set: AUG-CC-PVTZ
    Blend: AUG-CC-PVTZ
  Basis Set: (AUG-CC-PVTZ AUX)
    Blend: AUG-CC-PVTZ-JKFIT
	 Reference Energy          =    -525.5473243614843568 [Eh]
	 Singles Energy            =      -0.0000000000000000 [Eh]
	 Same-Spin Energy          =      -0.5768180582797076 [Eh]
	 Opposite-Spin Energy      =      -1.7376338864837169 [Eh]
	 Correlation Energy        =      -2.3144519447634244 [Eh]
	 Total Energy              =    -527.8617763062477479 [Eh]

	 ================> DF-SCS-MP2 Energies <==================
	-----------------------------------------------------------
	 SCS Same-Spin Scale       =       0.3333333333333333 [-]
	 SCS Opposite-Spin Scale   =       1.2000000000000000 [-]
	 SCS Same-Spin Energy      =      -0.1922726860932358 [Eh]
	 SCS Opposite-Spin Energy  =      -2.0851606637804601 [Eh]
	 SCS Correlation Energy    =      -2.2774333498736961 [Eh]
	 SCS Total Energy          =    -527.8247577113580746 [Eh]
	-----------------------------------------------------------

  Dipole Moment: [D]
     X:     1.7066      Y:     4.2102      Z:     0.4493     Total:     4.5651

*** Psi4 exiting successfully. Buy a developer a beer!
