                               Psi4 1.3.2 release

  ==> Input File <==

--------------------------------------------------------------------------
#psi4
#
memory 32 gb

molecule  {
0 1
  N       -1.7314010     0.6447010     0.0841650
  N       -1.4345640    -1.5648400    -0.1846490
  N        1.1981092     0.9863326    -0.2805986
  N        1.3650780    -1.3052570     0.2771500
  C       -0.8211750    -0.3840720    -0.0264870
  C        0.6302560    -0.2085840    -0.0077820
  C       -2.9774260     0.0775420    -0.0074450
  C       -2.7669850    -1.2782450    -0.1740670
  C        2.4478010     1.1517920    -0.2896530
  C        2.6936640    -1.1417610     0.2510410
  C        3.2993530     0.0833730    -0.0301630
  H       -3.8759520     0.6750340     0.0629310
  H       -3.5116600    -2.0553930    -0.2887470
  H        2.8330150     2.1453150    -0.5142540
  H        3.2873230    -2.0271970     0.4738100
  H        4.3785670     0.1979470    -0.0409660
  C       -1.4969110     2.0704780     0.2948980
  H       -0.7998500     2.2172910     1.1191120
  H       -1.0792200     2.5269500    -0.6013110
  H       -2.4567070     2.5274350     0.5414280
units angstrom
no_reorient  #important for SAPT in psi4, default
symmetry c1  #important for SAPT in psi4, default
}

set PROPERTIES_ORIGIN ["COM"]
properties('MP2/aug-cc-pvtz', properties = ['dipole'])
--------------------------------------------------------------------------

    Molecular point group: c1
  Charge       = 0
  Multiplicity = 1
  Basis Set: AUG-CC-PVTZ
    Blend: AUG-CC-PVTZ
  Basis Set: (AUG-CC-PVTZ AUX)
    Blend: AUG-CC-PVTZ-JKFIT

    Orbital Energies [Eh]
    ---------------------

    Doubly Occupied:

       1A    -15.628266     2A    -15.573222     3A    -15.568306
       4A    -15.549168     5A    -11.334619     6A    -11.299404
       7A    -11.296498     8A    -11.293731     9A    -11.276266
      10A    -11.262121    11A    -11.246894    12A    -11.242625
      13A     -1.347973    14A     -1.319693    15A     -1.207049
      16A     -1.180905    17A     -1.086607    18A     -1.009399
      19A     -0.971115    20A     -0.903674    21A     -0.891839
      22A     -0.804572    23A     -0.790406    24A     -0.729485
      25A     -0.709956    26A     -0.686598    27A     -0.648717
      28A     -0.637474    29A     -0.611444    30A     -0.594297
      31A     -0.591621    32A     -0.582977    33A     -0.573158
      34A     -0.559753    35A     -0.546663    36A     -0.477448
      37A     -0.437316    38A     -0.431703    39A     -0.401199
      40A     -0.393950    41A     -0.378273    42A     -0.298834

  @DF-RHF Final Energy:  -525.55386684980760

   => Energetics <=

    Nuclear Repulsion Energy =            655.1105841627986592
    One-Electron Energy =               -2012.5784588569747484
    Two-Electron Energy =                 831.9140078443684843
    Total Energy =                       -525.5538668498076049
  Basis Set: (AUG-CC-PVTZ AUX)
    Blend: AUG-CC-PVTZ-RI
    Molecular point group: c1

    Geometry (in Angstrom), charge = 0, multiplicity = 1:

       Center              X                  Y                   Z               Mass
    ------------   -----------------  -----------------  -----------------  -----------------
         N           -1.746569625988     0.686234467626     0.087746976031    14.003074004430
         N           -1.449732625988    -1.523306532374    -0.181067023969    14.003074004430
         N            1.182940574012     1.027866067626    -0.277016623969    14.003074004430
         N            1.349909374012    -1.263723532374     0.280731976031    14.003074004430
         C           -0.836343625988    -0.342538532374    -0.022905023969    12.000000000000
         C            0.615087374012    -0.167050532374    -0.004200023969    12.000000000000
         C           -2.992594625988     0.119075467626    -0.003863023969    12.000000000000
         C           -2.782153625988    -1.236711532374    -0.170485023969    12.000000000000
         C            2.432632374012     1.193325467626    -0.286071023969    12.000000000000
         C            2.678495374012    -1.100227532374     0.254622976031    12.000000000000
         C            3.284184374012     0.124906467626    -0.026581023969    12.000000000000
         H           -3.891120625988     0.716567467626     0.066512976031     1.007825032230
         H           -3.526828625988    -2.013859532374    -0.285165023969     1.007825032230
         H            2.817846374012     2.186848467626    -0.510672023969     1.007825032230
         H            3.272154374012    -1.985663532374     0.477391976031     1.007825032230
         H            4.363398374012     0.239480467626    -0.037384023969     1.007825032230
         C           -1.512079625988     2.112011467626     0.298479976031    12.000000000000
         H           -0.815018625988     2.258824467626     1.122693976031     1.007825032230
         H           -1.094388625988     2.568483467626    -0.597729023969     1.007825032230
         H           -2.471875625988     2.568968467626     0.545009976031     1.007825032230

  Basis Set: AUG-CC-PVTZ
    Blend: AUG-CC-PVTZ
  Basis Set: (AUG-CC-PVTZ AUX)
    Blend: AUG-CC-PVTZ-JKFIT
	 Reference Energy          =    -525.5538668498076049 [Eh]
	 Singles Energy            =      -0.0000000000000000 [Eh]
	 Same-Spin Energy          =      -0.5774358868539422 [Eh]
	 Opposite-Spin Energy      =      -1.7361088910611386 [Eh]
	 Correlation Energy        =      -2.3135447779150811 [Eh]
	 Total Energy              =    -527.8674116277227313 [Eh]

	 ================> DF-SCS-MP2 Energies <==================
	-----------------------------------------------------------
	 SCS Same-Spin Scale       =       0.3333333333333333 [-]
	 SCS Opposite-Spin Scale   =       1.2000000000000000 [-]
	 SCS Same-Spin Energy      =      -0.1924786289513141 [Eh]
	 SCS Opposite-Spin Energy  =      -2.0833306692733662 [Eh]
	 SCS Correlation Energy    =      -2.2758092982246803 [Eh]
	 SCS Total Energy          =    -527.8296761480322630 [Eh]
	-----------------------------------------------------------

  Dipole Moment: [D]
     X:     1.0556      Y:     4.2053      Z:     0.4529     Total:     4.3593

*** Psi4 exiting successfully. Buy a developer a beer!
