                               Psi4 1.3.2 release

  ==> Input File <==

--------------------------------------------------------------------------
#psi4
#
memory 32 gb

molecule  {
0 1
  N       -1.8013612     0.5790635     0.0771188
  N       -1.4345640    -1.5648400    -0.1846490
  N        1.1113180     1.0210360    -0.2929590
  N        1.3650780    -1.3052570     0.2771500
  C       -0.8211750    -0.3840720    -0.0264870
  C        0.6302560    -0.2085840    -0.0077820
  C       -2.9774260     0.0775420    -0.0074450
  C       -2.7669850    -1.2782450    -0.1740670
  C        2.4478010     1.1517920    -0.2896530
  C        2.6936640    -1.1417610     0.2510410
  C        3.2993530     0.0833730    -0.0301630
  H       -3.8759520     0.6750340     0.0629310
  H       -3.5116600    -2.0553930    -0.2887470
  H        2.8330150     2.1453150    -0.5142540
  H        3.2873230    -2.0271970     0.4738100
  H        4.3785670     0.1979470    -0.0409660
  C       -1.4969110     2.0704780     0.2948980
  H       -0.7998500     2.2172910     1.1191120
  H       -1.0792200     2.5269500    -0.6013110
  H       -2.4567070     2.5274350     0.5414280
units angstrom
no_reorient  #important for SAPT in psi4, default
symmetry c1  #important for SAPT in psi4, default
}

set PROPERTIES_ORIGIN ["COM"]
properties('MP2/aug-cc-pvtz', properties = ['dipole'])
--------------------------------------------------------------------------

    Molecular point group: c1
  Charge       = 0
  Multiplicity = 1
  Basis Set: AUG-CC-PVTZ
    Blend: AUG-CC-PVTZ
  Basis Set: (AUG-CC-PVTZ AUX)
    Blend: AUG-CC-PVTZ-JKFIT

    Orbital Energies [Eh]
    ---------------------

    Doubly Occupied:

       1A    -15.628314     2A    -15.577967     3A    -15.573200
       4A    -15.545611     5A    -11.334256     6A    -11.304730
       7A    -11.302015     8A    -11.286225     9A    -11.282141
      10A    -11.255278    11A    -11.249818    12A    -11.232520
      13A     -1.360013    14A     -1.309493    15A     -1.195821
      16A     -1.173155    17A     -1.088356    18A     -1.014880
      19A     -0.963438    20A     -0.898178    21A     -0.893626
      22A     -0.808830    23A     -0.782459    24A     -0.727333
      25A     -0.701312    26A     -0.690126    27A     -0.647453
      28A     -0.644653    29A     -0.605653    30A     -0.591940
      31A     -0.586197    32A     -0.578240    33A     -0.562226
      34A     -0.554031    35A     -0.552709    36A     -0.480937
      37A     -0.433877    38A     -0.423369    39A     -0.411109
      40A     -0.402787    41A     -0.377287    42A     -0.292822

  @DF-RHF Final Energy:  -525.54580572220016

   => Energetics <=

    Nuclear Repulsion Energy =            654.5025202153667578
    One-Electron Energy =               -2011.4478834596914112
    Two-Electron Energy =                 831.3995575221244962
    Total Energy =                       -525.5458057222001571
  Basis Set: (AUG-CC-PVTZ AUX)
    Blend: AUG-CC-PVTZ-RI
    Molecular point group: c1

    Geometry (in Angstrom), charge = 0, multiplicity = 1:

       Center              X                  Y                   Z               Mass
    ------------   -----------------  -----------------  -----------------  -----------------
         N           -1.802817485667     0.623303028986     0.082398431705    14.003074004430
         N           -1.436020285667    -1.520600471014    -0.179369368295    14.003074004430
         N            1.109861714333     1.065275528986    -0.287679368295    14.003074004430
         N            1.363621714333    -1.261017471014     0.282429631705    14.003074004430
         C           -0.822631285667    -0.339832471014    -0.021207368295    12.000000000000
         C            0.628799714333    -0.164344471014    -0.002502368295    12.000000000000
         C           -2.978882285667     0.121781528986    -0.002165368295    12.000000000000
         C           -2.768441285667    -1.234005471014    -0.168787368295    12.000000000000
         C            2.446344714333     1.196031528986    -0.284373368295    12.000000000000
         C            2.692207714333    -1.097521471014     0.256320631705    12.000000000000
         C            3.297896714333     0.127612528986    -0.024883368295    12.000000000000
         H           -3.877408285667     0.719273528986     0.068210631705     1.007825032230
         H           -3.513116285667    -2.011153471014    -0.283467368295     1.007825032230
         H            2.831558714333     2.189554528986    -0.508974368295     1.007825032230
         H            3.285866714333    -1.982957471014     0.479089631705     1.007825032230
         H            4.377110714333     0.242186528986    -0.035686368295     1.007825032230
         C           -1.498367285667     2.114717528986     0.300177631705    12.000000000000
         H           -0.801306285667     2.261530528986     1.124391631705     1.007825032230
         H           -1.080676285667     2.571189528986    -0.596031368295     1.007825032230
         H           -2.458163285667     2.571674528986     0.546707631705     1.007825032230

  Basis Set: AUG-CC-PVTZ
    Blend: AUG-CC-PVTZ
  Basis Set: (AUG-CC-PVTZ AUX)
    Blend: AUG-CC-PVTZ-JKFIT
	 Reference Energy          =    -525.5458057222001571 [Eh]
	 Singles Energy            =      -0.0000000000000000 [Eh]
	 Same-Spin Energy          =      -0.5782524148144048 [Eh]
	 Opposite-Spin Energy      =      -1.7377579490151593 [Eh]
	 Correlation Energy        =      -2.3160103638295642 [Eh]
	 Total Energy              =    -527.8618160860297621 [Eh]

	 ================> DF-SCS-MP2 Energies <==================
	-----------------------------------------------------------
	 SCS Same-Spin Scale       =       0.3333333333333333 [-]
	 SCS Opposite-Spin Scale   =       1.2000000000000000 [-]
	 SCS Same-Spin Energy      =      -0.1927508049381349 [Eh]
	 SCS Opposite-Spin Energy  =      -2.0853095388181910 [Eh]
	 SCS Correlation Energy    =      -2.2780603437563260 [Eh]
	 SCS Total Energy          =    -527.8238660659565085 [Eh]
	-----------------------------------------------------------

  Dipole Moment: [D]
     X:     1.3455      Y:     4.3701      Z:     0.5112     Total:     4.6011

*** Psi4 exiting successfully. Buy a developer a beer!
