                               Psi4 1.3.2 release

  ==> Input File <==

--------------------------------------------------------------------------
#psi4
#
memory 32 gb

molecule  {
0 1
  N       -1.6943908     0.5569844     0.0737691
  N       -1.4345640    -1.5648400    -0.1846490
  N        1.1113180     1.0210360    -0.2929590
  N        1.3650780    -1.3052570     0.2771500
  C       -0.8211750    -0.3840720    -0.0264870
  C        0.6302560    -0.2085840    -0.0077820
  C       -2.9774260     0.0775420    -0.0074450
  C       -2.7669850    -1.2782450    -0.1740670
  C        2.4478010     1.1517920    -0.2896530
  C        2.6936640    -1.1417610     0.2510410
  C        3.2993530     0.0833730    -0.0301630
  H       -3.8759520     0.6750340     0.0629310
  H       -3.5116600    -2.0553930    -0.2887470
  H        2.8330150     2.1453150    -0.5142540
  H        3.2873230    -2.0271970     0.4738100
  H        4.3785670     0.1979470    -0.0409660
  C       -1.4969110     2.0704780     0.2948980
  H       -0.7998500     2.2172910     1.1191120
  H       -1.0792200     2.5269500    -0.6013110
  H       -2.4567070     2.5274350     0.5414280
units angstrom
no_reorient  #important for SAPT in psi4, default
symmetry c1  #important for SAPT in psi4, default
}

set PROPERTIES_ORIGIN ["COM"]
properties('MP2/aug-cc-pvtz', properties = ['dipole'])
--------------------------------------------------------------------------

    Molecular point group: c1
  Charge       = 0
  Multiplicity = 1
  Basis Set: AUG-CC-PVTZ
    Blend: AUG-CC-PVTZ
  Basis Set: (AUG-CC-PVTZ AUX)
    Blend: AUG-CC-PVTZ-JKFIT

    Orbital Energies [Eh]
    ---------------------

    Doubly Occupied:

       1A    -15.625568     2A    -15.581218     3A    -15.575758
       4A    -15.533092     5A    -11.333824     6A    -11.306601
       7A    -11.303485     8A    -11.285762     9A    -11.282066
      10A    -11.252857    11A    -11.251963    12A    -11.238333
      13A     -1.361256    14A     -1.310216    15A     -1.197721
      16A     -1.162857    17A     -1.090437    18A     -1.012318
      19A     -0.968542    20A     -0.899939    21A     -0.898285
      22A     -0.806065    23A     -0.782092    24A     -0.724787
      25A     -0.703294    26A     -0.687101    27A     -0.647988
      28A     -0.641931    29A     -0.606817    30A     -0.594694
      31A     -0.591195    32A     -0.580861    33A     -0.562003
      34A     -0.552581    35A     -0.545996    36A     -0.482628
      37A     -0.429553    38A     -0.424521    39A     -0.410847
      40A     -0.393940    41A     -0.376759    42A     -0.301775

  @DF-RHF Final Energy:  -525.54796431505792

   => Energetics <=

    Nuclear Repulsion Energy =            655.6380732908514801
    One-Electron Energy =               -2013.7330198272177313
    Two-Electron Energy =                 832.5469822213083262
    Total Energy =                       -525.5479643150579250
  Basis Set: (AUG-CC-PVTZ AUX)
    Blend: AUG-CC-PVTZ-RI
    Molecular point group: c1

    Geometry (in Angstrom), charge = 0, multiplicity = 1:

       Center              X                  Y                   Z               Mass
    ------------   -----------------  -----------------  -----------------  -----------------
         N           -1.705204670537     0.603155370320     0.079341757645    14.003074004430
         N           -1.445377870537    -1.518669029680    -0.179076342355    14.003074004430
         N            1.100504129463     1.067206970320    -0.287386342355    14.003074004430
         N            1.354264129463    -1.259086029680     0.282722657645    14.003074004430
         C           -0.831988870537    -0.337901029680    -0.020914342355    12.000000000000
         C            0.619442129463    -0.162413029680    -0.002209342355    12.000000000000
         C           -2.988239870537     0.123712970320    -0.001872342355    12.000000000000
         C           -2.777798870537    -1.232074029680    -0.168494342355    12.000000000000
         C            2.436987129463     1.197962970320    -0.284080342355    12.000000000000
         C            2.682850129463    -1.095590029680     0.256613657645    12.000000000000
         C            3.288539129463     0.129543970320    -0.024590342355    12.000000000000
         H           -3.886765870537     0.721204970320     0.068503657645     1.007825032230
         H           -3.522473870537    -2.009222029680    -0.283174342355     1.007825032230
         H            2.822201129463     2.191485970320    -0.508681342355     1.007825032230
         H            3.276509129463    -1.981026029680     0.479382657645     1.007825032230
         H            4.367753129463     0.244117970320    -0.035393342355     1.007825032230
         C           -1.507724870537     2.116648970320     0.300470657645    12.000000000000
         H           -0.810663870537     2.263461970320     1.124684657645     1.007825032230
         H           -1.090033870537     2.573120970320    -0.595738342355     1.007825032230
         H           -2.467520870537     2.573605970320     0.547000657645     1.007825032230

  Basis Set: AUG-CC-PVTZ
    Blend: AUG-CC-PVTZ
  Basis Set: (AUG-CC-PVTZ AUX)
    Blend: AUG-CC-PVTZ-JKFIT
	 Reference Energy          =    -525.5479643150579250 [Eh]
	 Singles Energy            =      -0.0000000000000000 [Eh]
	 Same-Spin Energy          =      -0.5774880464836168 [Eh]
	 Opposite-Spin Energy      =      -1.7373379302465368 [Eh]
	 Correlation Energy        =      -2.3148259767301536 [Eh]
	 Total Energy              =    -527.8627902917880874 [Eh]

	 ================> DF-SCS-MP2 Energies <==================
	-----------------------------------------------------------
	 SCS Same-Spin Scale       =       0.3333333333333333 [-]
	 SCS Opposite-Spin Scale   =       1.2000000000000000 [-]
	 SCS Same-Spin Energy      =      -0.1924960154945389 [Eh]
	 SCS Opposite-Spin Energy  =      -2.0848055162958441 [Eh]
	 SCS Correlation Energy    =      -2.2773015317903829 [Eh]
	 SCS Total Energy          =    -527.8252658468483105 [Eh]
	-----------------------------------------------------------

  Dipole Moment: [D]
     X:     1.4762      Y:     4.3607      Z:     0.5157     Total:     4.6326

*** Psi4 exiting successfully. Buy a developer a beer!
