                               Psi4 1.3.2 release

  ==> Input File <==

--------------------------------------------------------------------------
#psi4
#
memory 32 gb

molecule  {
0 1
  N       -1.7314010     0.6447010     0.0841650
  N       -1.4345640    -1.5648400    -0.1846490
  N        1.1113180     1.0210360    -0.2929590
  N        1.3650780    -1.3052570     0.2771500
  C       -0.7856649    -0.3521614    -0.0206098
  C        0.6302560    -0.2085840    -0.0077820
  C       -2.9774260     0.0775420    -0.0074450
  C       -2.7669850    -1.2782450    -0.1740670
  C        2.4478010     1.1517920    -0.2896530
  C        2.6936640    -1.1417610     0.2510410
  C        3.2993530     0.0833730    -0.0301630
  H       -3.8759520     0.6750340     0.0629310
  H       -3.5116600    -2.0553930    -0.2887470
  H        2.8330150     2.1453150    -0.5142540
  H        3.2873230    -2.0271970     0.4738100
  H        4.3785670     0.1979470    -0.0409660
  C       -1.4969110     2.0704780     0.2948980
  H       -0.7998500     2.2172910     1.1191120
  H       -1.0792200     2.5269500    -0.6013110
  H       -2.4567070     2.5274350     0.5414280
units angstrom
no_reorient  #important for SAPT in psi4, default
symmetry c1  #important for SAPT in psi4, default
}

set PROPERTIES_ORIGIN ["COM"]
properties('MP2/aug-cc-pvtz', properties = ['dipole'])
--------------------------------------------------------------------------

    Molecular point group: c1
  Charge       = 0
  Multiplicity = 1
  Basis Set: AUG-CC-PVTZ
    Blend: AUG-CC-PVTZ
  Basis Set: (AUG-CC-PVTZ AUX)
    Blend: AUG-CC-PVTZ-JKFIT

    Orbital Energies [Eh]
    ---------------------

    Doubly Occupied:

       1A    -15.631058     2A    -15.578745     3A    -15.574333
       4A    -15.549972     5A    -11.330999     6A    -11.305097
       7A    -11.302599     8A    -11.295499     9A    -11.273328
      10A    -11.261929    11A    -11.250968    12A    -11.242316
      13A     -1.342011    14A     -1.307509    15A     -1.196744
      16A     -1.170126    17A     -1.092202    18A     -1.008732
      19A     -0.969319    20A     -0.899536    21A     -0.897270
      22A     -0.799900    23A     -0.787182    24A     -0.726900
      25A     -0.702661    26A     -0.685596    27A     -0.646608
      28A     -0.642382    29A     -0.607444    30A     -0.593120
      31A     -0.585446    32A     -0.582117    33A     -0.569590
      34A     -0.556475    35A     -0.540101    36A     -0.482722
      37A     -0.432585    38A     -0.423864    39A     -0.411042
      40A     -0.397298    41A     -0.376613    42A     -0.295134

  @DF-RHF Final Energy:  -525.55056404140180

   => Energetics <=

    Nuclear Repulsion Energy =            654.1333946450532721
    One-Electron Energy =               -2010.7177703237741753
    Two-Electron Energy =                 831.0338116373189905
    Total Energy =                       -525.5505640414017989
  Basis Set: (AUG-CC-PVTZ AUX)
    Blend: AUG-CC-PVTZ-RI
    Molecular point group: c1

    Geometry (in Angstrom), charge = 0, multiplicity = 1:

       Center              X                  Y                   Z               Mass
    ------------   -----------------  -----------------  -----------------  -----------------
         N           -1.741639293906     0.680806499227     0.088387658601    14.003074004430
         N           -1.444802293906    -1.528734500773    -0.180426341399    14.003074004430
         N            1.101079706094     1.057141499227    -0.288736341399    14.003074004430
         N            1.354839706094    -1.269151500773     0.281372658601    14.003074004430
         C           -0.795903193906    -0.316055900773    -0.016387141399    12.000000000000
         C            0.620017706094    -0.172478500773    -0.003559341399    12.000000000000
         C           -2.987664293906     0.113647499227    -0.003222341399    12.000000000000
         C           -2.777223293906    -1.242139500773    -0.169844341399    12.000000000000
         C            2.437562706094     1.187897499227    -0.285430341399    12.000000000000
         C            2.683425706094    -1.105655500773     0.255263658601    12.000000000000
         C            3.289114706094     0.119478499227    -0.025940341399    12.000000000000
         H           -3.886190293906     0.711139499227     0.067153658601     1.007825032230
         H           -3.521898293906    -2.019287500773    -0.284524341399     1.007825032230
         H            2.822776706094     2.181420499227    -0.510031341399     1.007825032230
         H            3.277084706094    -1.991091500773     0.478032658601     1.007825032230
         H            4.368328706094     0.234052499227    -0.036743341399     1.007825032230
         C           -1.507149293906     2.106583499227     0.299120658601    12.000000000000
         H           -0.810088293906     2.253396499227     1.123334658601     1.007825032230
         H           -1.089458293906     2.563055499227    -0.597088341399     1.007825032230
         H           -2.466945293906     2.563540499227     0.545650658601     1.007825032230

  Basis Set: AUG-CC-PVTZ
    Blend: AUG-CC-PVTZ
  Basis Set: (AUG-CC-PVTZ AUX)
    Blend: AUG-CC-PVTZ-JKFIT
	 Reference Energy          =    -525.5505640414017989 [Eh]
	 Singles Energy            =      -0.0000000000000000 [Eh]
	 Same-Spin Energy          =      -0.5796230312210927 [Eh]
	 Opposite-Spin Energy      =      -1.7410547277828692 [Eh]
	 Correlation Energy        =      -2.3206777590039618 [Eh]
	 Total Energy              =    -527.8712418004057554 [Eh]

	 ================> DF-SCS-MP2 Energies <==================
	-----------------------------------------------------------
	 SCS Same-Spin Scale       =       0.3333333333333333 [-]
	 SCS Opposite-Spin Scale   =       1.2000000000000000 [-]
	 SCS Same-Spin Energy      =      -0.1932076770736976 [Eh]
	 SCS Opposite-Spin Energy  =      -2.0892656733394430 [Eh]
	 SCS Correlation Energy    =      -2.2824733504131407 [Eh]
	 SCS Total Energy          =    -527.8330373918149689 [Eh]
	-----------------------------------------------------------

  Dipole Moment: [D]
     X:     1.2285      Y:     4.1356      Z:     0.4846     Total:     4.3414

*** Psi4 exiting successfully. Buy a developer a beer!
