                               Psi4 1.3.2 release

  ==> Input File <==

--------------------------------------------------------------------------
#psi4
#
memory 32 gb

molecule  {
0 1
  N       -1.7314010     0.6447010     0.0841650
  N       -1.4345640    -1.5648400    -0.1846490
  N        1.1113180     1.0210360    -0.2929590
  N        1.3650780    -1.3052570     0.2771500
  C       -0.8211750    -0.3840720    -0.0264870
  C        0.6302560    -0.2085840    -0.0077820
  C       -2.9774260     0.0775420    -0.0074450
  C       -2.7669850    -1.2782450    -0.1740670
  C        2.4478010     1.1517920    -0.2896530
  C        2.6936640    -1.1417610     0.2510410
  C        3.4218184    -0.0702810     0.0071554
  H       -3.8759520     0.6750340     0.0629310
  H       -3.5116600    -2.0553930    -0.2887470
  H        2.8330150     2.1453150    -0.5142540
  H        3.2873230    -2.0271970     0.4738100
  H        4.3785670     0.1979470    -0.0409660
  C       -1.4969110     2.0704780     0.2948980
  H       -0.7998500     2.2172910     1.1191120
  H       -1.0792200     2.5269500    -0.6013110
  H       -2.4567070     2.5274350     0.5414280
units angstrom
no_reorient  #important for SAPT in psi4, default
symmetry c1  #important for SAPT in psi4, default
}

set PROPERTIES_ORIGIN ["COM"]
properties('MP2/aug-cc-pvtz', properties = ['dipole'])
--------------------------------------------------------------------------

    Molecular point group: c1
  Charge       = 0
  Multiplicity = 1
  Basis Set: AUG-CC-PVTZ
    Blend: AUG-CC-PVTZ
  Basis Set: (AUG-CC-PVTZ AUX)
    Blend: AUG-CC-PVTZ-JKFIT

    Orbital Energies [Eh]
    ---------------------

    Doubly Occupied:

       1A    -15.627626     2A    -15.586167     3A    -15.569652
       4A    -15.547916     5A    -11.335736     6A    -11.330044
       7A    -11.296368     8A    -11.285443     9A    -11.275285
      10A    -11.261544    11A    -11.254485    12A    -11.241713
      13A     -1.345926    14A     -1.304720    15A     -1.197451
      16A     -1.179037    17A     -1.083681    18A     -1.010791
      19A     -0.971171    20A     -0.908600    21A     -0.880178
      22A     -0.803562    23A     -0.783557    24A     -0.726174
      25A     -0.717179    26A     -0.683860    27A     -0.658067
      28A     -0.647480    29A     -0.611021    30A     -0.589110
      31A     -0.577414    32A     -0.573087    33A     -0.560737
      34A     -0.556764    35A     -0.543449    36A     -0.482047
      37A     -0.436050    38A     -0.430826    39A     -0.405157
      40A     -0.390678    41A     -0.376178    42A     -0.299143

  @DF-RHF Final Energy:  -525.51565013845175

   => Energetics <=

    Nuclear Repulsion Energy =            651.9019800640579660
    One-Electron Energy =               -2006.1451107591819891
    Two-Electron Energy =                 828.7274805566721625
    Total Energy =                       -525.5156501384517469
  Basis Set: (AUG-CC-PVTZ AUX)
    Blend: AUG-CC-PVTZ-RI
    Molecular point group: c1

    Geometry (in Angstrom), charge = 0, multiplicity = 1:

       Center              X                  Y                   Z               Mass
    ------------   -----------------  -----------------  -----------------  -----------------
         N           -1.748157890040     0.694717332542     0.086030671910    14.003074004430
         N           -1.451320890040    -1.514823667458    -0.182783328090    14.003074004430
         N            1.094561109960     1.071052332542    -0.291093328090    14.003074004430
         N            1.348321109960    -1.255240667458     0.279015671910    14.003074004430
         C           -0.837931890040    -0.334055667458    -0.024621328090    12.000000000000
         C            0.613499109960    -0.158567667458    -0.005916328090    12.000000000000
         C           -2.994182890040     0.127558332542    -0.005579328090    12.000000000000
         C           -2.783741890040    -1.228228667458    -0.172201328090    12.000000000000
         C            2.431044109960     1.201808332542    -0.287787328090    12.000000000000
         C            2.676907109960    -1.091744667458     0.252906671910    12.000000000000
         C            3.405061509960    -0.020264667458     0.009021071910    12.000000000000
         H           -3.892708890040     0.725050332542     0.064796671910     1.007825032230
         H           -3.528416890040    -2.005376667458    -0.286881328090     1.007825032230
         H            2.816258109960     2.195331332542    -0.512388328090     1.007825032230
         H            3.270566109960    -1.977180667458     0.475675671910     1.007825032230
         H            4.361810109960     0.247963332542    -0.039100328090     1.007825032230
         C           -1.513667890040     2.120494332542     0.296763671910    12.000000000000
         H           -0.816606890040     2.267307332542     1.120977671910     1.007825032230
         H           -1.095976890040     2.576966332542    -0.599445328090     1.007825032230
         H           -2.473463890040     2.577451332542     0.543293671910     1.007825032230

  Basis Set: AUG-CC-PVTZ
    Blend: AUG-CC-PVTZ
  Basis Set: (AUG-CC-PVTZ AUX)
    Blend: AUG-CC-PVTZ-JKFIT
	 Reference Energy          =    -525.5156501384517469 [Eh]
	 Singles Energy            =      -0.0000000000000000 [Eh]
	 Same-Spin Energy          =      -0.5777269656208193 [Eh]
	 Opposite-Spin Energy      =      -1.7405063033586461 [Eh]
	 Correlation Energy        =      -2.3182332689794656 [Eh]
	 Total Energy              =    -527.8338834074312444 [Eh]

	 ================> DF-SCS-MP2 Energies <==================
	-----------------------------------------------------------
	 SCS Same-Spin Scale       =       0.3333333333333333 [-]
	 SCS Opposite-Spin Scale   =       1.2000000000000000 [-]
	 SCS Same-Spin Energy      =      -0.1925756552069398 [Eh]
	 SCS Opposite-Spin Energy  =      -2.0886075640303754 [Eh]
	 SCS Correlation Energy    =      -2.2811832192373149 [Eh]
	 SCS Total Energy          =    -527.7968333576890245 [Eh]
	-----------------------------------------------------------

  Dipole Moment: [D]
     X:     1.2472      Y:     4.4004      Z:     0.4086     Total:     4.5919

*** Psi4 exiting successfully. Buy a developer a beer!
