                               Psi4 1.3.2 release

  ==> Input File <==

--------------------------------------------------------------------------
#psi4
#
memory 32 gb

molecule  {
0 1
  N       -1.7416098     0.6662148     0.0866962
  N       -1.4345640    -1.5648400    -0.1846490
  N        1.1113180     1.0210360    -0.2929590
  N        1.3650780    -1.3052570     0.2771500
  C       -0.8211750    -0.3840720    -0.0264870
  C        0.6302560    -0.2085840    -0.0077820
  C       -2.9774260     0.0775420    -0.0074450
  C       -2.7669850    -1.2782450    -0.1740670
  C        2.4478010     1.1517920    -0.2896530
  C        2.6936640    -1.1417610     0.2510410
  C        3.2993530     0.0833730    -0.0301630
  H       -3.8759520     0.6750340     0.0629310
  H       -3.5116600    -2.0553930    -0.2887470
  H        2.8330150     2.1453150    -0.5142540
  H        3.2873230    -2.0271970     0.4738100
  H        4.3785670     0.1979470    -0.0409660
  C       -1.4969110     2.0704780     0.2948980
  H       -0.7998500     2.2172910     1.1191120
  H       -1.0792200     2.5269500    -0.6013110
  H       -2.4567070     2.5274350     0.5414280
units angstrom
no_reorient  #important for SAPT in psi4, default
symmetry c1  #important for SAPT in psi4, default
}

set PROPERTIES_ORIGIN ["COM"]
properties('MP2/aug-cc-pvtz', properties = ['dipole'])
--------------------------------------------------------------------------

    Molecular point group: c1
  Charge       = 0
  Multiplicity = 1
  Basis Set: AUG-CC-PVTZ
    Blend: AUG-CC-PVTZ
  Basis Set: (AUG-CC-PVTZ AUX)
    Blend: AUG-CC-PVTZ-JKFIT

    Orbital Energies [Eh]
    ---------------------

    Doubly Occupied:

       1A    -15.625652     2A    -15.579743     3A    -15.574746
       4A    -15.549798     5A    -11.333348     6A    -11.305667
       7A    -11.302868     8A    -11.297606     9A    -11.271229
      10A    -11.261993    11A    -11.251618    12A    -11.240880
      13A     -1.341814    14A     -1.307563    15A     -1.198348
      16A     -1.181500    17A     -1.088648    18A     -1.008023
      19A     -0.968076    20A     -0.899186    21A     -0.892779
      22A     -0.801298    23A     -0.785087    24A     -0.727405
      25A     -0.702595    26A     -0.685603    27A     -0.646396
      28A     -0.639744    29A     -0.607526    30A     -0.594500
      31A     -0.588355    32A     -0.578295    33A     -0.568856
      34A     -0.556840    35A     -0.541197    36A     -0.480669
      37A     -0.437848    38A     -0.424133    39A     -0.412558
      40A     -0.397472    41A     -0.377900    42A     -0.297695

  @DF-RHF Final Energy:  -525.55632090039614

   => Energetics <=

    Nuclear Repulsion Energy =            653.7640948151173461
    One-Electron Energy =               -2009.9747139417670496
    Two-Electron Energy =                 830.6542982262536725
    Total Energy =                       -525.5563209003961447
  Basis Set: (AUG-CC-PVTZ AUX)
    Blend: AUG-CC-PVTZ-RI
    Molecular point group: c1

    Geometry (in Angstrom), charge = 0, multiplicity = 1:

       Center              X                  Y                   Z               Mass
    ------------   -----------------  -----------------  -----------------  -----------------
         N           -1.748293034399     0.702830484574     0.091138017381    14.003074004430
         N           -1.441247234399    -1.528224315426    -0.180207182619    14.003074004430
         N            1.104634765601     1.057651684574    -0.288517182619    14.003074004430
         N            1.358394765601    -1.268641315426     0.281591817381    14.003074004430
         C           -0.827858234399    -0.347456315426    -0.022045182619    12.000000000000
         C            0.623572765601    -0.171968315426    -0.003340182619    12.000000000000
         C           -2.984109234399     0.114157684574    -0.003003182619    12.000000000000
         C           -2.773668234399    -1.241629315426    -0.169625182619    12.000000000000
         C            2.441117765601     1.188407684574    -0.285211182619    12.000000000000
         C            2.686980765601    -1.105145315426     0.255482817381    12.000000000000
         C            3.292669765601     0.119988684574    -0.025721182619    12.000000000000
         H           -3.882635234399     0.711649684574     0.067372817381     1.007825032230
         H           -3.518343234399    -2.018777315426    -0.284305182619     1.007825032230
         H            2.826331765601     2.181930684574    -0.509812182619     1.007825032230
         H            3.280639765601    -1.990581315426     0.478251817381     1.007825032230
         H            4.371883765601     0.234562684574    -0.036524182619     1.007825032230
         C           -1.503594234399     2.107093684574     0.299339817381    12.000000000000
         H           -0.806533234399     2.253906684574     1.123553817381     1.007825032230
         H           -1.085903234399     2.563565684574    -0.596869182619     1.007825032230
         H           -2.463390234399     2.564050684574     0.545869817381     1.007825032230

  Basis Set: AUG-CC-PVTZ
    Blend: AUG-CC-PVTZ
  Basis Set: (AUG-CC-PVTZ AUX)
    Blend: AUG-CC-PVTZ-JKFIT
	 Reference Energy          =    -525.5563209003961447 [Eh]
	 Singles Energy            =      -0.0000000000000000 [Eh]
	 Same-Spin Energy          =      -0.5781981810615791 [Eh]
	 Opposite-Spin Energy      =      -1.7388021748915128 [Eh]
	 Correlation Energy        =      -2.3170003559530921 [Eh]
	 Total Energy              =    -527.8733212563491861 [Eh]

	 ================> DF-SCS-MP2 Energies <==================
	-----------------------------------------------------------
	 SCS Same-Spin Scale       =       0.3333333333333333 [-]
	 SCS Opposite-Spin Scale   =       1.2000000000000000 [-]
	 SCS Same-Spin Energy      =      -0.1927327270205264 [Eh]
	 SCS Opposite-Spin Energy  =      -2.0865626098698153 [Eh]
	 SCS Correlation Energy    =      -2.2792953368903417 [Eh]
	 SCS Total Energy          =    -527.8356162372864446 [Eh]
	-----------------------------------------------------------

  Dipole Moment: [D]
     X:     1.3811      Y:     4.0428      Z:     0.4706     Total:     4.2981

*** Psi4 exiting successfully. Buy a developer a beer!
