                               Psi4 1.3.2 release

  ==> Input File <==

--------------------------------------------------------------------------
#psi4
#
memory 32 gb

molecule  {
0 1
  N       -1.7314010     0.6447010     0.0841650
  N       -1.4345640    -1.5648400    -0.1846490
  N        1.1113180     1.0210360    -0.2929590
  N        1.3650780    -1.3052570     0.2771500
  C       -0.7753981    -0.2959519    -0.0146835
  C        0.6302560    -0.2085840    -0.0077820
  C       -2.9774260     0.0775420    -0.0074450
  C       -2.7669850    -1.2782450    -0.1740670
  C        2.4478010     1.1517920    -0.2896530
  C        2.6936640    -1.1417610     0.2510410
  C        3.2993530     0.0833730    -0.0301630
  H       -3.8759520     0.6750340     0.0629310
  H       -3.5116600    -2.0553930    -0.2887470
  H        2.8330150     2.1453150    -0.5142540
  H        3.2873230    -2.0271970     0.4738100
  H        4.3785670     0.1979470    -0.0409660
  C       -1.4969110     2.0704780     0.2948980
  H       -0.7998500     2.2172910     1.1191120
  H       -1.0792200     2.5269500    -0.6013110
  H       -2.4567070     2.5274350     0.5414280
units angstrom
no_reorient  #important for SAPT in psi4, default
symmetry c1  #important for SAPT in psi4, default
}

set PROPERTIES_ORIGIN ["COM"]
properties('MP2/aug-cc-pvtz', properties = ['dipole'])
--------------------------------------------------------------------------

    Molecular point group: c1
  Charge       = 0
  Multiplicity = 1
  Basis Set: AUG-CC-PVTZ
    Blend: AUG-CC-PVTZ
  Basis Set: (AUG-CC-PVTZ AUX)
    Blend: AUG-CC-PVTZ-JKFIT

    Orbital Energies [Eh]
    ---------------------

    Doubly Occupied:

       1A    -15.637792     2A    -15.577562     3A    -15.574488
       4A    -15.550164     5A    -11.330412     6A    -11.304360
       7A    -11.302673     8A    -11.295298     9A    -11.275026
      10A    -11.260530    11A    -11.250483    12A    -11.244210
      13A     -1.346361    14A     -1.308445    15A     -1.195998
      16A     -1.162903    17A     -1.093791    18A     -1.008968
      19A     -0.973007    20A     -0.901465    21A     -0.898480
      22A     -0.801116    23A     -0.787123    24A     -0.728326
      25A     -0.702674    26A     -0.685455    27A     -0.650790
      28A     -0.644186    29A     -0.607317    30A     -0.593507
      31A     -0.588677    32A     -0.584097    33A     -0.567184
      34A     -0.551006    35A     -0.539724    36A     -0.483576
      37A     -0.429108    38A     -0.423499    39A     -0.409446
      40A     -0.396550    41A     -0.376952    42A     -0.291839

  @DF-RHF Final Energy:  -525.53913988319505

   => Energetics <=

    Nuclear Repulsion Energy =            654.3081810031093255
    One-Electron Energy =               -2011.0255089167603728
    Two-Electron Energy =                 831.1781880304558854
    Total Energy =                       -525.5391398831950482
  Basis Set: (AUG-CC-PVTZ AUX)
    Blend: AUG-CC-PVTZ-RI
    Molecular point group: c1

    Geometry (in Angstrom), charge = 0, multiplicity = 1:

       Center              X                  Y                   Z               Mass
    ------------   -----------------  -----------------  -----------------  -----------------
         N           -1.742408943632     0.676592759186     0.087943394062    14.003074004430
         N           -1.445571943632    -1.532948240814    -0.180870605938    14.003074004430
         N            1.100310056368     1.052927759186    -0.289180605938    14.003074004430
         N            1.354070056368    -1.273365240814     0.280928394062    14.003074004430
         C           -0.786406043632    -0.264060140814    -0.010905105938    12.000000000000
         C            0.619248056368    -0.176692240814    -0.004003605938    12.000000000000
         C           -2.988433943632     0.109433759186    -0.003666605938    12.000000000000
         C           -2.777992943632    -1.246353240814    -0.170288605938    12.000000000000
         C            2.436793056368     1.183683759186    -0.285874605938    12.000000000000
         C            2.682656056368    -1.109869240814     0.254819394062    12.000000000000
         C            3.288345056368     0.115264759186    -0.026384605938    12.000000000000
         H           -3.886959943632     0.706925759186     0.066709394062     1.007825032230
         H           -3.522667943632    -2.023501240814    -0.284968605938     1.007825032230
         H            2.822007056368     2.177206759186    -0.510475605938     1.007825032230
         H            3.276315056368    -1.995305240814     0.477588394062     1.007825032230
         H            4.367559056368     0.229838759186    -0.037187605938     1.007825032230
         C           -1.507918943632     2.102369759186     0.298676394062    12.000000000000
         H           -0.810857943632     2.249182759186     1.122890394062     1.007825032230
         H           -1.090227943632     2.558841759186    -0.597532605938     1.007825032230
         H           -2.467714943632     2.559326759186     0.545206394062     1.007825032230

  Basis Set: AUG-CC-PVTZ
    Blend: AUG-CC-PVTZ
  Basis Set: (AUG-CC-PVTZ AUX)
    Blend: AUG-CC-PVTZ-JKFIT
	 Reference Energy          =    -525.5391398831950482 [Eh]
	 Singles Energy            =      -0.0000000000000000 [Eh]
	 Same-Spin Energy          =      -0.5809632958927620 [Eh]
	 Opposite-Spin Energy      =      -1.7433556213970161 [Eh]
	 Correlation Energy        =      -2.3243189172897782 [Eh]
	 Total Energy              =    -527.8634588004848638 [Eh]

	 ================> DF-SCS-MP2 Energies <==================
	-----------------------------------------------------------
	 SCS Same-Spin Scale       =       0.3333333333333333 [-]
	 SCS Opposite-Spin Scale   =       1.2000000000000000 [-]
	 SCS Same-Spin Energy      =      -0.1936544319642540 [Eh]
	 SCS Opposite-Spin Energy  =      -2.0920267456764190 [Eh]
	 SCS Correlation Energy    =      -2.2856811776406731 [Eh]
	 SCS Total Energy          =    -527.8248210608356885 [Eh]
	-----------------------------------------------------------

  Dipole Moment: [D]
     X:     1.1041      Y:     4.2008      Z:     0.4967     Total:     4.3718

*** Psi4 exiting successfully. Buy a developer a beer!
