                               Psi4 1.3.2 release

  ==> Input File <==

--------------------------------------------------------------------------
#psi4
#
memory 32 gb

molecule  {
0 1
  N       -1.7314010     0.6447010     0.0841650
  N       -1.4345640    -1.5648400    -0.1846490
  N        1.1113180     1.0210360    -0.2929590
  N        1.3650780    -1.3052570     0.2771500
  C       -0.8211750    -0.3840720    -0.0264870
  C        0.5758448    -0.1273788    -0.0288803
  C       -2.9774260     0.0775420    -0.0074450
  C       -2.7669850    -1.2782450    -0.1740670
  C        2.4478010     1.1517920    -0.2896530
  C        2.6936640    -1.1417610     0.2510410
  C        3.2993530     0.0833730    -0.0301630
  H       -3.8759520     0.6750340     0.0629310
  H       -3.5116600    -2.0553930    -0.2887470
  H        2.8330150     2.1453150    -0.5142540
  H        3.2873230    -2.0271970     0.4738100
  H        4.3785670     0.1979470    -0.0409660
  C       -1.4969110     2.0704780     0.2948980
  H       -0.7998500     2.2172910     1.1191120
  H       -1.0792200     2.5269500    -0.6013110
  H       -2.4567070     2.5274350     0.5414280
units angstrom
no_reorient  #important for SAPT in psi4, default
symmetry c1  #important for SAPT in psi4, default
}

set PROPERTIES_ORIGIN ["COM"]
properties('MP2/aug-cc-pvtz', properties = ['dipole'])
--------------------------------------------------------------------------

    Molecular point group: c1
  Charge       = 0
  Multiplicity = 1
  Basis Set: AUG-CC-PVTZ
    Blend: AUG-CC-PVTZ
  Basis Set: (AUG-CC-PVTZ AUX)
    Blend: AUG-CC-PVTZ-JKFIT

    Orbital Energies [Eh]
    ---------------------

    Doubly Occupied:

       1A    -15.627843     2A    -15.575958     3A    -15.575874
       4A    -15.551641     5A    -11.332768     6A    -11.303836
       7A    -11.296862     8A    -11.295888     9A    -11.275785
      10A    -11.263560    11A    -11.250526    12A    -11.244039
      13A     -1.348626    14A     -1.304398    15A     -1.190875
      16A     -1.177159    17A     -1.089981    18A     -1.012001
      19A     -0.973065    20A     -0.903851    21A     -0.885501
      22A     -0.807226    23A     -0.786785    24A     -0.728871
      25A     -0.703352    26A     -0.680318    27A     -0.649688
      28A     -0.640792    29A     -0.605300    30A     -0.595125
      31A     -0.587021    32A     -0.577316    33A     -0.573316
      34A     -0.561143    35A     -0.545019    36A     -0.480494
      37A     -0.438997    38A     -0.424240    39A     -0.400962
      40A     -0.393889    41A     -0.378968    42A     -0.298704

  @DF-RHF Final Energy:  -525.54422068664121

   => Energetics <=

    Nuclear Repulsion Energy =            654.3389602400088734
    One-Electron Energy =               -2011.0912351209892677
    Two-Electron Energy =                 831.2080541943391836
    Total Energy =                       -525.5442206866412107
  Basis Set: (AUG-CC-PVTZ AUX)
    Blend: AUG-CC-PVTZ-RI
    Molecular point group: c1

    Geometry (in Angstrom), charge = 0, multiplicity = 1:

       Center              X                  Y                   Z               Mass
    ------------   -----------------  -----------------  -----------------  -----------------
         N           -1.734898351853     0.677111134034     0.090409874498    14.003074004430
         N           -1.438061351853    -1.532429865966    -0.178404125502    14.003074004430
         N            1.107820648147     1.053446134034    -0.286714125502    14.003074004430
         N            1.361580648147    -1.272846865966     0.283394874498    14.003074004430
         C           -0.824672351853    -0.351661865966    -0.020242125502    12.000000000000
         C            0.572347448147    -0.094968665966    -0.022635425502    12.000000000000
         C           -2.980923351853     0.109952134034    -0.001200125502    12.000000000000
         C           -2.770482351853    -1.245834865966    -0.167822125502    12.000000000000
         C            2.444303648147     1.184202134034    -0.283408125502    12.000000000000
         C            2.690166648147    -1.109350865966     0.257285874498    12.000000000000
         C            3.295855648147     0.115783134034    -0.023918125502    12.000000000000
         H           -3.879449351853     0.707444134034     0.069175874498     1.007825032230
         H           -3.515157351853    -2.022982865966    -0.282502125502     1.007825032230
         H            2.829517648147     2.177725134034    -0.508009125502     1.007825032230
         H            3.283825648147    -1.994786865966     0.480054874498     1.007825032230
         H            4.375069648147     0.230357134034    -0.034721125502     1.007825032230
         C           -1.500408351853     2.102888134034     0.301142874498    12.000000000000
         H           -0.803347351853     2.249701134034     1.125356874498     1.007825032230
         H           -1.082717351853     2.559360134034    -0.595066125502     1.007825032230
         H           -2.460204351853     2.559845134034     0.547672874498     1.007825032230

  Basis Set: AUG-CC-PVTZ
    Blend: AUG-CC-PVTZ
  Basis Set: (AUG-CC-PVTZ AUX)
    Blend: AUG-CC-PVTZ-JKFIT
	 Reference Energy          =    -525.5442206866412107 [Eh]
	 Singles Energy            =      -0.0000000000000000 [Eh]
	 Same-Spin Energy          =      -0.5790136836802855 [Eh]
	 Opposite-Spin Energy      =      -1.7409025057120227 [Eh]
	 Correlation Energy        =      -2.3199161893923081 [Eh]
	 Total Energy              =    -527.8641368760335126 [Eh]

	 ================> DF-SCS-MP2 Energies <==================
	-----------------------------------------------------------
	 SCS Same-Spin Scale       =       0.3333333333333333 [-]
	 SCS Opposite-Spin Scale   =       1.2000000000000000 [-]
	 SCS Same-Spin Energy      =      -0.1930045612267618 [Eh]
	 SCS Opposite-Spin Energy  =      -2.0890830068544273 [Eh]
	 SCS Correlation Energy    =      -2.2820875680811890 [Eh]
	 SCS Total Energy          =    -527.8263082547224485 [Eh]
	-----------------------------------------------------------

  Dipole Moment: [D]
     X:     0.9795      Y:     4.1712      Z:     0.4444     Total:     4.3076

*** Psi4 exiting successfully. Buy a developer a beer!
