                               Psi4 1.4a3.dev225

  ==> Input File <==

--------------------------------------------------------------------------
#psi4
#
memory 32 gb

molecule  {
0 1
  N       -1.7314010     0.6447010     0.0841650
  N       -1.4345640    -1.5648400    -0.1846490
  N        1.1113180     1.0210360    -0.2929590
  N        1.3650780    -1.3052570     0.2771500
  C       -0.8211750    -0.3840720    -0.0264870
  C        0.6124497    -0.2540979     0.0027737
  C       -2.9774260     0.0775420    -0.0074450
  C       -2.7669850    -1.2782450    -0.1740670
  C        2.4478010     1.1517920    -0.2896530
  C        2.6936640    -1.1417610     0.2510410
  C        3.2993530     0.0833730    -0.0301630
  H       -3.8759520     0.6750340     0.0629310
  H       -3.5116600    -2.0553930    -0.2887470
  H        2.8330150     2.1453150    -0.5142540
  H        3.2873230    -2.0271970     0.4738100
  H        4.3785670     0.1979470    -0.0409660
  C       -1.4969110     2.0704780     0.2948980
  H       -0.7998500     2.2172910     1.1191120
  H       -1.0792200     2.5269500    -0.6013110
  H       -2.4567070     2.5274350     0.5414280
units angstrom
no_reorient  #important for SAPT in psi4, default
symmetry c1  #important for SAPT in psi4, default
}

set PROPERTIES_ORIGIN ["COM"]
properties('MP2/aug-cc-pvtz', properties = ['dipole'])
--------------------------------------------------------------------------

    Molecular point group: c1
  Charge       = 0
  Multiplicity = 1
  Basis Set: AUG-CC-PVTZ
    Blend: AUG-CC-PVTZ
  Basis Set: (AUG-CC-PVTZ AUX)
    Blend: AUG-CC-PVTZ-JKFIT

    Orbital Energies [Eh]
    ---------------------

    Doubly Occupied:

       1A    -15.628067     2A    -15.580217     3A    -15.572237
       4A    -15.548015     5A    -11.333201     6A    -11.303827
       7A    -11.302832     8A    -11.295134     9A    -11.273594
      10A    -11.262134    11A    -11.250498    12A    -11.241625
      13A     -1.346031    14A     -1.304484    15A     -1.194207
      16A     -1.178474    17A     -1.089018    18A     -1.009834
      19A     -0.969712    20A     -0.899952    21A     -0.891623
      22A     -0.803605    23A     -0.786391    24A     -0.727865
      25A     -0.700417    26A     -0.685648    27A     -0.647022
      28A     -0.640591    29A     -0.608426    30A     -0.592568
      31A     -0.587233    32A     -0.579198    33A     -0.569343
      34A     -0.556785    35A     -0.543342    36A     -0.481279
      37A     -0.436696    38A     -0.423408    39A     -0.408394
      40A     -0.396298    41A     -0.378256    42A     -0.298583

  @DF-RHF Final Energy:  -525.55391131018746

   => Energetics <=

    Nuclear Repulsion Energy =            654.0352655098319019
    One-Electron Energy =               -2010.5262198425366478
    Two-Electron Energy =                 830.9370430225174005
    Total Energy =                       -525.5539113101874591
  Basis Set: (AUG-CC-PVTZ AUX)
    Blend: AUG-CC-PVTZ-RI
    Molecular point group: c1

    Geometry (in Angstrom), charge = 0, multiplicity = 1:

       Center              X                  Y                   Z               Mass
    ------------   -----------------  -----------------  -----------------  -----------------
         N           -1.737642434843     0.686610619808     0.088036935275    14.003074004430
         N           -1.440805434843    -1.522930380192    -0.180777064725    14.003074004430
         N            1.105076565157     1.062945619808    -0.289087064725    14.003074004430
         N            1.358836565157    -1.263347380192     0.281021935275    14.003074004430
         C           -0.827416434843    -0.342162380192    -0.022615064725    12.000000000000
         C            0.606208265157    -0.212188280192     0.006645635275    12.000000000000
         C           -2.983667434843     0.119451619808    -0.003573064725    12.000000000000
         C           -2.773226434843    -1.236335380192    -0.170195064725    12.000000000000
         C            2.441559565157     1.193701619808    -0.285781064725    12.000000000000
         C            2.687422565157    -1.099851380192     0.254912935275    12.000000000000
         C            3.293111565157     0.125282619808    -0.026291064725    12.000000000000
         H           -3.882193434843     0.716943619808     0.066802935275     1.007825032230
         H           -3.517901434843    -2.013483380192    -0.284875064725     1.007825032230
         H            2.826773565157     2.187224619808    -0.510382064725     1.007825032230
         H            3.281081565157    -1.985287380192     0.477681935275     1.007825032230
         H            4.372325565157     0.239856619808    -0.037094064725     1.007825032230
         C           -1.503152434843     2.112387619808     0.298769935275    12.000000000000
         H           -0.806091434843     2.259200619808     1.122983935275     1.007825032230
         H           -1.085461434843     2.568859619808    -0.597439064725     1.007825032230
         H           -2.462948434843     2.569344619808     0.545299935275     1.007825032230

  Basis Set: AUG-CC-PVTZ
    Blend: AUG-CC-PVTZ
  Basis Set: (AUG-CC-PVTZ AUX)
    Blend: AUG-CC-PVTZ-JKFIT
	 Reference Energy          =    -525.5539113101874591 [Eh]
	 Singles Energy            =      -0.0000000000000000 [Eh]
	 Same-Spin Energy          =      -0.5784594858300368 [Eh]
	 Opposite-Spin Energy      =      -1.7392071830036318 [Eh]
	 Correlation Energy        =      -2.3176666688336685 [Eh]
	 Total Energy              =    -527.8715779790211400 [Eh]

	 ================> DF-SCS-MP2 Energies <==================
	-----------------------------------------------------------
	 SCS Same-Spin Scale       =       0.3333333333333333 [-]
	 SCS Opposite-Spin Scale   =       1.2000000000000000 [-]
	 SCS Same-Spin Energy      =      -0.1928198286100123 [Eh]
	 SCS Opposite-Spin Energy  =      -2.0870486196043578 [Eh]
	 SCS Correlation Energy    =      -2.2798684482143701 [Eh]
	 SCS Total Energy          =    -527.8337797584018745 [Eh]
	-----------------------------------------------------------

  Dipole Moment: [D]
     X:     1.2228      Y:     4.0616      Z:     0.4938     Total:     4.2703

*** Psi4 exiting successfully. Buy a developer a beer!
