                               Psi4 1.3.2 release

  ==> Input File <==

--------------------------------------------------------------------------
#psi4
#
memory 32 gb

molecule  {
0 1
  N       -1.7942461     0.6699376     0.0079965
  N       -1.4345640    -1.5648400    -0.1846490
  N        1.1113180     1.0210360    -0.2929590
  N        1.3650780    -1.3052570     0.2771500
  C       -0.8211750    -0.3840720    -0.0264870
  C        0.6302560    -0.2085840    -0.0077820
  C       -2.9774260     0.0775420    -0.0074450
  C       -2.7669850    -1.2782450    -0.1740670
  C        2.4478010     1.1517920    -0.2896530
  C        2.6936640    -1.1417610     0.2510410
  C        3.2993530     0.0833730    -0.0301630
  H       -3.8759520     0.6750340     0.0629310
  H       -3.5116600    -2.0553930    -0.2887470
  H        2.8330150     2.1453150    -0.5142540
  H        3.2873230    -2.0271970     0.4738100
  H        4.3785670     0.1979470    -0.0409660
  C       -1.4969110     2.0704780     0.2948980
  H       -0.7998500     2.2172910     1.1191120
  H       -1.0792200     2.5269500    -0.6013110
  H       -2.4567070     2.5274350     0.5414280
units angstrom
no_reorient  #important for SAPT in psi4, default
symmetry c1  #important for SAPT in psi4, default
}

set PROPERTIES_ORIGIN ["COM"]
properties('MP2/aug-cc-pvtz', properties = ['dipole'])
--------------------------------------------------------------------------

    Molecular point group: c1
  Charge       = 0
  Multiplicity = 1
  Basis Set: AUG-CC-PVTZ
    Blend: AUG-CC-PVTZ
  Basis Set: (AUG-CC-PVTZ AUX)
    Blend: AUG-CC-PVTZ-JKFIT

    Orbital Energies [Eh]
    ---------------------

    Doubly Occupied:

       1A    -15.626948     2A    -15.578009     3A    -15.573405
       4A    -15.554215     5A    -11.333644     6A    -11.304727
       7A    -11.302122     8A    -11.295482     9A    -11.273740
      10A    -11.262651    11A    -11.249943    12A    -11.237475
      13A     -1.344038    14A     -1.307901    15A     -1.197430
      16A     -1.182606    17A     -1.087758    18A     -1.012185
      19A     -0.963894    20A     -0.898288    21A     -0.890915
      22A     -0.802148    23A     -0.784985    24A     -0.728327
      25A     -0.701415    26A     -0.686762    27A     -0.646659
      28A     -0.640938    29A     -0.606465    30A     -0.593851
      31A     -0.585844    32A     -0.578016    33A     -0.566402
      34A     -0.559244    35A     -0.541922    36A     -0.479947
      37A     -0.439111    38A     -0.423486    39A     -0.412079
      40A     -0.402947    41A     -0.378591    42A     -0.292718

  @DF-RHF Final Energy:  -525.55029704052572

   => Energetics <=

    Nuclear Repulsion Energy =            653.3492938282037130
    One-Electron Energy =               -2009.1407171608195767
    Two-Electron Energy =                 830.2411262920902573
    Total Energy =                       -525.5502970405257201
  Basis Set: (AUG-CC-PVTZ AUX)
    Blend: AUG-CC-PVTZ-RI
    Molecular point group: c1

    Geometry (in Angstrom), charge = 0, multiplicity = 1:

       Center              X                  Y                   Z               Mass
    ------------   -----------------  -----------------  -----------------  -----------------
         N           -1.796324802262     0.706227620494     0.019322830499    14.003074004430
         N           -1.436642702262    -1.528549979506    -0.173322669501    14.003074004430
         N            1.109239297738     1.057326020494    -0.281632669501    14.003074004430
         N            1.362999297738    -1.268966979506     0.288476330499    14.003074004430
         C           -0.823253702262    -0.347781979506    -0.015160669501    12.000000000000
         C            0.628177297738    -0.172293979506     0.003544330499    12.000000000000
         C           -2.979504702262     0.113832020494     0.003881330499    12.000000000000
         C           -2.769063702262    -1.241954979506    -0.162740669501    12.000000000000
         C            2.445722297738     1.188082020494    -0.278326669501    12.000000000000
         C            2.691585297738    -1.105470979506     0.262367330499    12.000000000000
         C            3.297274297738     0.119663020494    -0.018836669501    12.000000000000
         H           -3.878030702262     0.711324020494     0.074257330499     1.007825032230
         H           -3.513738702262    -2.019102979506    -0.277420669501     1.007825032230
         H            2.830936297738     2.181605020494    -0.502927669501     1.007825032230
         H            3.285244297738    -1.990906979506     0.485136330499     1.007825032230
         H            4.376488297738     0.234237020494    -0.029639669501     1.007825032230
         C           -1.498989702262     2.106768020494     0.306224330499    12.000000000000
         H           -0.801928702262     2.253581020494     1.130438330499     1.007825032230
         H           -1.081298702262     2.563240020494    -0.589984669501     1.007825032230
         H           -2.458785702262     2.563725020494     0.552754330499     1.007825032230

  Basis Set: AUG-CC-PVTZ
    Blend: AUG-CC-PVTZ
  Basis Set: (AUG-CC-PVTZ AUX)
    Blend: AUG-CC-PVTZ-JKFIT
	 Reference Energy          =    -525.5502970405257201 [Eh]
	 Singles Energy            =      -0.0000000000000000 [Eh]
	 Same-Spin Energy          =      -0.5785019570286050 [Eh]
	 Opposite-Spin Energy      =      -1.7389961969087808 [Eh]
	 Correlation Energy        =      -2.3174981539373860 [Eh]
	 Total Energy              =    -527.8677951944631559 [Eh]

	 ================> DF-SCS-MP2 Energies <==================
	-----------------------------------------------------------
	 SCS Same-Spin Scale       =       0.3333333333333333 [-]
	 SCS Opposite-Spin Scale   =       1.2000000000000000 [-]
	 SCS Same-Spin Energy      =      -0.1928339856762016 [Eh]
	 SCS Opposite-Spin Energy  =      -2.0867954362905370 [Eh]
	 SCS Correlation Energy    =      -2.2796294219667388 [Eh]
	 SCS Total Energy          =    -527.8299264624924945 [Eh]
	-----------------------------------------------------------

  Dipole Moment: [D]
     X:     1.3217      Y:     4.0877      Z:     0.5113     Total:     4.3264

*** Psi4 exiting successfully. Buy a developer a beer!
