                               Psi4 1.4a3.dev225

  ==> Input File <==

--------------------------------------------------------------------------
#psi4
#
memory 32 gb

molecule  {
0 1
  N       -1.7314010     0.6447010     0.0841650
  N       -1.4345640    -1.5648400    -0.1846490
  N        1.1113180     1.0210360    -0.2929590
  N        1.3650780    -1.3052570     0.2771500
  C       -0.8211750    -0.3840720    -0.0264870
  C        0.6373785    -0.1903785    -0.0120043
  C       -2.9774260     0.0775420    -0.0074450
  C       -2.7669850    -1.2782450    -0.1740670
  C        2.4478010     1.1517920    -0.2896530
  C        2.6936640    -1.1417610     0.2510410
  C        3.2993530     0.0833730    -0.0301630
  H       -3.8759520     0.6750340     0.0629310
  H       -3.5116600    -2.0553930    -0.2887470
  H        2.8330150     2.1453150    -0.5142540
  H        3.2873230    -2.0271970     0.4738100
  H        4.3785670     0.1979470    -0.0409660
  C       -1.4969110     2.0704780     0.2948980
  H       -0.7998500     2.2172910     1.1191120
  H       -1.0792200     2.5269500    -0.6013110
  H       -2.4567070     2.5274350     0.5414280
units angstrom
no_reorient  #important for SAPT in psi4, default
symmetry c1  #important for SAPT in psi4, default
}

set PROPERTIES_ORIGIN ["COM"]
properties('MP2/aug-cc-pvtz', properties = ['dipole'])
--------------------------------------------------------------------------

    Molecular point group: c1
  Charge       = 0
  Multiplicity = 1
  Basis Set: AUG-CC-PVTZ
    Blend: AUG-CC-PVTZ
  Basis Set: (AUG-CC-PVTZ AUX)
    Blend: AUG-CC-PVTZ-JKFIT

    Orbital Energies [Eh]
    ---------------------

    Doubly Occupied:

       1A    -15.624905     2A    -15.579705     3A    -15.575909
       4A    -15.545936     5A    -11.333265     6A    -11.306570
       7A    -11.302956     8A    -11.295508     9A    -11.273317
      10A    -11.259043    11A    -11.252411    12A    -11.239852
      13A     -1.344488    14A     -1.310178    15A     -1.199371
      16A     -1.177472    17A     -1.088884    18A     -1.007131
      19A     -0.968082    20A     -0.901252    21A     -0.892624
      22A     -0.801937    23A     -0.783620    24A     -0.726601
      25A     -0.704171    26A     -0.685216    27A     -0.645964
      28A     -0.639552    29A     -0.606981    30A     -0.593073
      31A     -0.586989    32A     -0.579561    33A     -0.570013
      34A     -0.556082    35A     -0.543180    36A     -0.480956
      37A     -0.436184    38A     -0.425238    39A     -0.413345
      40A     -0.396316    41A     -0.377616    42A     -0.298564

  @DF-RHF Final Energy:  -525.55798837714133

   => Energetics <=

    Nuclear Repulsion Energy =            654.1612533136199090
    One-Electron Energy =               -2010.7784523460277342
    Two-Electron Energy =                 831.0592106552664973
    Total Energy =                       -525.5579883771413279
  Basis Set: (AUG-CC-PVTZ AUX)
    Blend: AUG-CC-PVTZ-RI
    Molecular point group: c1

    Geometry (in Angstrom), charge = 0, multiplicity = 1:

       Center              X                  Y                   Z               Mass
    ------------   -----------------  -----------------  -----------------  -----------------
         N           -1.739511220061     0.681833900799     0.089144766697    14.003074004430
         N           -1.442674220061    -1.527707099201    -0.179669233303    14.003074004430
         N            1.103207779939     1.058168900799    -0.287979233303    14.003074004430
         N            1.356967779939    -1.268124099201     0.282129766697    14.003074004430
         C           -0.829285220061    -0.346939099201    -0.021507233303    12.000000000000
         C            0.629268279939    -0.153245599201    -0.007024533303    12.000000000000
         C           -2.985536220061     0.114674900799    -0.002465233303    12.000000000000
         C           -2.775095220061    -1.241112099201    -0.169087233303    12.000000000000
         C            2.439690779939     1.188924900799    -0.284673233303    12.000000000000
         C            2.685553779939    -1.104628099201     0.256020766697    12.000000000000
         C            3.291242779939     0.120505900799    -0.025183233303    12.000000000000
         H           -3.884062220061     0.712166900799     0.067910766697     1.007825032230
         H           -3.519770220061    -2.018260099201    -0.283767233303     1.007825032230
         H            2.824904779939     2.182447900799    -0.509274233303     1.007825032230
         H            3.279212779939    -1.990064099201     0.478789766697     1.007825032230
         H            4.370456779939     0.235079900799    -0.035986233303     1.007825032230
         C           -1.505021220061     2.107610900799     0.299877766697    12.000000000000
         H           -0.807960220061     2.254423900799     1.124091766697     1.007825032230
         H           -1.087330220061     2.564082900799    -0.596331233303     1.007825032230
         H           -2.464817220061     2.564567900799     0.546407766697     1.007825032230

  Basis Set: AUG-CC-PVTZ
    Blend: AUG-CC-PVTZ
  Basis Set: (AUG-CC-PVTZ AUX)
    Blend: AUG-CC-PVTZ-JKFIT
	 Reference Energy          =    -525.5579883771413279 [Eh]
	 Singles Energy            =      -0.0000000000000000 [Eh]
	 Same-Spin Energy          =      -0.5777577423832378 [Eh]
	 Opposite-Spin Energy      =      -1.7380767443900742 [Eh]
	 Correlation Energy        =      -2.3158344867733121 [Eh]
	 Total Energy              =    -527.8738228639145973 [Eh]

	 ================> DF-SCS-MP2 Energies <==================
	-----------------------------------------------------------
	 SCS Same-Spin Scale       =       0.3333333333333333 [-]
	 SCS Opposite-Spin Scale   =       1.2000000000000000 [-]
	 SCS Same-Spin Energy      =      -0.1925859141277459 [Eh]
	 SCS Opposite-Spin Energy  =      -2.0856920932680891 [Eh]
	 SCS Correlation Energy    =      -2.2782780073958349 [Eh]
	 SCS Total Energy          =    -527.8362663845371117 [Eh]
	-----------------------------------------------------------

  Dipole Moment: [D]
     X:     1.4572      Y:     4.1269      Z:     0.4741     Total:     4.4022

*** Psi4 exiting successfully. Buy a developer a beer!
