                               Psi4 1.4a3.dev225

  ==> Input File <==

--------------------------------------------------------------------------
#psi4
#
memory 32 gb

molecule  {
0 1
  N       -1.7314010     0.6447010     0.0841650
  N       -1.4345640    -1.5648400    -0.1846490
  N        1.1113180     1.0210360    -0.2929590
  N        1.3650780    -1.3052570     0.2771500
  C       -0.8211750    -0.3840720    -0.0264870
  C        0.6302560    -0.2085840    -0.0077820
  C       -2.9774260     0.0775420    -0.0074450
  C       -2.7669850    -1.2782450    -0.1740670
  C        2.4478010     1.1517920    -0.2896530
  C        2.6936640    -1.1417610     0.2510410
  C        3.2993530     0.0833730    -0.0301630
  H       -3.8593333     0.6639831     0.0616294
  H       -3.5116600    -2.0553930    -0.2887470
  H        2.8330150     2.1453150    -0.5142540
  H        3.2873230    -2.0271970     0.4738100
  H        4.3785670     0.1979470    -0.0409660
  C       -1.4969110     2.0704780     0.2948980
  H       -0.7998500     2.2172910     1.1191120
  H       -1.0792200     2.5269500    -0.6013110
  H       -2.4567070     2.5274350     0.5414280
units angstrom
no_reorient  #important for SAPT in psi4, default
symmetry c1  #important for SAPT in psi4, default
}

set PROPERTIES_ORIGIN ["COM"]
properties('MP2/aug-cc-pvtz', properties = ['dipole'])
--------------------------------------------------------------------------

    Molecular point group: c1
  Charge       = 0
  Multiplicity = 1
  Basis Set: AUG-CC-PVTZ
    Blend: AUG-CC-PVTZ
  Basis Set: (AUG-CC-PVTZ AUX)
    Blend: AUG-CC-PVTZ-JKFIT

    Orbital Energies [Eh]
    ---------------------

    Doubly Occupied:

       1A    -15.625665     2A    -15.579976     3A    -15.574870
       4A    -15.546413     5A    -11.333345     6A    -11.305810
       7A    -11.302938     8A    -11.295338     9A    -11.273424
      10A    -11.257692    11A    -11.251806    12A    -11.240263
      13A     -1.344729    14A     -1.308034    15A     -1.197892
      16A     -1.177816    17A     -1.088950    18A     -1.008483
      19A     -0.968534    20A     -0.899278    21A     -0.894305
      22A     -0.803333    23A     -0.785138    24A     -0.727023
      25A     -0.702798    26A     -0.686753    27A     -0.646221
      28A     -0.641068    29A     -0.608106    30A     -0.592901
      31A     -0.587596    32A     -0.579931    33A     -0.569879
      34A     -0.556316    35A     -0.543202    36A     -0.481116
      37A     -0.436202    38A     -0.424198    39A     -0.412379
      40A     -0.396580    41A     -0.377791    42A     -0.298541

  @DF-RHF Final Energy:  -525.55810268171194

   => Energetics <=

    Nuclear Repulsion Energy =            654.2273815382535531
    One-Electron Energy =               -2010.9057000701177458
    Two-Electron Energy =                 831.1202158501521353
    Total Energy =                       -525.5581026817119437
  Basis Set: (AUG-CC-PVTZ AUX)
    Blend: AUG-CC-PVTZ-RI
    Molecular point group: c1

    Geometry (in Angstrom), charge = 0, multiplicity = 1:

       Center              X                  Y                   Z               Mass
    ------------   -----------------  -----------------  -----------------  -----------------
         N           -1.739081913157     0.683268250462     0.088836437183    14.003074004430
         N           -1.442244913157    -1.526272749538    -0.179977562817    14.003074004430
         N            1.103637086843     1.059603250462    -0.288287562817    14.003074004430
         N            1.357397086843    -1.266689749538     0.281821437183    14.003074004430
         C           -0.828855913157    -0.345504749538    -0.021815562817    12.000000000000
         C            0.622575086843    -0.170016749538    -0.003110562817    12.000000000000
         C           -2.985106913157     0.116109250462    -0.002773562817    12.000000000000
         C           -2.774665913157    -1.239677749538    -0.169395562817    12.000000000000
         C            2.440120086843     1.190359250462    -0.284981562817    12.000000000000
         C            2.685983086843    -1.103193749538     0.255712437183    12.000000000000
         C            3.291672086843     0.121940250462    -0.025491562817    12.000000000000
         H           -3.867014213157     0.702550350462     0.066300837183     1.007825032230
         H           -3.519340913157    -2.016825749538    -0.284075562817     1.007825032230
         H            2.825334086843     2.183882250462    -0.509582562817     1.007825032230
         H            3.279642086843    -1.988629749538     0.478481437183     1.007825032230
         H            4.370886086843     0.236514250462    -0.036294562817     1.007825032230
         C           -1.504591913157     2.109045250462     0.299569437183    12.000000000000
         H           -0.807530913157     2.255858250462     1.123783437183     1.007825032230
         H           -1.086900913157     2.565517250462    -0.596639562817     1.007825032230
         H           -2.464387913157     2.566002250462     0.546099437183     1.007825032230

  Basis Set: AUG-CC-PVTZ
    Blend: AUG-CC-PVTZ
  Basis Set: (AUG-CC-PVTZ AUX)
    Blend: AUG-CC-PVTZ-JKFIT
	 Reference Energy          =    -525.5581026817119437 [Eh]
	 Singles Energy            =      -0.0000000000000000 [Eh]
	 Same-Spin Energy          =      -0.5779175169208715 [Eh]
	 Opposite-Spin Energy      =      -1.7381797762080082 [Eh]
	 Correlation Energy        =      -2.3160972931288795 [Eh]
	 Total Energy              =    -527.8741999748408489 [Eh]

	 ================> DF-SCS-MP2 Energies <==================
	-----------------------------------------------------------
	 SCS Same-Spin Scale       =       0.3333333333333333 [-]
	 SCS Opposite-Spin Scale   =       1.2000000000000000 [-]
	 SCS Same-Spin Energy      =      -0.1926391723069572 [Eh]
	 SCS Opposite-Spin Energy  =      -2.0858157314496100 [Eh]
	 SCS Correlation Energy    =      -2.2784549037565669 [Eh]
	 SCS Total Energy          =    -527.8365575854685403 [Eh]
	-----------------------------------------------------------

  Dipole Moment: [D]
     X:     1.3918      Y:     4.1088      Z:     0.4798     Total:     4.3646

*** Psi4 exiting successfully. Buy a developer a beer!
