                               Psi4 1.3.2 release

  ==> Input File <==

--------------------------------------------------------------------------
#psi4
#
memory 32 gb

molecule  {
0 1
  N       -1.7314010     0.6447010     0.0841650
  N       -1.4345640    -1.5648400    -0.1846490
  N        1.1113180     1.0210360    -0.2929590
  N        1.3650780    -1.3052570     0.2771500
  C       -0.9342886    -0.4726533    -0.0393679
  C        0.6302560    -0.2085840    -0.0077820
  C       -2.9774260     0.0775420    -0.0074450
  C       -2.7669850    -1.2782450    -0.1740670
  C        2.4478010     1.1517920    -0.2896530
  C        2.6936640    -1.1417610     0.2510410
  C        3.2993530     0.0833730    -0.0301630
  H       -3.8759520     0.6750340     0.0629310
  H       -3.5116600    -2.0553930    -0.2887470
  H        2.8330150     2.1453150    -0.5142540
  H        3.2873230    -2.0271970     0.4738100
  H        4.3785670     0.1979470    -0.0409660
  C       -1.4969110     2.0704780     0.2948980
  H       -0.7998500     2.2172910     1.1191120
  H       -1.0792200     2.5269500    -0.6013110
  H       -2.4567070     2.5274350     0.5414280
units angstrom
no_reorient  #important for SAPT in psi4, default
symmetry c1  #important for SAPT in psi4, default
}

set PROPERTIES_ORIGIN ["COM"]
properties('MP2/aug-cc-pvtz', properties = ['dipole'])
--------------------------------------------------------------------------

    Molecular point group: c1
  Charge       = 0
  Multiplicity = 1
  Basis Set: AUG-CC-PVTZ
    Blend: AUG-CC-PVTZ
  Basis Set: (AUG-CC-PVTZ AUX)
    Blend: AUG-CC-PVTZ-JKFIT

    Orbital Energies [Eh]
    ---------------------

    Doubly Occupied:

       1A    -15.612496     2A    -15.580286     3A    -15.573625
       4A    -15.537153     5A    -11.334305     6A    -11.305570
       7A    -11.301886     8A    -11.294955     9A    -11.274462
      10A    -11.257902    11A    -11.251525    12A    -11.238206
      13A     -1.364493    14A     -1.307149    15A     -1.213706
      16A     -1.191852    17A     -1.079883    18A     -1.008628
      19A     -0.965047    20A     -0.896759    21A     -0.883722
      22A     -0.813702    23A     -0.773082    24A     -0.727800
      25A     -0.700678    26A     -0.685701    27A     -0.648590
      28A     -0.634239    29A     -0.606660    30A     -0.598050
      31A     -0.589806    32A     -0.577150    33A     -0.560703
      34A     -0.556837    35A     -0.547671    36A     -0.475187
      37A     -0.441894    38A     -0.423041    39A     -0.413043
      40A     -0.402025    41A     -0.380031    42A     -0.306278

  @DF-RHF Final Energy:  -525.53716483815049

   => Energetics <=

    Nuclear Repulsion Energy =            654.3873691442748850
    One-Electron Energy =               -2011.1775125910301085
    Two-Electron Energy =                 831.2529786086048489
    Total Energy =                       -525.5371648381504883
  Basis Set: (AUG-CC-PVTZ AUX)
    Blend: AUG-CC-PVTZ-RI
    Molecular point group: c1

    Geometry (in Angstrom), charge = 0, multiplicity = 1:

       Center              X                  Y                   Z               Mass
    ------------   -----------------  -----------------  -----------------  -----------------
         N           -1.730497731791     0.689839163521     0.089793857856    14.003074004430
         N           -1.433660731791    -1.519701836479    -0.179020142144    14.003074004430
         N            1.112221268209     1.066174163521    -0.287330142144    14.003074004430
         N            1.365981268209    -1.260118836479     0.282778857856    14.003074004430
         C           -0.933385331791    -0.427515136479    -0.033739042144    12.000000000000
         C            0.631159268209    -0.163445836479    -0.002153142144    12.000000000000
         C           -2.976522731791     0.122680163521    -0.001816142144    12.000000000000
         C           -2.766081731791    -1.233106836479    -0.168438142144    12.000000000000
         C            2.448704268209     1.196930163521    -0.284024142144    12.000000000000
         C            2.694567268209    -1.096622836479     0.256669857856    12.000000000000
         C            3.300256268209     0.128511163521    -0.024534142144    12.000000000000
         H           -3.875048731791     0.720172163521     0.068559857856     1.007825032230
         H           -3.510756731791    -2.010254836479    -0.283118142144     1.007825032230
         H            2.833918268209     2.190453163521    -0.508625142144     1.007825032230
         H            3.288226268209    -1.982058836479     0.479438857856     1.007825032230
         H            4.379470268209     0.243085163521    -0.035337142144     1.007825032230
         C           -1.496007731791     2.115616163521     0.300526857856    12.000000000000
         H           -0.798946731791     2.262429163521     1.124740857856     1.007825032230
         H           -1.078316731791     2.572088163521    -0.595682142144     1.007825032230
         H           -2.455803731791     2.572573163521     0.547056857856     1.007825032230

  Basis Set: AUG-CC-PVTZ
    Blend: AUG-CC-PVTZ
  Basis Set: (AUG-CC-PVTZ AUX)
    Blend: AUG-CC-PVTZ-JKFIT
	 Reference Energy          =    -525.5371648381504883 [Eh]
	 Singles Energy            =      -0.0000000000000000 [Eh]
	 Same-Spin Energy          =      -0.5742334026781621 [Eh]
	 Opposite-Spin Energy      =      -1.7329820067328083 [Eh]
	 Correlation Energy        =      -2.3072154094109703 [Eh]
	 Total Energy              =    -527.8443802475615030 [Eh]

	 ================> DF-SCS-MP2 Energies <==================
	-----------------------------------------------------------
	 SCS Same-Spin Scale       =       0.3333333333333333 [-]
	 SCS Opposite-Spin Scale   =       1.2000000000000000 [-]
	 SCS Same-Spin Energy      =      -0.1914111342260540 [Eh]
	 SCS Opposite-Spin Energy  =      -2.0795784080793700 [Eh]
	 SCS Correlation Energy    =      -2.2709895423054238 [Eh]
	 SCS Total Energy          =    -527.8081543804559033 [Eh]
	-----------------------------------------------------------

  Dipole Moment: [D]
     X:     1.6644      Y:     3.9487      Z:     0.4548     Total:     4.3093

*** Psi4 exiting successfully. Buy a developer a beer!
