                               Psi4 1.4a3.dev225

  ==> Input File <==

--------------------------------------------------------------------------
#psi4
#
memory 32 gb

molecule  {
0 1
  N       -1.7314010     0.6447010     0.0841650
  N       -1.4345640    -1.5648400    -0.1846490
  N        1.1113180     1.0210360    -0.2929590
  N        1.3650780    -1.3052570     0.2771500
  C       -0.8211750    -0.3840720    -0.0264870
  C        0.6302560    -0.2085840    -0.0077820
  C       -2.9774260     0.0775420    -0.0074450
  C       -2.7669850    -1.2782450    -0.1740670
  C        2.4478010     1.1517920    -0.2896530
  C        2.6936640    -1.1417610     0.2510410
  C        3.2993530     0.0833730    -0.0301630
  H       -3.8759520     0.6750340     0.0629310
  H       -3.5116600    -2.0553930    -0.2887470
  H        2.8330150     2.1453150    -0.5142540
  H        3.2873230    -2.0271970     0.4738100
  H        4.3785670     0.1979470    -0.0409660
  C       -1.4888817     2.1192987     0.3021138
  H       -0.7998500     2.2172910     1.1191120
  H       -1.0792200     2.5269500    -0.6013110
  H       -2.4567070     2.5274350     0.5414280
units angstrom
no_reorient  #important for SAPT in psi4, default
symmetry c1  #important for SAPT in psi4, default
}

set PROPERTIES_ORIGIN ["COM"]
properties('MP2/aug-cc-pvtz', properties = ['dipole'])
--------------------------------------------------------------------------

    Molecular point group: c1
  Charge       = 0
  Multiplicity = 1
  Basis Set: AUG-CC-PVTZ
    Blend: AUG-CC-PVTZ
  Basis Set: (AUG-CC-PVTZ AUX)
    Blend: AUG-CC-PVTZ-JKFIT

    Orbital Energies [Eh]
    ---------------------

    Doubly Occupied:

       1A    -15.624210     2A    -15.579674     3A    -15.574284
       4A    -15.544839     5A    -11.332767     6A    -11.305623
       7A    -11.302615     8A    -11.293448     9A    -11.275331
      10A    -11.258448    11A    -11.251367    12A    -11.238818
      13A     -1.340190    14A     -1.306738    15A     -1.196888
      16A     -1.171166    17A     -1.088255    18A     -1.005999
      19A     -0.970364    20A     -0.898828    21A     -0.893430
      22A     -0.799413    23A     -0.783083    24A     -0.722362
      25A     -0.702098    26A     -0.683972    27A     -0.645835
      28A     -0.638734    29A     -0.608789    30A     -0.593058
      31A     -0.584401    32A     -0.578518    33A     -0.570349
      34A     -0.556723    35A     -0.548489    36A     -0.481460
      37A     -0.434761    38A     -0.424018    39A     -0.412030
      40A     -0.396025    41A     -0.377734    42A     -0.297138

  @DF-RHF Final Energy:  -525.55582859624269

   => Energetics <=

    Nuclear Repulsion Energy =            653.1459711252168745
    One-Electron Energy =               -2008.8190563671305426
    Two-Electron Energy =                 830.1172566456709774
    Total Energy =                       -525.5558285962426908
  Basis Set: (AUG-CC-PVTZ AUX)
    Blend: AUG-CC-PVTZ-RI
    Molecular point group: c1

    Geometry (in Angstrom), charge = 0, multiplicity = 1:

       Center              X                  Y                   Z               Mass
    ------------   -----------------  -----------------  -----------------  -----------------
         N           -1.739579198241     0.679538835123     0.088287310574    14.003074004430
         N           -1.442742198241    -1.530002164877    -0.180526689426    14.003074004430
         N            1.103139801759     1.055873835123    -0.288836689426    14.003074004430
         N            1.356899801759    -1.270419164877     0.281272310574    14.003074004430
         C           -0.829353198241    -0.349234164877    -0.022364689426    12.000000000000
         C            0.622077801759    -0.173746164877    -0.003659689426    12.000000000000
         C           -2.985604198241     0.112379835123    -0.003322689426    12.000000000000
         C           -2.775163198241    -1.243407164877    -0.169944689426    12.000000000000
         C            2.439622801759     1.186629835123    -0.285530689426    12.000000000000
         C            2.685485801759    -1.106923164877     0.255163310574    12.000000000000
         C            3.291174801759     0.118210835123    -0.026040689426    12.000000000000
         H           -3.884130198241     0.709871835123     0.067053310574     1.007825032230
         H           -3.519838198241    -2.020555164877    -0.284624689426     1.007825032230
         H            2.824836801759     2.180152835123    -0.510131689426     1.007825032230
         H            3.279144801759    -1.992359164877     0.477932310574     1.007825032230
         H            4.370388801759     0.232784835123    -0.036843689426     1.007825032230
         C           -1.497059898241     2.154136535123     0.306236110574    12.000000000000
         H           -0.808028198241     2.252128835123     1.123234310574     1.007825032230
         H           -1.087398198241     2.561787835123    -0.597188689426     1.007825032230
         H           -2.464885198241     2.562272835123     0.545550310574     1.007825032230

  Basis Set: AUG-CC-PVTZ
    Blend: AUG-CC-PVTZ
  Basis Set: (AUG-CC-PVTZ AUX)
    Blend: AUG-CC-PVTZ-JKFIT
	 Reference Energy          =    -525.5558285962426908 [Eh]
	 Singles Energy            =      -0.0000000000000000 [Eh]
	 Same-Spin Energy          =      -0.5777893319573305 [Eh]
	 Opposite-Spin Energy      =      -1.7384110346444508 [Eh]
	 Correlation Energy        =      -2.3162003666017812 [Eh]
	 Total Energy              =    -527.8720289628445244 [Eh]

	 ================> DF-SCS-MP2 Energies <==================
	-----------------------------------------------------------
	 SCS Same-Spin Scale       =       0.3333333333333333 [-]
	 SCS Opposite-Spin Scale   =       1.2000000000000000 [-]
	 SCS Same-Spin Energy      =      -0.1925964439857768 [Eh]
	 SCS Opposite-Spin Energy  =      -2.0860932415733409 [Eh]
	 SCS Correlation Energy    =      -2.2786896855591179 [Eh]
	 SCS Total Energy          =    -527.8345182818018202 [Eh]
	-----------------------------------------------------------

  Dipole Moment: [D]
     X:     1.3855      Y:     4.2349      Z:     0.4987     Total:     4.4836

*** Psi4 exiting successfully. Buy a developer a beer!
