                               Psi4 1.3.2 release

  ==> Input File <==

--------------------------------------------------------------------------
#psi4
#
memory 32 gb

molecule  {
0 1
  N       -1.7314010     0.6447010     0.0841650
  N       -1.4345640    -1.5648400    -0.1846490
  N        1.0221831     1.0497488    -0.3039300
  N        1.3650780    -1.3052570     0.2771500
  C       -0.8211750    -0.3840720    -0.0264870
  C        0.6302560    -0.2085840    -0.0077820
  C       -2.9774260     0.0775420    -0.0074450
  C       -2.7669850    -1.2782450    -0.1740670
  C        2.4478010     1.1517920    -0.2896530
  C        2.6936640    -1.1417610     0.2510410
  C        3.2993530     0.0833730    -0.0301630
  H       -3.8759520     0.6750340     0.0629310
  H       -3.5116600    -2.0553930    -0.2887470
  H        2.8330150     2.1453150    -0.5142540
  H        3.2873230    -2.0271970     0.4738100
  H        4.3785670     0.1979470    -0.0409660
  C       -1.4969110     2.0704780     0.2948980
  H       -0.7998500     2.2172910     1.1191120
  H       -1.0792200     2.5269500    -0.6013110
  H       -2.4567070     2.5274350     0.5414280
units angstrom
no_reorient  #important for SAPT in psi4, default
symmetry c1  #important for SAPT in psi4, default
}

set PROPERTIES_ORIGIN ["COM"]
properties('MP2/aug-cc-pvtz', properties = ['dipole'])
--------------------------------------------------------------------------

    Molecular point group: c1
  Charge       = 0
  Multiplicity = 1
  Basis Set: AUG-CC-PVTZ
    Blend: AUG-CC-PVTZ
  Basis Set: (AUG-CC-PVTZ AUX)
    Blend: AUG-CC-PVTZ-JKFIT

    Orbital Energies [Eh]
    ---------------------

    Doubly Occupied:

       1A    -15.623249     2A    -15.590555     3A    -15.576847
       4A    -15.543687     5A    -11.332736     6A    -11.316480
       7A    -11.309166     8A    -11.291590     9A    -11.270702
      10A    -11.257594    11A    -11.256666    12A    -11.238029
      13A     -1.342318    14A     -1.299829    15A     -1.190296
      16A     -1.174440    17A     -1.090762    18A     -1.005750
      19A     -0.966028    20A     -0.904892    21A     -0.885961
      22A     -0.800159    23A     -0.779491    24A     -0.724847
      25A     -0.696463    26A     -0.684701    27A     -0.644115
      28A     -0.642004    29A     -0.602989    30A     -0.591542
      31A     -0.583377    32A     -0.576848    33A     -0.567807
      34A     -0.551786    35A     -0.540097    36A     -0.481479
      37A     -0.436916    38A     -0.420070    39A     -0.417591
      40A     -0.399253    41A     -0.376737    42A     -0.297829

  @DF-RHF Final Energy:  -525.54524951957490

   => Energetics <=

    Nuclear Repulsion Energy =            653.3575319517220805
    One-Electron Energy =               -2009.2382048560307339
    Two-Electron Energy =                 830.3354233847336445
    Total Energy =                       -525.5452495195748952
  Basis Set: (AUG-CC-PVTZ AUX)
    Blend: AUG-CC-PVTZ-RI
    Molecular point group: c1

    Geometry (in Angstrom), charge = 0, multiplicity = 1:

       Center              X                  Y                   Z               Mass
    ------------   -----------------  -----------------  -----------------  -----------------
         N           -1.731179916202     0.680686928553     0.089787966395    14.003074004430
         N           -1.434342916202    -1.528854071447    -0.179026033605    14.003074004430
         N            1.022404183798     1.085734728553    -0.298307033605    14.003074004430
         N            1.365299083798    -1.269271071447     0.282772966395    14.003074004430
         C           -0.820953916202    -0.348086071447    -0.020864033605    12.000000000000
         C            0.630477083798    -0.172598071447    -0.002159033605    12.000000000000
         C           -2.977204916202     0.113527928553    -0.001822033605    12.000000000000
         C           -2.766763916202    -1.242259071447    -0.168444033605    12.000000000000
         C            2.448022083798     1.187777928553    -0.284030033605    12.000000000000
         C            2.693885083798    -1.105775071447     0.256663966395    12.000000000000
         C            3.299574083798     0.119358928553    -0.024540033605    12.000000000000
         H           -3.875730916202     0.711019928553     0.068553966395     1.007825032230
         H           -3.511438916202    -2.019407071447    -0.283124033605     1.007825032230
         H            2.833236083798     2.181300928553    -0.508631033605     1.007825032230
         H            3.287544083798    -1.991211071447     0.479432966395     1.007825032230
         H            4.378788083798     0.233932928553    -0.035343033605     1.007825032230
         C           -1.496689916202     2.106463928553     0.300520966395    12.000000000000
         H           -0.799628916202     2.253276928553     1.124734966395     1.007825032230
         H           -1.078998916202     2.562935928553    -0.595688033605     1.007825032230
         H           -2.456485916202     2.563420928553     0.547050966395     1.007825032230

  Basis Set: AUG-CC-PVTZ
    Blend: AUG-CC-PVTZ
  Basis Set: (AUG-CC-PVTZ AUX)
    Blend: AUG-CC-PVTZ-JKFIT
	 Reference Energy          =    -525.5452495195748952 [Eh]
	 Singles Energy            =      -0.0000000000000000 [Eh]
	 Same-Spin Energy          =      -0.5787788115347419 [Eh]
	 Opposite-Spin Energy      =      -1.7416680768322133 [Eh]
	 Correlation Energy        =      -2.3204468883669551 [Eh]
	 Total Energy              =    -527.8656964079418685 [Eh]

	 ================> DF-SCS-MP2 Energies <==================
	-----------------------------------------------------------
	 SCS Same-Spin Scale       =       0.3333333333333333 [-]
	 SCS Opposite-Spin Scale   =       1.2000000000000000 [-]
	 SCS Same-Spin Energy      =      -0.1929262705115806 [Eh]
	 SCS Opposite-Spin Energy  =      -2.0900016921986557 [Eh]
	 SCS Correlation Energy    =      -2.2829279627102363 [Eh]
	 SCS Total Energy          =    -527.8281774822851276 [Eh]
	-----------------------------------------------------------

  Dipole Moment: [D]
     X:     1.6876      Y:     4.0239      Z:     0.5026     Total:     4.3923

*** Psi4 exiting successfully. Buy a developer a beer!
