                               Psi4 1.3.2 release

  ==> Input File <==

--------------------------------------------------------------------------
#psi4
#
memory 32 gb

molecule  {
0 1
  N       -1.7314010     0.6447010     0.0841650
  N       -1.4345640    -1.5648400    -0.1846490
  N        1.2404933     0.9667862    -0.2739160
  N        1.3650780    -1.3052570     0.2771500
  C       -0.8211750    -0.3840720    -0.0264870
  C        0.6302560    -0.2085840    -0.0077820
  C       -2.9774260     0.0775420    -0.0074450
  C       -2.7669850    -1.2782450    -0.1740670
  C        2.4478010     1.1517920    -0.2896530
  C        2.6936640    -1.1417610     0.2510410
  C        3.2993530     0.0833730    -0.0301630
  H       -3.8759520     0.6750340     0.0629310
  H       -3.5116600    -2.0553930    -0.2887470
  H        2.8330150     2.1453150    -0.5142540
  H        3.2873230    -2.0271970     0.4738100
  H        4.3785670     0.1979470    -0.0409660
  C       -1.4969110     2.0704780     0.2948980
  H       -0.7998500     2.2172910     1.1191120
  H       -1.0792200     2.5269500    -0.6013110
  H       -2.4567070     2.5274350     0.5414280
units angstrom
no_reorient  #important for SAPT in psi4, default
symmetry c1  #important for SAPT in psi4, default
}

set PROPERTIES_ORIGIN ["COM"]
properties('MP2/aug-cc-pvtz', properties = ['dipole'])
--------------------------------------------------------------------------

    Molecular point group: c1
  Charge       = 0
  Multiplicity = 1
  Basis Set: AUG-CC-PVTZ
    Blend: AUG-CC-PVTZ
  Basis Set: (AUG-CC-PVTZ AUX)
    Blend: AUG-CC-PVTZ-JKFIT

    Orbital Energies [Eh]
    ---------------------

    Doubly Occupied:

       1A    -15.629429     2A    -15.572552     3A    -15.562194
       4A    -15.550377     5A    -11.335449     6A    -11.301417
       7A    -11.293224     8A    -11.287450     9A    -11.277759
      10A    -11.263137    11A    -11.244484    12A    -11.243699
      13A     -1.350128    14A     -1.326556    15A     -1.211736
      16A     -1.182293    17A     -1.085326    18A     -1.009923
      19A     -0.972358    20A     -0.907719    21A     -0.888850
      22A     -0.805732    23A     -0.793547    24A     -0.730914
      25A     -0.713677    26A     -0.687092    27A     -0.650050
      28A     -0.636387    29A     -0.613323    30A     -0.595545
      31A     -0.594273    32A     -0.584949    33A     -0.574839
      34A     -0.561115    35A     -0.548448    36A     -0.474934
      37A     -0.439003    38A     -0.434829    39A     -0.394959
      40A     -0.392260    41A     -0.378099    42A     -0.298795

  @DF-RHF Final Energy:  -525.54392236104570

   => Energetics <=

    Nuclear Repulsion Energy =            655.6894198484554863
    One-Electron Energy =               -2013.6690289353462049
    Two-Electron Energy =                 832.4356867258451302
    Total Energy =                       -525.5439223610457020
  Basis Set: (AUG-CC-PVTZ AUX)
    Blend: AUG-CC-PVTZ-RI
    Molecular point group: c1

    Geometry (in Angstrom), charge = 0, multiplicity = 1:

       Center              X                  Y                   Z               Mass
    ------------   -----------------  -----------------  -----------------  -----------------
         N           -1.750277313468     0.687944352761     0.087162393785    14.003074004430
         N           -1.453440313468    -1.521596647239    -0.181651606215    14.003074004430
         N            1.221616986532     1.010029552761    -0.270918606215    14.003074004430
         N            1.346201686532    -1.262013647239     0.280147393785    14.003074004430
         C           -0.840051313468    -0.340828647239    -0.023489606215    12.000000000000
         C            0.611379686532    -0.165340647239    -0.004784606215    12.000000000000
         C           -2.996302313468     0.120785352761    -0.004447606215    12.000000000000
         C           -2.785861313468    -1.235001647239    -0.171069606215    12.000000000000
         C            2.428924686532     1.195035352761    -0.286655606215    12.000000000000
         C            2.674787686532    -1.098517647239     0.254038393785    12.000000000000
         C            3.280476686532     0.126616352761    -0.027165606215    12.000000000000
         H           -3.894828313468     0.718277352761     0.065928393785     1.007825032230
         H           -3.530536313468    -2.012149647239    -0.285749606215     1.007825032230
         H            2.814138686532     2.188558352761    -0.511256606215     1.007825032230
         H            3.268446686532    -1.983953647239     0.476807393785     1.007825032230
         H            4.359690686532     0.241190352761    -0.037968606215     1.007825032230
         C           -1.515787313468     2.113721352761     0.297895393785    12.000000000000
         H           -0.818726313468     2.260534352761     1.122109393785     1.007825032230
         H           -1.098096313468     2.570193352761    -0.598313606215     1.007825032230
         H           -2.475583313468     2.570678352761     0.544425393785     1.007825032230

  Basis Set: AUG-CC-PVTZ
    Blend: AUG-CC-PVTZ
  Basis Set: (AUG-CC-PVTZ AUX)
    Blend: AUG-CC-PVTZ-JKFIT
	 Reference Energy          =    -525.5439223610457020 [Eh]
	 Singles Energy            =      -0.0000000000000000 [Eh]
	 Same-Spin Energy          =      -0.5772807356730618 [Eh]
	 Opposite-Spin Energy      =      -1.7354361337620305 [Eh]
	 Correlation Energy        =      -2.3127168694350924 [Eh]
	 Total Energy              =    -527.8566392304808232 [Eh]

	 ================> DF-SCS-MP2 Energies <==================
	-----------------------------------------------------------
	 SCS Same-Spin Scale       =       0.3333333333333333 [-]
	 SCS Opposite-Spin Scale   =       1.2000000000000000 [-]
	 SCS Same-Spin Energy      =      -0.1924269118910206 [Eh]
	 SCS Opposite-Spin Energy  =      -2.0825233605144366 [Eh]
	 SCS Correlation Energy    =      -2.2749502724054573 [Eh]
	 SCS Total Energy          =    -527.8188726334511784 [Eh]
	-----------------------------------------------------------

  Dipole Moment: [D]
     X:     0.8667      Y:     4.2555      Z:     0.4385     Total:     4.3649

*** Psi4 exiting successfully. Buy a developer a beer!
