                               Psi4 1.3.2 release

  ==> Input File <==

--------------------------------------------------------------------------
#psi4
#
memory 32 gb

molecule  {
0 1
  N       -1.7314010     0.6447010     0.0841650
  N       -1.4345640    -1.5648400    -0.1846490
  N        1.1113180     1.0210360    -0.2929590
  N        1.3650780    -1.3052570     0.2771500
  C       -0.8211750    -0.3840720    -0.0264870
  C        0.6302560    -0.2085840    -0.0077820
  C       -2.9774260     0.0775420    -0.0074450
  C       -2.7194413    -1.2701521    -0.1728875
  C        2.4478010     1.1517920    -0.2896530
  C        2.6936640    -1.1417610     0.2510410
  C        3.2993530     0.0833730    -0.0301630
  H       -3.8759520     0.6750340     0.0629310
  H       -3.5116600    -2.0553930    -0.2887470
  H        2.8330150     2.1453150    -0.5142540
  H        3.2873230    -2.0271970     0.4738100
  H        4.3785670     0.1979470    -0.0409660
  C       -1.4969110     2.0704780     0.2948980
  H       -0.7998500     2.2172910     1.1191120
  H       -1.0792200     2.5269500    -0.6013110
  H       -2.4567070     2.5274350     0.5414280
units angstrom
no_reorient  #important for SAPT in psi4, default
symmetry c1  #important for SAPT in psi4, default
}

set PROPERTIES_ORIGIN ["COM"]
properties('MP2/aug-cc-pvtz', properties = ['dipole'])
--------------------------------------------------------------------------

    Molecular point group: c1
  Charge       = 0
  Multiplicity = 1
  Basis Set: AUG-CC-PVTZ
    Blend: AUG-CC-PVTZ
  Basis Set: (AUG-CC-PVTZ AUX)
    Blend: AUG-CC-PVTZ-JKFIT

    Orbital Energies [Eh]
    ---------------------

    Doubly Occupied:

       1A    -15.628320     2A    -15.579291     3A    -15.574357
       4A    -15.544789     5A    -11.332873     6A    -11.305490
       7A    -11.302681     8A    -11.294819     9A    -11.273869
      10A    -11.257640    11A    -11.251200    12A    -11.240425
      13A     -1.350570    14A     -1.308563    15A     -1.199936
      16A     -1.186287    17A     -1.088889    18A     -1.007244
      19A     -0.971800    20A     -0.898928    21A     -0.892280
      22A     -0.799340    23A     -0.786477    24A     -0.729529
      25A     -0.701979    26A     -0.685332    27A     -0.647715
      28A     -0.639873    29A     -0.607604    30A     -0.591410
      31A     -0.589393    32A     -0.579963    33A     -0.569817
      34A     -0.549432    35A     -0.546957    36A     -0.480734
      37A     -0.438198    38A     -0.424023    39A     -0.412510
      40A     -0.396866    41A     -0.384413    42A     -0.295388

  @DF-RHF Final Energy:  -525.55495503653663

   => Energetics <=

    Nuclear Repulsion Energy =            655.2139006564959800
    One-Electron Energy =               -2012.8433085388576274
    Two-Electron Energy =                 832.0744528458250215
    Total Energy =                       -525.5549550365366258
  Basis Set: (AUG-CC-PVTZ AUX)
    Blend: AUG-CC-PVTZ-RI
    Molecular point group: c1

    Geometry (in Angstrom), charge = 0, multiplicity = 1:

       Center              X                  Y                   Z               Mass
    ------------   -----------------  -----------------  -----------------  -----------------
         N           -1.742541391633     0.682591990935     0.088739821253    14.003074004430
         N           -1.445704391633    -1.526949009065    -0.180074178747    14.003074004430
         N            1.100177608367     1.058926990935    -0.288384178747    14.003074004430
         N            1.353937608367    -1.267366009065     0.281724821253    14.003074004430
         C           -0.832315391633    -0.346181009065    -0.021912178747    12.000000000000
         C            0.619115608367    -0.170693009065    -0.003207178747    12.000000000000
         C           -2.988566391633     0.115432990935    -0.002870178747    12.000000000000
         C           -2.730581691633    -1.232261109065    -0.168312678747    12.000000000000
         C            2.436660608367     1.189682990935    -0.285078178747    12.000000000000
         C            2.682523608367    -1.103870009065     0.255615821253    12.000000000000
         C            3.288212608367     0.121263990935    -0.025588178747    12.000000000000
         H           -3.887092391633     0.712924990935     0.067505821253     1.007825032230
         H           -3.522800391633    -2.017502009065    -0.284172178747     1.007825032230
         H            2.821874608367     2.183205990935    -0.509679178747     1.007825032230
         H            3.276182608367    -1.989306009065     0.478384821253     1.007825032230
         H            4.367426608367     0.235837990935    -0.036391178747     1.007825032230
         C           -1.508051391633     2.108368990935     0.299472821253    12.000000000000
         H           -0.810990391633     2.255181990935     1.123686821253     1.007825032230
         H           -1.090360391633     2.564840990935    -0.596736178747     1.007825032230
         H           -2.467847391633     2.565325990935     0.546002821253     1.007825032230

  Basis Set: AUG-CC-PVTZ
    Blend: AUG-CC-PVTZ
  Basis Set: (AUG-CC-PVTZ AUX)
    Blend: AUG-CC-PVTZ-JKFIT
	 Reference Energy          =    -525.5549550365366258 [Eh]
	 Singles Energy            =      -0.0000000000000000 [Eh]
	 Same-Spin Energy          =      -0.5783821562651836 [Eh]
	 Opposite-Spin Energy      =      -1.7381383025779849 [Eh]
	 Correlation Energy        =      -2.3165204588431685 [Eh]
	 Total Energy              =    -527.8714754953797410 [Eh]

	 ================> DF-SCS-MP2 Energies <==================
	-----------------------------------------------------------
	 SCS Same-Spin Scale       =       0.3333333333333333 [-]
	 SCS Opposite-Spin Scale   =       1.2000000000000000 [-]
	 SCS Same-Spin Energy      =      -0.1927940520883945 [Eh]
	 SCS Opposite-Spin Energy  =      -2.0857659630935816 [Eh]
	 SCS Correlation Energy    =      -2.2785600151819763 [Eh]
	 SCS Total Energy          =    -527.8335150517185639 [Eh]
	-----------------------------------------------------------

  Dipole Moment: [D]
     X:     1.3639      Y:     4.1224      Z:     0.4814     Total:     4.3688

*** Psi4 exiting successfully. Buy a developer a beer!
