                               Psi4 1.3.2 release

  ==> Input File <==

--------------------------------------------------------------------------
#psi4
#
memory 32 gb

molecule  {
0 1
  N       -1.7314010     0.6447010     0.0841650
  N       -1.4345640    -1.5648400    -0.1846490
  N        1.1113180     1.0210360    -0.2929590
  N        1.3650780    -1.3052570     0.2771500
  C       -0.8211750    -0.3840720    -0.0264870
  C        0.6302560    -0.2085840    -0.0077820
  C       -2.9774260     0.0775420    -0.0074450
  C       -2.6692239    -1.2992728    -0.1748434
  C        2.4478010     1.1517920    -0.2896530
  C        2.6936640    -1.1417610     0.2510410
  C        3.2993530     0.0833730    -0.0301630
  H       -3.8759520     0.6750340     0.0629310
  H       -3.5116600    -2.0553930    -0.2887470
  H        2.8330150     2.1453150    -0.5142540
  H        3.2873230    -2.0271970     0.4738100
  H        4.3785670     0.1979470    -0.0409660
  C       -1.4969110     2.0704780     0.2948980
  H       -0.7998500     2.2172910     1.1191120
  H       -1.0792200     2.5269500    -0.6013110
  H       -2.4567070     2.5274350     0.5414280
units angstrom
no_reorient  #important for SAPT in psi4, default
symmetry c1  #important for SAPT in psi4, default
}

set PROPERTIES_ORIGIN ["COM"]
properties('MP2/aug-cc-pvtz', properties = ['dipole'])
--------------------------------------------------------------------------

    Molecular point group: c1
  Charge       = 0
  Multiplicity = 1
  Basis Set: AUG-CC-PVTZ
    Blend: AUG-CC-PVTZ
  Basis Set: (AUG-CC-PVTZ AUX)
    Blend: AUG-CC-PVTZ-JKFIT

    Orbital Energies [Eh]
    ---------------------

    Doubly Occupied:

       1A    -15.634648     2A    -15.577346     3A    -15.572507
       4A    -15.543066     5A    -11.331659     6A    -11.304379
       7A    -11.301571     8A    -11.292551     9A    -11.275425
      10A    -11.260020    11A    -11.249310    12A    -11.243490
      13A     -1.356925    14A     -1.307891    15A     -1.209145
      16A     -1.190889    17A     -1.087526    18A     -1.001916
      19A     -0.977398    20A     -0.897837    21A     -0.888531
      22A     -0.801501    23A     -0.785206    24A     -0.732749
      25A     -0.700623    26A     -0.684345    27A     -0.649394
      28A     -0.639422    29A     -0.611526    30A     -0.590790
      31A     -0.590412    32A     -0.579821    33A     -0.570276
      34A     -0.551110    35A     -0.549771    36A     -0.479535
      37A     -0.434463    38A     -0.423051    39A     -0.411059
      40A     -0.400937    41A     -0.389983    42A     -0.286788

  @DF-RHF Final Energy:  -525.54448118552659

   => Energetics <=

    Nuclear Repulsion Energy =            655.8477193441487998
    One-Electron Energy =               -2014.0508134008100569
    Two-Electron Energy =                 832.6586128711346646
    Total Energy =                       -525.5444811855265925
  Basis Set: (AUG-CC-PVTZ AUX)
    Blend: AUG-CC-PVTZ-RI
    Molecular point group: c1

    Geometry (in Angstrom), charge = 0, multiplicity = 1:

       Center              X                  Y                   Z               Mass
    ------------   -----------------  -----------------  -----------------  -----------------
         N           -1.746305934444     0.684775021555     0.088886445118    14.003074004430
         N           -1.449468934444    -1.524765978445    -0.179927554882    14.003074004430
         N            1.096413065556     1.061110021555    -0.288237554882    14.003074004430
         N            1.350173065556    -1.265182978445     0.281871445118    14.003074004430
         C           -0.836079934444    -0.343997978445    -0.021765554882    12.000000000000
         C            0.615351065556    -0.168509978445    -0.003060554882    12.000000000000
         C           -2.992330934444     0.117616021555    -0.002723554882    12.000000000000
         C           -2.684128834444    -1.259198778445    -0.170121954882    12.000000000000
         C            2.432896065556     1.191866021555    -0.284931554882    12.000000000000
         C            2.678759065556    -1.101686978445     0.255762445118    12.000000000000
         C            3.284448065556     0.123447021555    -0.025441554882    12.000000000000
         H           -3.890856934444     0.715108021555     0.067652445118     1.007825032230
         H           -3.526564934444    -2.015318978445    -0.284025554882     1.007825032230
         H            2.818110065556     2.185389021555    -0.509532554882     1.007825032230
         H            3.272418065556    -1.987122978445     0.478531445118     1.007825032230
         H            4.363662065556     0.238021021555    -0.036244554882     1.007825032230
         C           -1.511815934444     2.110552021555     0.299619445118    12.000000000000
         H           -0.814754934444     2.257365021555     1.123833445118     1.007825032230
         H           -1.094124934444     2.567024021555    -0.596589554882     1.007825032230
         H           -2.471611934444     2.567509021555     0.546149445118     1.007825032230

  Basis Set: AUG-CC-PVTZ
    Blend: AUG-CC-PVTZ
  Basis Set: (AUG-CC-PVTZ AUX)
    Blend: AUG-CC-PVTZ-JKFIT
	 Reference Energy          =    -525.5444811855265925 [Eh]
	 Singles Energy            =      -0.0000000000000000 [Eh]
	 Same-Spin Energy          =      -0.5792340460134053 [Eh]
	 Opposite-Spin Energy      =      -1.7387566307942761 [Eh]
	 Correlation Energy        =      -2.3179906768076814 [Eh]
	 Total Energy              =    -527.8624718623342460 [Eh]

	 ================> DF-SCS-MP2 Energies <==================
	-----------------------------------------------------------
	 SCS Same-Spin Scale       =       0.3333333333333333 [-]
	 SCS Opposite-Spin Scale   =       1.2000000000000000 [-]
	 SCS Same-Spin Energy      =      -0.1930780153378018 [Eh]
	 SCS Opposite-Spin Energy  =      -2.0865079569531311 [Eh]
	 SCS Correlation Energy    =      -2.2795859722909331 [Eh]
	 SCS Total Energy          =    -527.8240671578175807 [Eh]
	-----------------------------------------------------------

  Dipole Moment: [D]
     X:     1.2806      Y:     4.0877      Z:     0.4763     Total:     4.3100

*** Psi4 exiting successfully. Buy a developer a beer!
