                               Psi4 1.4a3.dev225

  ==> Input File <==

--------------------------------------------------------------------------
#psi4
#
memory 32 gb

molecule  {
0 1
  N       -1.7314010     0.6447010     0.0841650
  N       -1.4345640    -1.5648400    -0.1846490
  N        1.1113180     1.0210360    -0.2929590
  N        1.3650780    -1.3052570     0.2771500
  C       -0.8211750    -0.3840720    -0.0264870
  C        0.6302560    -0.2085840    -0.0077820
  C       -2.9774260     0.0775420    -0.0074450
  C       -2.7669850    -1.2782450    -0.1740670
  C        2.4478010     1.1517920    -0.2896530
  C        2.6936640    -1.1417610     0.2510410
  C        3.2993530     0.0833730    -0.0301630
  H       -3.8759520     0.6750340     0.0629310
  H       -3.5116600    -2.0553930    -0.2887470
  H        2.8330150     2.1453150    -0.5142540
  H        3.2873230    -2.0271970     0.4738100
  H        4.3785670     0.1979470    -0.0409660
  C       -1.4936993     2.0900063     0.2977843
  H       -0.7998500     2.2172910     1.1191120
  H       -1.0792200     2.5269500    -0.6013110
  H       -2.4567070     2.5274350     0.5414280
units angstrom
no_reorient  #important for SAPT in psi4, default
symmetry c1  #important for SAPT in psi4, default
}

set PROPERTIES_ORIGIN ["COM"]
properties('MP2/aug-cc-pvtz', properties = ['dipole'])
--------------------------------------------------------------------------

    Molecular point group: c1
  Charge       = 0
  Multiplicity = 1
  Basis Set: AUG-CC-PVTZ
    Blend: AUG-CC-PVTZ
  Basis Set: (AUG-CC-PVTZ AUX)
    Blend: AUG-CC-PVTZ-JKFIT

    Orbital Energies [Eh]
    ---------------------

    Doubly Occupied:

       1A    -15.625238     2A    -15.579865     3A    -15.574650
       4A    -15.545856     5A    -11.333137     6A    -11.305746
       7A    -11.302822     8A    -11.294636     9A    -11.274052
      10A    -11.259344    11A    -11.251640    12A    -11.239747
      13A     -1.342864    14A     -1.307539    15A     -1.197457
      16A     -1.175142    17A     -1.088663    18A     -1.007123
      19A     -0.969210    20A     -0.899109    21A     -0.893718
      22A     -0.801160    23A     -0.783903    24A     -0.725069
      25A     -0.702457    26A     -0.685073    27A     -0.645903
      28A     -0.639332    29A     -0.607734    30A     -0.592700
      31A     -0.585272    32A     -0.579050    33A     -0.570846
      34A     -0.556913    35A     -0.545544    36A     -0.481295
      37A     -0.435640    38A     -0.424140    39A     -0.412259
      40A     -0.396401    41A     -0.377883    42A     -0.298002

  @DF-RHF Final Energy:  -525.55760898618064

   => Energetics <=

    Nuclear Repulsion Energy =            653.7254809513372038
    One-Electron Energy =               -2009.9379133359004754
    Two-Electron Energy =                 830.6548233983826321
    Total Energy =                       -525.5576089861806395
  Basis Set: (AUG-CC-PVTZ AUX)
    Blend: AUG-CC-PVTZ-RI
    Molecular point group: c1

    Geometry (in Angstrom), charge = 0, multiplicity = 1:

       Center              X                  Y                   Z               Mass
    ------------   -----------------  -----------------  -----------------  -----------------
         N           -1.739218047296     0.681734737217     0.088611871146    14.003074004430
         N           -1.442381047296    -1.527806262783    -0.180202128854    14.003074004430
         N            1.103500952704     1.058069737217    -0.288512128854    14.003074004430
         N            1.357260952704    -1.268223262783     0.281596871146    14.003074004430
         C           -0.828992047296    -0.347038262783    -0.022040128854    12.000000000000
         C            0.622438952704    -0.171550262783    -0.003335128854    12.000000000000
         C           -2.985243047296     0.114575737217    -0.002998128854    12.000000000000
         C           -2.774802047296    -1.241211262783    -0.169620128854    12.000000000000
         C            2.439983952704     1.188825737217    -0.285206128854    12.000000000000
         C            2.685846952704    -1.104727262783     0.255487871146    12.000000000000
         C            3.291535952704     0.120406737217    -0.025716128854    12.000000000000
         H           -3.883769047296     0.712067737217     0.067377871146     1.007825032230
         H           -3.519477047296    -2.018359262783    -0.284300128854     1.007825032230
         H            2.825197952704     2.182348737217    -0.509807128854     1.007825032230
         H            3.279505952704    -1.990163262783     0.478256871146     1.007825032230
         H            4.370749952704     0.234980737217    -0.036519128854     1.007825032230
         C           -1.501516347296     2.127040037217     0.302231171146    12.000000000000
         H           -0.807667047296     2.254324737217     1.123558871146     1.007825032230
         H           -1.087037047296     2.563983737217    -0.596864128854     1.007825032230
         H           -2.464524047296     2.564468737217     0.545874871146     1.007825032230

  Basis Set: AUG-CC-PVTZ
    Blend: AUG-CC-PVTZ
  Basis Set: (AUG-CC-PVTZ AUX)
    Blend: AUG-CC-PVTZ-JKFIT
	 Reference Energy          =    -525.5576089861806395 [Eh]
	 Singles Energy            =      -0.0000000000000000 [Eh]
	 Same-Spin Energy          =      -0.5778775332422910 [Eh]
	 Opposite-Spin Energy      =      -1.7383306234691267 [Eh]
	 Correlation Energy        =      -2.3162081567114177 [Eh]
	 Total Energy              =    -527.8738171428921078 [Eh]

	 ================> DF-SCS-MP2 Energies <==================
	-----------------------------------------------------------
	 SCS Same-Spin Scale       =       0.3333333333333333 [-]
	 SCS Opposite-Spin Scale   =       1.2000000000000000 [-]
	 SCS Same-Spin Energy      =      -0.1926258444140970 [Eh]
	 SCS Opposite-Spin Energy  =      -2.0859967481629518 [Eh]
	 SCS Correlation Energy    =      -2.2786225925770487 [Eh]
	 SCS Total Energy          =    -527.8362315787576335 [Eh]
	-----------------------------------------------------------

  Dipole Moment: [D]
     X:     1.3895      Y:     4.1593      Z:     0.4873     Total:     4.4123

*** Psi4 exiting successfully. Buy a developer a beer!
