                               Psi4 1.3.2 release

  ==> Input File <==

--------------------------------------------------------------------------
#psi4
#
memory 32 gb

molecule  {
0 1
  N       -1.7314010     0.6447010     0.0841650
  N       -1.4345640    -1.5648400    -0.1846490
  N        1.1113180     1.0210360    -0.2929590
  N        1.3650780    -1.3052570     0.2771500
  C       -0.8211750    -0.3840720    -0.0264870
  C        0.6302560    -0.2085840    -0.0077820
  C       -2.9774260     0.0775420    -0.0074450
  C       -2.7669850    -1.2782450    -0.1740670
  C        2.4478010     1.1517920    -0.2896530
  C        2.4951991    -1.1661841     0.2549412
  C        3.2993530     0.0833730    -0.0301630
  H       -3.8759520     0.6750340     0.0629310
  H       -3.5116600    -2.0553930    -0.2887470
  H        2.8330150     2.1453150    -0.5142540
  H        3.2873230    -2.0271970     0.4738100
  H        4.3785670     0.1979470    -0.0409660
  C       -1.4969110     2.0704780     0.2948980
  H       -0.7998500     2.2172910     1.1191120
  H       -1.0792200     2.5269500    -0.6013110
  H       -2.4567070     2.5274350     0.5414280
units angstrom
no_reorient  #important for SAPT in psi4, default
symmetry c1  #important for SAPT in psi4, default
}

set PROPERTIES_ORIGIN ["COM"]
properties('MP2/aug-cc-pvtz', properties = ['dipole'])
--------------------------------------------------------------------------

    Molecular point group: c1
  Charge       = 0
  Multiplicity = 1
  Basis Set: AUG-CC-PVTZ
    Blend: AUG-CC-PVTZ
  Basis Set: (AUG-CC-PVTZ AUX)
    Blend: AUG-CC-PVTZ-JKFIT

    Orbital Energies [Eh]
    ---------------------

    Doubly Occupied:

       1A    -15.629669     2A    -15.580252     3A    -15.562964
       4A    -15.552199     5A    -11.343645     6A    -11.299664
       7A    -11.297424     8A    -11.293388     9A    -11.275457
      10A    -11.264889    11A    -11.253291    12A    -11.244638
      13A     -1.367115    14A     -1.340268    15A     -1.234314
      16A     -1.184691    17A     -1.075860    18A     -1.006268
      19A     -0.971769    20A     -0.915768    21A     -0.875371
      22A     -0.805492    23A     -0.789088    24A     -0.728562
      25A     -0.711768    26A     -0.682008    27A     -0.650550
      28A     -0.640004    29A     -0.612893    30A     -0.603186
      31A     -0.591520    32A     -0.584682    33A     -0.564156
      34A     -0.558609    35A     -0.547994    36A     -0.481806
      37A     -0.462607    38A     -0.439305    39A     -0.393624
      40A     -0.389700    41A     -0.374463    42A     -0.298367

  @DF-RHF Final Energy:  -525.50012546124447

   => Energetics <=

    Nuclear Repulsion Energy =            657.6365000587645682
    One-Electron Energy =               -2017.3146790766195409
    Two-Electron Energy =                 834.1780535566105073
    Total Energy =                       -525.5001254612444654
  Basis Set: (AUG-CC-PVTZ AUX)
    Blend: AUG-CC-PVTZ-RI
    Molecular point group: c1

    Geometry (in Angstrom), charge = 0, multiplicity = 1:

       Center              X                  Y                   Z               Mass
    ------------   -----------------  -----------------  -----------------  -----------------
         N           -1.724099379370     0.685029549910     0.088535864225    14.003074004430
         N           -1.427262379370    -1.524511450090    -0.180278135775    14.003074004430
         N            1.118619620630     1.061364549910    -0.288588135775    14.003074004430
         N            1.372379620630    -1.264928450090     0.281520864225    14.003074004430
         C           -0.813873379370    -0.343743450090    -0.022116135775    12.000000000000
         C            0.637557620630    -0.168255450090    -0.003411135775    12.000000000000
         C           -2.970124379370     0.117870549910    -0.003074135775    12.000000000000
         C           -2.759683379370    -1.237916450090    -0.169696135775    12.000000000000
         C            2.455102620630     1.192120549910    -0.285282135775    12.000000000000
         C            2.502500720630    -1.125855550090     0.259312064225    12.000000000000
         C            3.306654620630     0.123701549910    -0.025792135775    12.000000000000
         H           -3.868650379370     0.715362549910     0.067301864225     1.007825032230
         H           -3.504358379370    -2.015064450090    -0.284376135775     1.007825032230
         H            2.840316620630     2.185643549910    -0.509883135775     1.007825032230
         H            3.294624620630    -1.986868450090     0.478180864225     1.007825032230
         H            4.385868620630     0.238275549910    -0.036595135775     1.007825032230
         C           -1.489609379370     2.110806549910     0.299268864225    12.000000000000
         H           -0.792548379370     2.257619549910     1.123482864225     1.007825032230
         H           -1.071918379370     2.567278549910    -0.596940135775     1.007825032230
         H           -2.449405379370     2.567763549910     0.545798864225     1.007825032230

  Basis Set: AUG-CC-PVTZ
    Blend: AUG-CC-PVTZ
  Basis Set: (AUG-CC-PVTZ AUX)
    Blend: AUG-CC-PVTZ-JKFIT
	 Reference Energy          =    -525.5001254612444654 [Eh]
	 Singles Energy            =      -0.0000000000000000 [Eh]
	 Same-Spin Energy          =      -0.5760934501088077 [Eh]
	 Opposite-Spin Energy      =      -1.7364168250639578 [Eh]
	 Correlation Energy        =      -2.3125102751727655 [Eh]
	 Total Energy              =    -527.8126357364171781 [Eh]

	 ================> DF-SCS-MP2 Energies <==================
	-----------------------------------------------------------
	 SCS Same-Spin Scale       =       0.3333333333333333 [-]
	 SCS Opposite-Spin Scale   =       1.2000000000000000 [-]
	 SCS Same-Spin Energy      =      -0.1920311500362692 [Eh]
	 SCS Opposite-Spin Energy  =      -2.0837001900767493 [Eh]
	 SCS Correlation Energy    =      -2.2757313401130186 [Eh]
	 SCS Total Energy          =    -527.7758568013574632 [Eh]
	-----------------------------------------------------------

  Dipole Moment: [D]
     X:     0.7783      Y:     4.0401      Z:     0.4925     Total:     4.1437

*** Psi4 exiting successfully. Buy a developer a beer!
