                               Psi4 1.3.2 release

  ==> Input File <==

--------------------------------------------------------------------------
#psi4
#
memory 32 gb

molecule  {
0 1
  N       -1.7314010     0.6447010     0.0841650
  N       -1.4345640    -1.5648400    -0.1846490
  N        1.1113180     1.0210360    -0.2929590
  N        1.3650780    -1.3052570     0.2771500
  C       -0.8032786    -0.3682710    -0.0235648
  C        0.6302560    -0.2085840    -0.0077820
  C       -2.9774260     0.0775420    -0.0074450
  C       -2.7669850    -1.2782450    -0.1740670
  C        2.4478010     1.1517920    -0.2896530
  C        2.6936640    -1.1417610     0.2510410
  C        3.2993530     0.0833730    -0.0301630
  H       -3.8759520     0.6750340     0.0629310
  H       -3.5116600    -2.0553930    -0.2887470
  H        2.8330150     2.1453150    -0.5142540
  H        3.2873230    -2.0271970     0.4738100
  H        4.3785670     0.1979470    -0.0409660
  C       -1.4969110     2.0704780     0.2948980
  H       -0.7998500     2.2172910     1.1191120
  H       -1.0792200     2.5269500    -0.6013110
  H       -2.4567070     2.5274350     0.5414280
units angstrom
no_reorient  #important for SAPT in psi4, default
symmetry c1  #important for SAPT in psi4, default
}

set PROPERTIES_ORIGIN ["COM"]
properties('MP2/aug-cc-pvtz', properties = ['dipole'])
--------------------------------------------------------------------------

    Molecular point group: c1
  Charge       = 0
  Multiplicity = 1
  Basis Set: AUG-CC-PVTZ
    Blend: AUG-CC-PVTZ
  Basis Set: (AUG-CC-PVTZ AUX)
    Blend: AUG-CC-PVTZ-JKFIT

    Orbital Energies [Eh]
    ---------------------

    Doubly Occupied:

       1A    -15.628402     2A    -15.579429     3A    -15.574668
       4A    -15.548251     5A    -11.332293     6A    -11.305504
       7A    -11.302816     8A    -11.295476     9A    -11.273344
      10A    -11.260852    11A    -11.251448    12A    -11.241284
      13A     -1.343240    14A     -1.307813    15A     -1.197304
      16A     -1.173907    17A     -1.090541    18A     -1.008288
      19A     -0.968956    20A     -0.899410    21A     -0.895607
      22A     -0.800992    23A     -0.785942    24A     -0.726916
      25A     -0.702712    26A     -0.685718    27A     -0.646372
      28A     -0.641028    29A     -0.607404    30A     -0.593021
      31A     -0.586045    32A     -0.580557    33A     -0.570147
      34A     -0.556574    35A     -0.541597    36A     -0.482014
      37A     -0.434394    38A     -0.424082    39A     -0.411788
      40A     -0.396874    41A     -0.377192    42A     -0.296909

  @DF-RHF Final Energy:  -525.55506022686427

   => Energetics <=

    Nuclear Repulsion Energy =            654.1195824292864245
    One-Electron Energy =               -2010.6950672251477954
    Two-Electron Energy =                 831.0204245689972140
    Total Energy =                       -525.5550602268642706
  Basis Set: (AUG-CC-PVTZ AUX)
    Blend: AUG-CC-PVTZ-RI
    Molecular point group: c1

    Geometry (in Angstrom), charge = 0, multiplicity = 1:

       Center              X                  Y                   Z               Mass
    ------------   -----------------  -----------------  -----------------  -----------------
         N           -1.740318884492     0.682014153922     0.088609179906    14.003074004430
         N           -1.443481884492    -1.527526846078    -0.180204820094    14.003074004430
         N            1.102400115508     1.058349153922    -0.288514820094    14.003074004430
         N            1.356160115508    -1.267943846078     0.281594179906    14.003074004430
         C           -0.812196484492    -0.330957846078    -0.019120620094    12.000000000000
         C            0.621338115508    -0.171270846078    -0.003337820094    12.000000000000
         C           -2.986343884492     0.114855153922    -0.003000820094    12.000000000000
         C           -2.775902884492    -1.240931846078    -0.169622820094    12.000000000000
         C            2.438883115508     1.189105153922    -0.285208820094    12.000000000000
         C            2.684746115508    -1.104447846078     0.255485179906    12.000000000000
         C            3.290435115508     0.120686153922    -0.025718820094    12.000000000000
         H           -3.884869884492     0.712347153922     0.067375179906     1.007825032230
         H           -3.520577884492    -2.018079846078    -0.284302820094     1.007825032230
         H            2.824097115508     2.182628153922    -0.509809820094     1.007825032230
         H            3.278405115508    -1.989883846078     0.478254179906     1.007825032230
         H            4.369649115508     0.235260153922    -0.036521820094     1.007825032230
         C           -1.505828884492     2.107791153922     0.299342179906    12.000000000000
         H           -0.808767884492     2.254604153922     1.123556179906     1.007825032230
         H           -1.088137884492     2.564263153922    -0.596866820094     1.007825032230
         H           -2.465624884492     2.564748153922     0.545872179906     1.007825032230

  Basis Set: AUG-CC-PVTZ
    Blend: AUG-CC-PVTZ
  Basis Set: (AUG-CC-PVTZ AUX)
    Blend: AUG-CC-PVTZ-JKFIT
	 Reference Energy          =    -525.5550602268642706 [Eh]
	 Singles Energy            =      -0.0000000000000000 [Eh]
	 Same-Spin Energy          =      -0.5787742594011858 [Eh]
	 Opposite-Spin Energy      =      -1.7396357117730443 [Eh]
	 Correlation Energy        =      -2.3184099711742299 [Eh]
	 Total Energy              =    -527.8734701980384898 [Eh]

	 ================> DF-SCS-MP2 Energies <==================
	-----------------------------------------------------------
	 SCS Same-Spin Scale       =       0.3333333333333333 [-]
	 SCS Opposite-Spin Scale   =       1.2000000000000000 [-]
	 SCS Same-Spin Energy      =      -0.1929247531337286 [Eh]
	 SCS Opposite-Spin Energy  =      -2.0875628541276532 [Eh]
	 SCS Correlation Energy    =      -2.2804876072613816 [Eh]
	 SCS Total Energy          =    -527.8355478341256912 [Eh]
	-----------------------------------------------------------

  Dipole Moment: [D]
     X:     1.3128      Y:     4.1235      Z:     0.4824     Total:     4.3542

*** Psi4 exiting successfully. Buy a developer a beer!
