                               Psi4 1.3.2 release

  ==> Input File <==

--------------------------------------------------------------------------
#psi4
#
memory 32 gb

molecule  {
0 1
  N       -1.8345710     0.5444642     0.0734041
  N       -1.4345640    -1.5648400    -0.1846490
  N        1.1113180     1.0210360    -0.2929590
  N        1.3650780    -1.3052570     0.2771500
  C       -0.8211750    -0.3840720    -0.0264870
  C        0.6302560    -0.2085840    -0.0077820
  C       -2.9774260     0.0775420    -0.0074450
  C       -2.7669850    -1.2782450    -0.1740670
  C        2.4478010     1.1517920    -0.2896530
  C        2.6936640    -1.1417610     0.2510410
  C        3.2993530     0.0833730    -0.0301630
  H       -3.8759520     0.6750340     0.0629310
  H       -3.5116600    -2.0553930    -0.2887470
  H        2.8330150     2.1453150    -0.5142540
  H        3.2873230    -2.0271970     0.4738100
  H        4.3785670     0.1979470    -0.0409660
  C       -1.4969110     2.0704780     0.2948980
  H       -0.7998500     2.2172910     1.1191120
  H       -1.0792200     2.5269500    -0.6013110
  H       -2.4567070     2.5274350     0.5414280
units angstrom
no_reorient  #important for SAPT in psi4, default
symmetry c1  #important for SAPT in psi4, default
}

set PROPERTIES_ORIGIN ["COM"]
properties('MP2/aug-cc-pvtz', properties = ['dipole'])
--------------------------------------------------------------------------

    Molecular point group: c1
  Charge       = 0
  Multiplicity = 1
  Basis Set: AUG-CC-PVTZ
    Blend: AUG-CC-PVTZ
  Basis Set: (AUG-CC-PVTZ AUX)
    Blend: AUG-CC-PVTZ-JKFIT

    Orbital Energies [Eh]
    ---------------------

    Doubly Occupied:

       1A    -15.629318     2A    -15.576808     3A    -15.572200
       4A    -15.545120     5A    -11.334604     6A    -11.304087
       7A    -11.301443     8A    -11.286400     9A    -11.281888
      10A    -11.252926    11A    -11.248669    12A    -11.228867
      13A     -1.371011    14A     -1.309630    15A     -1.194878
      16A     -1.172911    17A     -1.087713    18A     -1.017711
      19A     -0.961198    20A     -0.897500    21A     -0.893508
      22A     -0.812689    23A     -0.781399    24A     -0.727368
      25A     -0.700396    26A     -0.693573    27A     -0.649716
      28A     -0.647546    29A     -0.604958    30A     -0.594655
      31A     -0.587993    32A     -0.578274    33A     -0.559774
      34A     -0.557043    35A     -0.542238    36A     -0.480523
      37A     -0.432608    38A     -0.422860    39A     -0.410813
      40A     -0.405806    41A     -0.376559    42A     -0.289672

  @DF-RHF Final Energy:  -525.52814061061281

   => Energetics <=

    Nuclear Repulsion Energy =            654.8004619071549541
    One-Electron Energy =               -2012.0074991637857238
    Two-Electron Energy =                 831.6788966460180745
    Total Energy =                       -525.5281406106128088
  Basis Set: (AUG-CC-PVTZ AUX)
    Blend: AUG-CC-PVTZ-RI
    Molecular point group: c1

    Geometry (in Angstrom), charge = 0, multiplicity = 1:

       Center              X                  Y                   Z               Mass
    ------------   -----------------  -----------------  -----------------  -----------------
         N           -1.833122150022     0.591730415679     0.079008687211    14.003074004430
         N           -1.433115150022    -1.517573784321    -0.179044412789    14.003074004430
         N            1.112766849978     1.068302215679    -0.287354412789    14.003074004430
         N            1.366526849978    -1.257990784321     0.282754587211    14.003074004430
         C           -0.819726150022    -0.336805784321    -0.020882412789    12.000000000000
         C            0.631704849978    -0.161317784321    -0.002177412789    12.000000000000
         C           -2.975977150022     0.124808215679    -0.001840412789    12.000000000000
         C           -2.765536150022    -1.230978784321    -0.168462412789    12.000000000000
         C            2.449249849978     1.199058215679    -0.284048412789    12.000000000000
         C            2.695112849978    -1.094494784321     0.256645587211    12.000000000000
         C            3.300801849978     0.130639215679    -0.024558412789    12.000000000000
         H           -3.874503150022     0.722300215679     0.068535587211     1.007825032230
         H           -3.510211150022    -2.008126784321    -0.283142412789     1.007825032230
         H            2.834463849978     2.192581215679    -0.508649412789     1.007825032230
         H            3.288771849978    -1.979930784321     0.479414587211     1.007825032230
         H            4.380015849978     0.245213215679    -0.035361412789     1.007825032230
         C           -1.495462150022     2.117744215679     0.300502587211    12.000000000000
         H           -0.798401150022     2.264557215679     1.124716587211     1.007825032230
         H           -1.077771150022     2.574216215679    -0.595706412789     1.007825032230
         H           -2.455258150022     2.574701215679     0.547032587211     1.007825032230

  Basis Set: AUG-CC-PVTZ
    Blend: AUG-CC-PVTZ
  Basis Set: (AUG-CC-PVTZ AUX)
    Blend: AUG-CC-PVTZ-JKFIT
	 Reference Energy          =    -525.5281406106128088 [Eh]
	 Singles Energy            =      -0.0000000000000000 [Eh]
	 Same-Spin Energy          =      -0.5785992038272768 [Eh]
	 Opposite-Spin Energy      =      -1.7379724406269006 [Eh]
	 Correlation Energy        =      -2.3165716444541773 [Eh]
	 Total Energy              =    -527.8447122550669519 [Eh]

	 ================> DF-SCS-MP2 Energies <==================
	-----------------------------------------------------------
	 SCS Same-Spin Scale       =       0.3333333333333333 [-]
	 SCS Opposite-Spin Scale   =       1.2000000000000000 [-]
	 SCS Same-Spin Energy      =      -0.1928664012757589 [Eh]
	 SCS Opposite-Spin Energy  =      -2.0855669287522804 [Eh]
	 SCS Correlation Energy    =      -2.2784333300280393 [Eh]
	 SCS Total Energy          =    -527.8065739406408738 [Eh]
	-----------------------------------------------------------

  Dipole Moment: [D]
     X:     1.2999      Y:     4.4977      Z:     0.5265     Total:     4.7113

*** Psi4 exiting successfully. Buy a developer a beer!
