                               Psi4 1.3.2 release

  ==> Input File <==

--------------------------------------------------------------------------
#psi4
#
memory 32 gb

molecule  {
0 1
  N       -1.7314010     0.6447010     0.0841650
  N       -1.4345640    -1.5648400    -0.1846490
  N        1.1113180     1.0210360    -0.2929590
  N        1.3650780    -1.3052570     0.2771500
  C       -0.7181433    -0.2847369    -0.0084797
  C        0.6302560    -0.2085840    -0.0077820
  C       -2.9774260     0.0775420    -0.0074450
  C       -2.7669850    -1.2782450    -0.1740670
  C        2.4478010     1.1517920    -0.2896530
  C        2.6936640    -1.1417610     0.2510410
  C        3.2993530     0.0833730    -0.0301630
  H       -3.8759520     0.6750340     0.0629310
  H       -3.5116600    -2.0553930    -0.2887470
  H        2.8330150     2.1453150    -0.5142540
  H        3.2873230    -2.0271970     0.4738100
  H        4.3785670     0.1979470    -0.0409660
  C       -1.4969110     2.0704780     0.2948980
  H       -0.7998500     2.2172910     1.1191120
  H       -1.0792200     2.5269500    -0.6013110
  H       -2.4567070     2.5274350     0.5414280
units angstrom
no_reorient  #important for SAPT in psi4, default
symmetry c1  #important for SAPT in psi4, default
}

set PROPERTIES_ORIGIN ["COM"]
properties('MP2/aug-cc-pvtz', properties = ['dipole'])
--------------------------------------------------------------------------

    Molecular point group: c1
  Charge       = 0
  Multiplicity = 1
  Basis Set: AUG-CC-PVTZ
    Blend: AUG-CC-PVTZ
  Basis Set: (AUG-CC-PVTZ AUX)
    Blend: AUG-CC-PVTZ-JKFIT

    Orbital Energies [Eh]
    ---------------------

    Doubly Occupied:

       1A    -15.642118     2A    -15.574940     3A    -15.571949
       4A    -15.556712     5A    -11.324164     6A    -11.302707
       7A    -11.301043     8A    -11.295279     9A    -11.273559
      10A    -11.267705    11A    -11.248026    12A    -11.247327
      13A     -1.339635    14A     -1.306107    15A     -1.194299
      16A     -1.157746    17A     -1.099461    18A     -1.010552
      19A     -0.970692    20A     -0.905353    21A     -0.898254
      22A     -0.799008    23A     -0.789034    24A     -0.726868
      25A     -0.701921    26A     -0.684753    27A     -0.649179
      28A     -0.648330    29A     -0.607014    30A     -0.593360
      31A     -0.588155    32A     -0.584804    33A     -0.567383
      34A     -0.549997    35A     -0.535546    36A     -0.483916
      37A     -0.426030    38A     -0.422031    39A     -0.406666
      40A     -0.399895    41A     -0.375592    42A     -0.287193

  @DF-RHF Final Energy:  -525.51807183715516

   => Energetics <=

    Nuclear Repulsion Energy =            654.2977665558111084
    One-Electron Energy =               -2011.0030736643195723
    Two-Electron Energy =                 831.1872352713531882
    Total Energy =                       -525.5180718371551620
  Basis Set: (AUG-CC-PVTZ AUX)
    Blend: AUG-CC-PVTZ-RI
    Molecular point group: c1

    Geometry (in Angstrom), charge = 0, multiplicity = 1:

       Center              X                  Y                   Z               Mass
    ------------   -----------------  -----------------  -----------------  -----------------
         N           -1.746701044492     0.675752027734     0.087478326760    14.003074004430
         N           -1.449864044492    -1.533788972266    -0.181335673240    14.003074004430
         N            1.096017955508     1.052087027734    -0.289645673240    14.003074004430
         N            1.349777955508    -1.274205972266     0.280463326760    14.003074004430
         C           -0.733443344492    -0.253685872266    -0.005166373240    12.000000000000
         C            0.614955955508    -0.177532972266    -0.004468673240    12.000000000000
         C           -2.992726044492     0.108593027734    -0.004131673240    12.000000000000
         C           -2.782285044492    -1.247193972266    -0.170753673240    12.000000000000
         C            2.432500955508     1.182843027734    -0.286339673240    12.000000000000
         C            2.678363955508    -1.110709972266     0.254354326760    12.000000000000
         C            3.284052955508     0.114424027734    -0.026849673240    12.000000000000
         H           -3.891252044492     0.706085027734     0.066244326760     1.007825032230
         H           -3.526960044492    -2.024341972266    -0.285433673240     1.007825032230
         H            2.817714955508     2.176366027734    -0.510940673240     1.007825032230
         H            3.272022955508    -1.996145972266     0.477123326760     1.007825032230
         H            4.363266955508     0.228998027734    -0.037652673240     1.007825032230
         C           -1.512211044492     2.101529027734     0.298211326760    12.000000000000
         H           -0.815150044492     2.248342027734     1.122425326760     1.007825032230
         H           -1.094520044492     2.558001027734    -0.597997673240     1.007825032230
         H           -2.472007044492     2.558486027734     0.544741326760     1.007825032230

  Basis Set: AUG-CC-PVTZ
    Blend: AUG-CC-PVTZ
  Basis Set: (AUG-CC-PVTZ AUX)
    Blend: AUG-CC-PVTZ-JKFIT
	 Reference Energy          =    -525.5180718371551620 [Eh]
	 Singles Energy            =      -0.0000000000000000 [Eh]
	 Same-Spin Energy          =      -0.5833862636043425 [Eh]
	 Opposite-Spin Energy      =      -1.7477559771327362 [Eh]
	 Correlation Energy        =      -2.3311422407370790 [Eh]
	 Total Energy              =    -527.8492140778922703 [Eh]

	 ================> DF-SCS-MP2 Energies <==================
	-----------------------------------------------------------
	 SCS Same-Spin Scale       =       0.3333333333333333 [-]
	 SCS Opposite-Spin Scale   =       1.2000000000000000 [-]
	 SCS Same-Spin Energy      =      -0.1944620878681142 [Eh]
	 SCS Opposite-Spin Energy  =      -2.0973071725592836 [Eh]
	 SCS Correlation Energy    =      -2.2917692604273978 [Eh]
	 SCS Total Energy          =    -527.8098410975825345 [Eh]
	-----------------------------------------------------------

  Dipole Moment: [D]
     X:     0.8853      Y:     4.1602      Z:     0.4896     Total:     4.2814

*** Psi4 exiting successfully. Buy a developer a beer!
