                               Psi4 1.3.2 release

  ==> Input File <==

--------------------------------------------------------------------------
#psi4
#
memory 32 gb

molecule  {
0 1
  N       -1.7314010     0.6447010     0.0841650
  N       -1.4345640    -1.5648400    -0.1846490
  N        1.1113180     1.0210360    -0.2929590
  N        1.3650780    -1.3052570     0.2771500
  C       -0.7513070    -0.3190362    -0.0146049
  C        0.6302560    -0.2085840    -0.0077820
  C       -2.9774260     0.0775420    -0.0074450
  C       -2.7669850    -1.2782450    -0.1740670
  C        2.4478010     1.1517920    -0.2896530
  C        2.6936640    -1.1417610     0.2510410
  C        3.2993530     0.0833730    -0.0301630
  H       -3.8759520     0.6750340     0.0629310
  H       -3.5116600    -2.0553930    -0.2887470
  H        2.8330150     2.1453150    -0.5142540
  H        3.2873230    -2.0271970     0.4738100
  H        4.3785670     0.1979470    -0.0409660
  C       -1.4969110     2.0704780     0.2948980
  H       -0.7998500     2.2172910     1.1191120
  H       -1.0792200     2.5269500    -0.6013110
  H       -2.4567070     2.5274350     0.5414280
units angstrom
no_reorient  #important for SAPT in psi4, default
symmetry c1  #important for SAPT in psi4, default
}

set PROPERTIES_ORIGIN ["COM"]
properties('MP2/aug-cc-pvtz', properties = ['dipole'])
--------------------------------------------------------------------------

    Molecular point group: c1
  Charge       = 0
  Multiplicity = 1
  Basis Set: AUG-CC-PVTZ
    Blend: AUG-CC-PVTZ
  Basis Set: (AUG-CC-PVTZ AUX)
    Blend: AUG-CC-PVTZ-JKFIT

    Orbital Energies [Eh]
    ---------------------

    Doubly Occupied:

       1A    -15.636524     2A    -15.577039     3A    -15.573345
       4A    -15.553391     5A    -11.327871     6A    -11.304042
       7A    -11.301950     8A    -11.295440     9A    -11.273386
      10A    -11.264529    11A    -11.249694    12A    -11.244676
      13A     -1.340392    14A     -1.306812    15A     -1.195593
      16A     -1.163334    17A     -1.095710    18A     -1.009688
      19A     -0.969996    20A     -0.901581    21A     -0.898692
      22A     -0.798768    23A     -0.788710    24A     -0.726887
      25A     -0.702385    26A     -0.685239    27A     -0.647377
      28A     -0.645473    29A     -0.607360    30A     -0.593264
      31A     -0.585459    32A     -0.584872    33A     -0.567894
      34A     -0.554635    35A     -0.537557    36A     -0.483629
      37A     -0.429109    38A     -0.423166    39A     -0.409121
      40A     -0.398485    41A     -0.375843    42A     -0.291297

  @DF-RHF Final Energy:  -525.53707845569420

   => Energetics <=

    Nuclear Repulsion Energy =            654.1951150195063747
    One-Electron Energy =               -2010.8239644968948596
    Two-Electron Energy =                 831.0917710216942851
    Total Energy =                       -525.5370784556941999
  Basis Set: (AUG-CC-PVTZ AUX)
    Blend: AUG-CC-PVTZ-RI
    Molecular point group: c1

    Geometry (in Angstrom), charge = 0, multiplicity = 1:

       Center              X                  Y                   Z               Mass
    ------------   -----------------  -----------------  -----------------  -----------------
         N           -1.744214930746     0.678323271630     0.087937501820    14.003074004430
         N           -1.447377930746    -1.531217728370    -0.180876498180    14.003074004430
         N            1.098504069254     1.054658271630    -0.289186498180    14.003074004430
         N            1.352264069254    -1.271634728370     0.280922501820    14.003074004430
         C           -0.764120930746    -0.285413928370    -0.010832398180    12.000000000000
         C            0.617442069254    -0.174961728370    -0.004009498180    12.000000000000
         C           -2.990239930746     0.111164271630    -0.003672498180    12.000000000000
         C           -2.779798930746    -1.244622728370    -0.170294498180    12.000000000000
         C            2.434987069254     1.185414271630    -0.285880498180    12.000000000000
         C            2.680850069254    -1.108138728370     0.254813501820    12.000000000000
         C            3.286539069254     0.116995271630    -0.026390498180    12.000000000000
         H           -3.888765930746     0.708656271630     0.066703501820     1.007825032230
         H           -3.524473930746    -2.021770728370    -0.284974498180     1.007825032230
         H            2.820201069254     2.178937271630    -0.510481498180     1.007825032230
         H            3.274509069254    -1.993574728370     0.477582501820     1.007825032230
         H            4.365753069254     0.231569271630    -0.037193498180     1.007825032230
         C           -1.509724930746     2.104100271630     0.298670501820    12.000000000000
         H           -0.812663930746     2.250913271630     1.122884501820     1.007825032230
         H           -1.092033930746     2.560572271630    -0.597538498180     1.007825032230
         H           -2.469520930746     2.561057271630     0.545200501820     1.007825032230

  Basis Set: AUG-CC-PVTZ
    Blend: AUG-CC-PVTZ
  Basis Set: (AUG-CC-PVTZ AUX)
    Blend: AUG-CC-PVTZ-JKFIT
	 Reference Energy          =    -525.5370784556941999 [Eh]
	 Singles Energy            =      -0.0000000000000000 [Eh]
	 Same-Spin Energy          =      -0.5814379197453405 [Eh]
	 Opposite-Spin Energy      =      -1.7442110922602829 [Eh]
	 Correlation Energy        =      -2.3256490120056235 [Eh]
	 Total Energy              =    -527.8627274676998695 [Eh]

	 ================> DF-SCS-MP2 Energies <==================
	-----------------------------------------------------------
	 SCS Same-Spin Scale       =       0.3333333333333333 [-]
	 SCS Opposite-Spin Scale   =       1.2000000000000000 [-]
	 SCS Same-Spin Energy      =      -0.1938126399151135 [Eh]
	 SCS Opposite-Spin Energy  =      -2.0930533107123392 [Eh]
	 SCS Correlation Energy    =      -2.2868659506274529 [Eh]
	 SCS Total Energy          =    -527.8239444063216297 [Eh]
	-----------------------------------------------------------

  Dipole Moment: [D]
     X:     1.0534      Y:     4.1520      Z:     0.4877     Total:     4.3112

*** Psi4 exiting successfully. Buy a developer a beer!
