                               Psi4 1.3.2 release

  ==> Input File <==

--------------------------------------------------------------------------
#psi4
#
memory 32 gb

molecule  {
0 1
  N       -1.6947358     0.6756593     0.0874880
  N       -1.4345640    -1.5648400    -0.1846490
  N        1.1113180     1.0210360    -0.2929590
  N        1.3650780    -1.3052570     0.2771500
  C       -0.8211750    -0.3840720    -0.0264870
  C        0.6302560    -0.2085840    -0.0077820
  C       -2.9774260     0.0775420    -0.0074450
  C       -2.7669850    -1.2782450    -0.1740670
  C        2.4478010     1.1517920    -0.2896530
  C        2.6936640    -1.1417610     0.2510410
  C        3.2993530     0.0833730    -0.0301630
  H       -3.8759520     0.6750340     0.0629310
  H       -3.5116600    -2.0553930    -0.2887470
  H        2.8330150     2.1453150    -0.5142540
  H        3.2873230    -2.0271970     0.4738100
  H        4.3785670     0.1979470    -0.0409660
  C       -1.4969110     2.0704780     0.2948980
  H       -0.7998500     2.2172910     1.1191120
  H       -1.0792200     2.5269500    -0.6013110
  H       -2.4567070     2.5274350     0.5414280
units angstrom
no_reorient  #important for SAPT in psi4, default
symmetry c1  #important for SAPT in psi4, default
}

set PROPERTIES_ORIGIN ["COM"]
properties('MP2/aug-cc-pvtz', properties = ['dipole'])
--------------------------------------------------------------------------

    Molecular point group: c1
  Charge       = 0
  Multiplicity = 1
  Basis Set: AUG-CC-PVTZ
    Blend: AUG-CC-PVTZ
  Basis Set: (AUG-CC-PVTZ AUX)
    Blend: AUG-CC-PVTZ-JKFIT

    Orbital Energies [Eh]
    ---------------------

    Doubly Occupied:

       1A    -15.624382     2A    -15.580824     3A    -15.575548
       4A    -15.546942     5A    -11.332846     6A    -11.306261
       7A    -11.303309     8A    -11.300177     9A    -11.269214
      10A    -11.262126    11A    -11.252642    12A    -11.244364
      13A     -1.340308    14A     -1.306804    15A     -1.199247
      16A     -1.181733    17A     -1.089050    18A     -1.004421
      19A     -0.971252    20A     -0.899693    21A     -0.893977
      22A     -0.800045    23A     -0.785100    24A     -0.726614
      25A     -0.703131    26A     -0.684518    27A     -0.647016
      28A     -0.638255    29A     -0.608318    30A     -0.599887
      31A     -0.590670    32A     -0.579784    33A     -0.566772
      34A     -0.550849    35A     -0.538998    36A     -0.480764
      37A     -0.437289    38A     -0.424536    39A     -0.413003
      40A     -0.394311    41A     -0.377211    42A     -0.301061

  @DF-RHF Final Energy:  -525.55388981233659

   => Energetics <=

    Nuclear Repulsion Energy =            654.0240507920972277
    One-Electron Energy =               -2010.4893744769674413
    Two-Electron Energy =                 830.9114338725337348
    Total Energy =                       -525.5538898123365925
  Basis Set: (AUG-CC-PVTZ AUX)
    Blend: AUG-CC-PVTZ-RI
    Molecular point group: c1

    Geometry (in Angstrom), charge = 0, multiplicity = 1:

       Center              X                  Y                   Z               Mass
    ------------   -----------------  -----------------  -----------------  -----------------
         N           -1.705519490536     0.711448796112     0.091860552092    14.003074004430
         N           -1.445347690536    -1.529050503888    -0.180276447908    14.003074004430
         N            1.100534309464     1.056825496112    -0.288586447908    14.003074004430
         N            1.354294309464    -1.269467503888     0.281522552092    14.003074004430
         C           -0.831958690536    -0.348282503888    -0.022114447908    12.000000000000
         C            0.619472309464    -0.172794503888    -0.003409447908    12.000000000000
         C           -2.988209690536     0.113331496112    -0.003072447908    12.000000000000
         C           -2.777768690536    -1.242455503888    -0.169694447908    12.000000000000
         C            2.437017309464     1.187581496112    -0.285280447908    12.000000000000
         C            2.682880309464    -1.105971503888     0.255413552092    12.000000000000
         C            3.288569309464     0.119162496112    -0.025790447908    12.000000000000
         H           -3.886735690536     0.710823496112     0.067303552092     1.007825032230
         H           -3.522443690536    -2.019603503888    -0.284374447908     1.007825032230
         H            2.822231309464     2.181104496112    -0.509881447908     1.007825032230
         H            3.276539309464    -1.991407503888     0.478182552092     1.007825032230
         H            4.367783309464     0.233736496112    -0.036593447908     1.007825032230
         C           -1.507694690536     2.106267496112     0.299270552092    12.000000000000
         H           -0.810633690536     2.253080496112     1.123484552092     1.007825032230
         H           -1.090003690536     2.562739496112    -0.596938447908     1.007825032230
         H           -2.467490690536     2.563224496112     0.545800552092     1.007825032230

  Basis Set: AUG-CC-PVTZ
    Blend: AUG-CC-PVTZ
  Basis Set: (AUG-CC-PVTZ AUX)
    Blend: AUG-CC-PVTZ-JKFIT
	 Reference Energy          =    -525.5538898123365925 [Eh]
	 Singles Energy            =      -0.0000000000000000 [Eh]
	 Same-Spin Energy          =      -0.5780620562120293 [Eh]
	 Opposite-Spin Energy      =      -1.7391132182750451 [Eh]
	 Correlation Energy        =      -2.3171752744870746 [Eh]
	 Total Energy              =    -527.8710650868237053 [Eh]

	 ================> DF-SCS-MP2 Energies <==================
	-----------------------------------------------------------
	 SCS Same-Spin Scale       =       0.3333333333333333 [-]
	 SCS Opposite-Spin Scale   =       1.2000000000000000 [-]
	 SCS Same-Spin Energy      =      -0.1926873520706764 [Eh]
	 SCS Opposite-Spin Energy  =      -2.0869358619300540 [Eh]
	 SCS Correlation Energy    =      -2.2796232140007304 [Eh]
	 SCS Total Energy          =    -527.8335130263373003 [Eh]
	-----------------------------------------------------------

  Dipole Moment: [D]
     X:     1.3974      Y:     3.9826      Z:     0.4646     Total:     4.2461

*** Psi4 exiting successfully. Buy a developer a beer!
