                               Psi4 1.4a3.dev225

  ==> Input File <==

--------------------------------------------------------------------------
#psi4
#
memory 32 gb

molecule  {
0 1
  N       -1.7314010     0.6447010     0.0841650
  N       -1.4345640    -1.5648400    -0.1846490
  N        1.1113180     1.0210360    -0.2929590
  N        1.3650780    -1.3052570     0.2771500
  C       -0.8211750    -0.3840720    -0.0264870
  C        0.6302560    -0.2085840    -0.0077820
  C       -2.9774260     0.0775420    -0.0074450
  C       -2.7669850    -1.2782450    -0.1740670
  C        2.4478010     1.1517920    -0.2896530
  C        2.6936640    -1.1417610     0.2510410
  C        3.3299694     0.0449595    -0.0208334
  H       -3.8759520     0.6750340     0.0629310
  H       -3.5116600    -2.0553930    -0.2887470
  H        2.8330150     2.1453150    -0.5142540
  H        3.2873230    -2.0271970     0.4738100
  H        4.3785670     0.1979470    -0.0409660
  C       -1.4969110     2.0704780     0.2948980
  H       -0.7998500     2.2172910     1.1191120
  H       -1.0792200     2.5269500    -0.6013110
  H       -2.4567070     2.5274350     0.5414280
units angstrom
no_reorient  #important for SAPT in psi4, default
symmetry c1  #important for SAPT in psi4, default
}

set PROPERTIES_ORIGIN ["COM"]
properties('MP2/aug-cc-pvtz', properties = ['dipole'])
--------------------------------------------------------------------------

    Molecular point group: c1
  Charge       = 0
  Multiplicity = 1
  Basis Set: AUG-CC-PVTZ
    Blend: AUG-CC-PVTZ
  Basis Set: (AUG-CC-PVTZ AUX)
    Blend: AUG-CC-PVTZ-JKFIT

    Orbital Energies [Eh]
    ---------------------

    Doubly Occupied:

       1A    -15.626219     2A    -15.581910     3A    -15.573544
       4A    -15.546789     5A    -11.333859     6A    -11.313670
       7A    -11.298071     8A    -11.295625     9A    -11.273890
      10A    -11.260254    11A    -11.252463    12A    -11.240653
      13A     -1.345036    14A     -1.307150    15A     -1.197702
      16A     -1.178107    17A     -1.086807    18A     -1.008254
      19A     -0.969112    20A     -0.900735    21A     -0.891267
      22A     -0.802612    23A     -0.784068    24A     -0.726797
      25A     -0.702130    26A     -0.687582    27A     -0.646795
      28A     -0.644848    29A     -0.609250    30A     -0.589369
      31A     -0.585157    32A     -0.578563    33A     -0.569365
      34A     -0.556722    35A     -0.543293    36A     -0.483098
      37A     -0.436166    38A     -0.424952    39A     -0.411593
      40A     -0.394721    41A     -0.377522    42A     -0.298546

  @DF-RHF Final Energy:  -525.55461724566385

   => Energetics <=

    Nuclear Repulsion Energy =            653.5334325601853607
    One-Electron Energy =               -2009.5075647806213510
    Two-Electron Energy =                 830.4195149747720279
    Total Energy =                       -525.5546172456638487
  Basis Set: (AUG-CC-PVTZ AUX)
    Blend: AUG-CC-PVTZ-RI
    Molecular point group: c1

    Geometry (in Angstrom), charge = 0, multiplicity = 1:

       Center              X                  Y                   Z               Mass
    ------------   -----------------  -----------------  -----------------  -----------------
         N           -1.741272438132     0.686078338970     0.088128849749    14.003074004430
         N           -1.444435438132    -1.523462661030    -0.180685150251    14.003074004430
         N            1.101446561868     1.062413338970    -0.288995150251    14.003074004430
         N            1.355206561868    -1.263879661030     0.281113849749    14.003074004430
         C           -0.831046438132    -0.342694661030    -0.022523150251    12.000000000000
         C            0.620384561868    -0.167206661030    -0.003818150251    12.000000000000
         C           -2.987297438132     0.118919338970    -0.003481150251    12.000000000000
         C           -2.776856438132    -1.236867661030    -0.170103150251    12.000000000000
         C            2.437929561868     1.193169338970    -0.285689150251    12.000000000000
         C            2.683792561868    -1.100383661030     0.255004849749    12.000000000000
         C            3.320097961868     0.086336838970    -0.016869550251    12.000000000000
         H           -3.885823438132     0.716411338970     0.066894849749     1.007825032230
         H           -3.521531438132    -2.014015661030    -0.284783150251     1.007825032230
         H            2.823143561868     2.186692338970    -0.510290150251     1.007825032230
         H            3.277451561868    -1.985819661030     0.477773849749     1.007825032230
         H            4.368695561868     0.239324338970    -0.037002150251     1.007825032230
         C           -1.506782438132     2.111855338970     0.298861849749    12.000000000000
         H           -0.809721438132     2.258668338970     1.123075849749     1.007825032230
         H           -1.089091438132     2.568327338970    -0.597347150251     1.007825032230
         H           -2.466578438132     2.568812338970     0.545391849749     1.007825032230

  Basis Set: AUG-CC-PVTZ
    Blend: AUG-CC-PVTZ
  Basis Set: (AUG-CC-PVTZ AUX)
    Blend: AUG-CC-PVTZ-JKFIT
	 Reference Energy          =    -525.5546172456638487 [Eh]
	 Singles Energy            =      -0.0000000000000000 [Eh]
	 Same-Spin Energy          =      -0.5779478561921630 [Eh]
	 Opposite-Spin Energy      =      -1.7385746570778493 [Eh]
	 Correlation Energy        =      -2.3165225132700122 [Eh]
	 Total Energy              =    -527.8711397589338503 [Eh]

	 ================> DF-SCS-MP2 Energies <==================
	-----------------------------------------------------------
	 SCS Same-Spin Scale       =       0.3333333333333333 [-]
	 SCS Opposite-Spin Scale   =       1.2000000000000000 [-]
	 SCS Same-Spin Energy      =      -0.1926492853973877 [Eh]
	 SCS Opposite-Spin Energy  =      -2.0862895884934192 [Eh]
	 SCS Correlation Energy    =      -2.2789388738908070 [Eh]
	 SCS Total Energy          =    -527.8335561195546006 [Eh]
	-----------------------------------------------------------

  Dipole Moment: [D]
     X:     1.3704      Y:     4.1846      Z:     0.4613     Total:     4.4274

*** Psi4 exiting successfully. Buy a developer a beer!
