                               Psi4 1.3.2 release

  ==> Input File <==

--------------------------------------------------------------------------
#psi4
#
memory 32 gb

molecule  {
0 1
  N       -1.7314010     0.6447010     0.0841650
  N       -1.4552617    -1.5540621    -0.1831125
  N        1.1113180     1.0210360    -0.2929590
  N        1.3650780    -1.3052570     0.2771500
  C       -0.8211750    -0.3840720    -0.0264870
  C        0.6302560    -0.2085840    -0.0077820
  C       -2.9774260     0.0775420    -0.0074450
  C       -2.7669850    -1.2782450    -0.1740670
  C        2.4478010     1.1517920    -0.2896530
  C        2.6936640    -1.1417610     0.2510410
  C        3.2993530     0.0833730    -0.0301630
  H       -3.8759520     0.6750340     0.0629310
  H       -3.5116600    -2.0553930    -0.2887470
  H        2.8330150     2.1453150    -0.5142540
  H        3.2873230    -2.0271970     0.4738100
  H        4.3785670     0.1979470    -0.0409660
  C       -1.4969110     2.0704780     0.2948980
  H       -0.7998500     2.2172910     1.1191120
  H       -1.0792200     2.5269500    -0.6013110
  H       -2.4567070     2.5274350     0.5414280
units angstrom
no_reorient  #important for SAPT in psi4, default
symmetry c1  #important for SAPT in psi4, default
}

set PROPERTIES_ORIGIN ["COM"]
properties('MP2/aug-cc-pvtz', properties = ['dipole'])
--------------------------------------------------------------------------

    Molecular point group: c1
  Charge       = 0
  Multiplicity = 1
  Basis Set: AUG-CC-PVTZ
    Blend: AUG-CC-PVTZ
  Basis Set: (AUG-CC-PVTZ AUX)
    Blend: AUG-CC-PVTZ-JKFIT

    Orbital Energies [Eh]
    ---------------------

    Doubly Occupied:

       1A    -15.626610     2A    -15.579860     3A    -15.574786
       4A    -15.543717     5A    -11.333730     6A    -11.305826
       7A    -11.302924     8A    -11.294312     9A    -11.273252
      10A    -11.258967    11A    -11.251622    12A    -11.238406
      13A     -1.346759    14A     -1.308441    15A     -1.198224
      16A     -1.180721    17A     -1.089092    18A     -1.007268
      19A     -0.969883    20A     -0.899274    21A     -0.893899
      22A     -0.801890    23A     -0.785354    24A     -0.728432
      25A     -0.702614    26A     -0.685991    27A     -0.646474
      28A     -0.640021    29A     -0.607771    30A     -0.593060
      31A     -0.587362    32A     -0.579224    33A     -0.571374
      34A     -0.558718    35A     -0.544556    36A     -0.481219
      37A     -0.433097    38A     -0.424197    39A     -0.411969
      40A     -0.396251    41A     -0.380626    42A     -0.297008

  @DF-RHF Final Energy:  -525.55823390602097

   => Energetics <=

    Nuclear Repulsion Energy =            654.4347186474299178
    One-Electron Energy =               -2011.3163424495171512
    Two-Electron Energy =                 831.3233898960662600
    Total Energy =                       -525.5582339060209733
  Basis Set: (AUG-CC-PVTZ AUX)
    Blend: AUG-CC-PVTZ-RI
    Molecular point group: c1

    Geometry (in Angstrom), charge = 0, multiplicity = 1:

       Center              X                  Y                   Z               Mass
    ------------   -----------------  -----------------  -----------------  -----------------
         N           -1.737166683638     0.682255842466     0.088693832010    14.003074004430
         N           -1.461027383638    -1.516507257534    -0.178583667990    14.003074004430
         N            1.105552316362     1.058590842466    -0.288430167990    14.003074004430
         N            1.359312316362    -1.267702157534     0.281678832010    14.003074004430
         C           -0.826940683638    -0.346517157534    -0.021958167990    12.000000000000
         C            0.624490316362    -0.171029157534    -0.003253167990    12.000000000000
         C           -2.983191683638     0.115096842466    -0.002916167990    12.000000000000
         C           -2.772750683638    -1.240690157534    -0.169538167990    12.000000000000
         C            2.442035316362     1.189346842466    -0.285124167990    12.000000000000
         C            2.687898316362    -1.104206157534     0.255569832010    12.000000000000
         C            3.293587316362     0.120927842466    -0.025634167990    12.000000000000
         H           -3.881717683638     0.712588842466     0.067459832010     1.007825032230
         H           -3.517425683638    -2.017838157534    -0.284218167990     1.007825032230
         H            2.827249316362     2.182869842466    -0.509725167990     1.007825032230
         H            3.281557316362    -1.989642157534     0.478338832010     1.007825032230
         H            4.372801316362     0.235501842466    -0.036437167990     1.007825032230
         C           -1.502676683638     2.108032842466     0.299426832010    12.000000000000
         H           -0.805615683638     2.254845842466     1.123640832010     1.007825032230
         H           -1.084985683638     2.564504842466    -0.596782167990     1.007825032230
         H           -2.462472683638     2.564989842466     0.545956832010     1.007825032230

  Basis Set: AUG-CC-PVTZ
    Blend: AUG-CC-PVTZ
  Basis Set: (AUG-CC-PVTZ AUX)
    Blend: AUG-CC-PVTZ-JKFIT
	 Reference Energy          =    -525.5582339060209733 [Eh]
	 Singles Energy            =      -0.0000000000000000 [Eh]
	 Same-Spin Energy          =      -0.5780613914602273 [Eh]
	 Opposite-Spin Energy      =      -1.7379037930397621 [Eh]
	 Correlation Energy        =      -2.3159651844999893 [Eh]
	 Total Energy              =    -527.8741990905209605 [Eh]

	 ================> DF-SCS-MP2 Energies <==================
	-----------------------------------------------------------
	 SCS Same-Spin Scale       =       0.3333333333333333 [-]
	 SCS Opposite-Spin Scale   =       1.2000000000000000 [-]
	 SCS Same-Spin Energy      =      -0.1926871304867424 [Eh]
	 SCS Opposite-Spin Energy  =      -2.0854845516477143 [Eh]
	 SCS Correlation Energy    =      -2.2781716821344569 [Eh]
	 SCS Total Energy          =    -527.8364055881554577 [Eh]
	-----------------------------------------------------------

  Dipole Moment: [D]
     X:     1.3994      Y:     4.0811      Z:     0.4743     Total:     4.3404

*** Psi4 exiting successfully. Buy a developer a beer!
