                               Psi4 1.3.2 release

  ==> Input File <==

--------------------------------------------------------------------------
#psi4
#
memory 32 gb

molecule  {
0 1
  N       -1.7314010     0.6447010     0.0841650
  N       -1.4345640    -1.5648400    -0.1846490
  N        1.1113180     1.0210360    -0.2929590
  N        1.3650780    -1.3052570     0.2771500
  C       -0.8211750    -0.3840720    -0.0264870
  C        0.6302560    -0.2085840    -0.0077820
  C       -2.9774260     0.0775420    -0.0074450
  C       -2.7669850    -1.2782450    -0.1740670
  C        2.4478010     1.1517920    -0.2896530
  C        2.6936640    -1.1417610     0.2510410
  C        3.2993530     0.0833730    -0.0301630
  H       -3.9590457     0.7302887     0.0694392
  H       -3.5116600    -2.0553930    -0.2887470
  H        2.8330150     2.1453150    -0.5142540
  H        3.2873230    -2.0271970     0.4738100
  H        4.3785670     0.1979470    -0.0409660
  C       -1.4969110     2.0704780     0.2948980
  H       -0.7998500     2.2172910     1.1191120
  H       -1.0792200     2.5269500    -0.6013110
  H       -2.4567070     2.5274350     0.5414280
units angstrom
no_reorient  #important for SAPT in psi4, default
symmetry c1  #important for SAPT in psi4, default
}

set PROPERTIES_ORIGIN ["COM"]
properties('MP2/aug-cc-pvtz', properties = ['dipole'])
--------------------------------------------------------------------------

    Molecular point group: c1
  Charge       = 0
  Multiplicity = 1
  Basis Set: AUG-CC-PVTZ
    Blend: AUG-CC-PVTZ
  Basis Set: (AUG-CC-PVTZ AUX)
    Blend: AUG-CC-PVTZ-JKFIT

    Orbital Energies [Eh]
    ---------------------

    Doubly Occupied:

       1A    -15.626679     2A    -15.580099     3A    -15.575046
       4A    -15.547228     5A    -11.333599     6A    -11.305926
       7A    -11.303080     8A    -11.295924     9A    -11.273224
      10A    -11.270581    11A    -11.251923    12A    -11.241029
      13A     -1.345330    14A     -1.308246    15A     -1.198076
      16A     -1.178144    17A     -1.088952    18A     -1.005772
      19A     -0.968727    20A     -0.899420    21A     -0.892352
      22A     -0.799380    23A     -0.780950    24A     -0.726715
      25A     -0.702434    26A     -0.681988    27A     -0.646467
      28A     -0.634485    29A     -0.603815    30A     -0.593098
      31A     -0.584401    32A     -0.572956    33A     -0.569918
      34A     -0.556258    35A     -0.543554    36A     -0.481256
      37A     -0.436221    38A     -0.424335    39A     -0.412477
      40A     -0.396850    41A     -0.378326    42A     -0.298848

  @DF-RHF Final Energy:  -525.55020214087335

   => Energetics <=

    Nuclear Repulsion Energy =            653.6059329371860258
    One-Electron Energy =               -2009.6840857896777379
    Two-Electron Energy =                 830.5279507116183595
    Total Energy =                       -525.5502021408733526
  Basis Set: (AUG-CC-PVTZ AUX)
    Blend: AUG-CC-PVTZ-RI
    Molecular point group: c1

    Geometry (in Angstrom), charge = 0, multiplicity = 1:

       Center              X                  Y                   Z               Mass
    ------------   -----------------  -----------------  -----------------  -----------------
         N           -1.738454127945     0.682850793103     0.088787267000    14.003074004430
         N           -1.441617127945    -1.526690206897    -0.180026733000    14.003074004430
         N            1.104264872055     1.059185793103    -0.288336733000    14.003074004430
         N            1.358024872055    -1.267107206897     0.281772267000    14.003074004430
         C           -0.828228127945    -0.345922206897    -0.021864733000    12.000000000000
         C            0.623202872055    -0.170434206897    -0.003159733000    12.000000000000
         C           -2.984479127945     0.115691793103    -0.002822733000    12.000000000000
         C           -2.774038127945    -1.240095206897    -0.169444733000    12.000000000000
         C            2.440747872055     1.189941793103    -0.285030733000    12.000000000000
         C            2.686610872055    -1.103611206897     0.255663267000    12.000000000000
         C            3.292299872055     0.121522793103    -0.025540733000    12.000000000000
         H           -3.966098827945     0.768438493103     0.074061467000     1.007825032230
         H           -3.518713127945    -2.017243206897    -0.284124733000     1.007825032230
         H            2.825961872055     2.183464793103    -0.509631733000     1.007825032230
         H            3.280269872055    -1.989047206897     0.478432267000     1.007825032230
         H            4.371513872055     0.236096793103    -0.036343733000     1.007825032230
         C           -1.503964127945     2.108627793103     0.299520267000    12.000000000000
         H           -0.806903127945     2.255440793103     1.123734267000     1.007825032230
         H           -1.086273127945     2.565099793103    -0.596688733000     1.007825032230
         H           -2.463760127945     2.565584793103     0.546050267000     1.007825032230

  Basis Set: AUG-CC-PVTZ
    Blend: AUG-CC-PVTZ
  Basis Set: (AUG-CC-PVTZ AUX)
    Blend: AUG-CC-PVTZ-JKFIT
	 Reference Energy          =    -525.5502021408733526 [Eh]
	 Singles Energy            =      -0.0000000000000000 [Eh]
	 Same-Spin Energy          =      -0.5782728762690067 [Eh]
	 Opposite-Spin Energy      =      -1.7393276843595875 [Eh]
	 Correlation Energy        =      -2.3176005606285943 [Eh]
	 Total Energy              =    -527.8678027015020007 [Eh]

	 ================> DF-SCS-MP2 Energies <==================
	-----------------------------------------------------------
	 SCS Same-Spin Scale       =       0.3333333333333333 [-]
	 SCS Opposite-Spin Scale   =       1.2000000000000000 [-]
	 SCS Same-Spin Energy      =      -0.1927576254230022 [Eh]
	 SCS Opposite-Spin Energy  =      -2.0871932212315047 [Eh]
	 SCS Correlation Energy    =      -2.2799508466545069 [Eh]
	 SCS Total Energy          =    -527.8301529875278675 [Eh]
	-----------------------------------------------------------

  Dipole Moment: [D]
     X:     1.3998      Y:     4.1038      Z:     0.4788     Total:     4.3623

*** Psi4 exiting successfully. Buy a developer a beer!
