                               Psi4 1.4a3.dev225

  ==> Input File <==

--------------------------------------------------------------------------
#psi4
#
memory 32 gb

molecule  {
0 1
  N       -1.7314010     0.6447010     0.0841650
  N       -1.4345640    -1.5648400    -0.1846490
  N        1.1113180     1.0210360    -0.2929590
  N        1.3650780    -1.3052570     0.2771500
  C       -0.8541999    -0.3467459    -0.0224723
  C        0.6302560    -0.2085840    -0.0077820
  C       -2.9774260     0.0775420    -0.0074450
  C       -2.7669850    -1.2782450    -0.1740670
  C        2.4478010     1.1517920    -0.2896530
  C        2.6936640    -1.1417610     0.2510410
  C        3.2993530     0.0833730    -0.0301630
  H       -3.8759520     0.6750340     0.0629310
  H       -3.5116600    -2.0553930    -0.2887470
  H        2.8330150     2.1453150    -0.5142540
  H        3.2873230    -2.0271970     0.4738100
  H        4.3785670     0.1979470    -0.0409660
  C       -1.4969110     2.0704780     0.2948980
  H       -0.7998500     2.2172910     1.1191120
  H       -1.0792200     2.5269500    -0.6013110
  H       -2.4567070     2.5274350     0.5414280
units angstrom
no_reorient  #important for SAPT in psi4, default
symmetry c1  #important for SAPT in psi4, default
}

set PROPERTIES_ORIGIN ["COM"]
properties('MP2/aug-cc-pvtz', properties = ['dipole'])
--------------------------------------------------------------------------

    Molecular point group: c1
  Charge       = 0
  Multiplicity = 1
  Basis Set: AUG-CC-PVTZ
    Blend: AUG-CC-PVTZ
  Basis Set: (AUG-CC-PVTZ AUX)
    Blend: AUG-CC-PVTZ-JKFIT

    Orbital Energies [Eh]
    ---------------------

    Doubly Occupied:

       1A    -15.629062     2A    -15.579671     3A    -15.575556
       4A    -15.543292     5A    -11.335176     6A    -11.305586
       7A    -11.303317     8A    -11.295080     9A    -11.276409
      10A    -11.255387    11A    -11.251974    12A    -11.240818
      13A     -1.354453    14A     -1.308996    15A     -1.197550
      16A     -1.177332    17A     -1.086856    18A     -1.006492
      19A     -0.975187    20A     -0.898924    21A     -0.892667
      22A     -0.806143    23A     -0.781171    24A     -0.729508
      25A     -0.702483    26A     -0.686033    27A     -0.652098
      28A     -0.638389    29A     -0.606930    30A     -0.593658
      31A     -0.589655    32A     -0.580419    33A     -0.566571
      34A     -0.552574    35A     -0.546227    36A     -0.479652
      37A     -0.436718    38A     -0.424148    39A     -0.412448
      40A     -0.393473    41A     -0.379527    42A     -0.299267

  @DF-RHF Final Energy:  -525.55605970886529

   => Energetics <=

    Nuclear Repulsion Energy =            654.3337381327999083
    One-Electron Energy =               -2011.0858432614866160
    Two-Electron Energy =                 831.1960454198214165
    Total Energy =                       -525.5560597088652912
  Basis Set: (AUG-CC-PVTZ AUX)
    Blend: AUG-CC-PVTZ-RI
    Molecular point group: c1

    Geometry (in Angstrom), charge = 0, multiplicity = 1:

       Center              X                  Y                   Z               Mass
    ------------   -----------------  -----------------  -----------------  -----------------
         N           -1.736501573882     0.680400526764     0.088527280743    14.003074004430
         N           -1.439664573882    -1.529140473236    -0.180286719257    14.003074004430
         N            1.106217426118     1.056735526764    -0.288596719257    14.003074004430
         N            1.359977426118    -1.269557473236     0.281512280743    14.003074004430
         C           -0.859300473882    -0.311046373236    -0.018110019257    12.000000000000
         C            0.625155426118    -0.172884473236    -0.003419719257    12.000000000000
         C           -2.982526573882     0.113241526764    -0.003082719257    12.000000000000
         C           -2.772085573882    -1.242545473236    -0.169704719257    12.000000000000
         C            2.442700426118     1.187491526764    -0.285290719257    12.000000000000
         C            2.688563426118    -1.106061473236     0.255403280743    12.000000000000
         C            3.294252426118     0.119072526764    -0.025800719257    12.000000000000
         H           -3.881052573882     0.710733526764     0.067293280743     1.007825032230
         H           -3.516760573882    -2.019693473236    -0.284384719257     1.007825032230
         H            2.827914426118     2.181014526764    -0.509891719257     1.007825032230
         H            3.282222426118    -1.991497473236     0.478172280743     1.007825032230
         H            4.373466426118     0.233646526764    -0.036603719257     1.007825032230
         C           -1.502011573882     2.106177526764     0.299260280743    12.000000000000
         H           -0.804950573882     2.252990526764     1.123474280743     1.007825032230
         H           -1.084320573882     2.562649526764    -0.596948719257     1.007825032230
         H           -2.461807573882     2.563134526764     0.545790280743     1.007825032230

  Basis Set: AUG-CC-PVTZ
    Blend: AUG-CC-PVTZ
  Basis Set: (AUG-CC-PVTZ AUX)
    Blend: AUG-CC-PVTZ-JKFIT
	 Reference Energy          =    -525.5560597088652912 [Eh]
	 Singles Energy            =      -0.0000000000000000 [Eh]
	 Same-Spin Energy          =      -0.5776399681869608 [Eh]
	 Opposite-Spin Energy      =      -1.7377490355271528 [Eh]
	 Correlation Energy        =      -2.3153890037141136 [Eh]
	 Total Energy              =    -527.8714487125794221 [Eh]

	 ================> DF-SCS-MP2 Energies <==================
	-----------------------------------------------------------
	 SCS Same-Spin Scale       =       0.3333333333333333 [-]
	 SCS Opposite-Spin Scale   =       1.2000000000000000 [-]
	 SCS Same-Spin Energy      =      -0.1925466560623203 [Eh]
	 SCS Opposite-Spin Energy  =      -2.0852988426325831 [Eh]
	 SCS Correlation Energy    =      -2.2778454986949033 [Eh]
	 SCS Total Energy          =    -527.8339052075601785 [Eh]
	-----------------------------------------------------------

  Dipole Moment: [D]
     X:     1.4204      Y:     4.2038      Z:     0.4972     Total:     4.4650

*** Psi4 exiting successfully. Buy a developer a beer!
