                               Psi4 1.4a3.dev225

  ==> Input File <==

--------------------------------------------------------------------------
#psi4
#
memory 32 gb

molecule  {
0 1
  N       -1.7314010     0.6447010     0.0841650
  N       -1.4345640    -1.5648400    -0.1846490
  N        1.1113180     1.0210360    -0.2929590
  N        1.3650780    -1.3052570     0.2771500
  C       -0.8303304    -0.4016960    -0.0288477
  C        0.6302560    -0.2085840    -0.0077820
  C       -2.9774260     0.0775420    -0.0074450
  C       -2.7669850    -1.2782450    -0.1740670
  C        2.4478010     1.1517920    -0.2896530
  C        2.6936640    -1.1417610     0.2510410
  C        3.2993530     0.0833730    -0.0301630
  H       -3.8759520     0.6750340     0.0629310
  H       -3.5116600    -2.0553930    -0.2887470
  H        2.8330150     2.1453150    -0.5142540
  H        3.2873230    -2.0271970     0.4738100
  H        4.3785670     0.1979470    -0.0409660
  C       -1.4969110     2.0704780     0.2948980
  H       -0.7998500     2.2172910     1.1191120
  H       -1.0792200     2.5269500    -0.6013110
  H       -2.4567070     2.5274350     0.5414280
units angstrom
no_reorient  #important for SAPT in psi4, default
symmetry c1  #important for SAPT in psi4, default
}

set PROPERTIES_ORIGIN ["COM"]
properties('MP2/aug-cc-pvtz', properties = ['dipole'])
--------------------------------------------------------------------------

    Molecular point group: c1
  Charge       = 0
  Multiplicity = 1
  Basis Set: AUG-CC-PVTZ
    Blend: AUG-CC-PVTZ
  Basis Set: (AUG-CC-PVTZ AUX)
    Blend: AUG-CC-PVTZ-JKFIT

    Orbital Energies [Eh]
    ---------------------

    Doubly Occupied:

       1A    -15.623314     2A    -15.580412     3A    -15.574917
       4A    -15.545654     5A    -11.333858     6A    -11.306065
       7A    -11.302976     8A    -11.295413     9A    -11.272988
      10A    -11.259938    11A    -11.252033    12A    -11.239671
      13A     -1.345111    14A     -1.308068    15A     -1.198567
      16A     -1.180966    17A     -1.088045    18A     -1.007893
      19A     -0.967325    20A     -0.899241    21A     -0.892751
      22A     -0.803032    23A     -0.783623    24A     -0.726616
      25A     -0.702688    26A     -0.685801    27A     -0.645412
      28A     -0.639162    29A     -0.607296    30A     -0.592836
      31A     -0.587588    32A     -0.578562    33A     -0.569572
      34A     -0.556203    35A     -0.544262    36A     -0.480560
      37A     -0.437401    38A     -0.424291    39A     -0.412759
      40A     -0.397063    41A     -0.378240    42A     -0.299596

  @DF-RHF Final Energy:  -525.55884898016188

   => Energetics <=

    Nuclear Repulsion Energy =            654.0955957009182384
    One-Electron Energy =               -2010.6533508417569465
    Two-Electron Energy =                 830.9989061606768246
    Total Energy =                       -525.5588489801618834
  Basis Set: (AUG-CC-PVTZ AUX)
    Blend: AUG-CC-PVTZ-RI
    Molecular point group: c1

    Geometry (in Angstrom), charge = 0, multiplicity = 1:

       Center              X                  Y                   Z               Mass
    ------------   -----------------  -----------------  -----------------  -----------------
         N           -1.738290948772     0.684519855998     0.089005212023    14.003074004430
         N           -1.441453948772    -1.525021144002    -0.179808787977    14.003074004430
         N            1.104428051228     1.060854855998    -0.288118787977    14.003074004430
         N            1.358188051228    -1.265438144002     0.281990212023    14.003074004430
         C           -0.837220348772    -0.361877144002    -0.024007487977    12.000000000000
         C            0.623366051228    -0.168765144002    -0.002941787977    12.000000000000
         C           -2.984315948772     0.117360855998    -0.002604787977    12.000000000000
         C           -2.773874948772    -1.238426144002    -0.169226787977    12.000000000000
         C            2.440911051228     1.191610855998    -0.284812787977    12.000000000000
         C            2.686774051228    -1.101942144002     0.255881212023    12.000000000000
         C            3.292463051228     0.123191855998    -0.025322787977    12.000000000000
         H           -3.882841948772     0.714852855998     0.067771212023     1.007825032230
         H           -3.518549948772    -2.015574144002    -0.283906787977     1.007825032230
         H            2.826125051228     2.185133855998    -0.509413787977     1.007825032230
         H            3.280433051228    -1.987378144002     0.478650212023     1.007825032230
         H            4.371677051228     0.237765855998    -0.036125787977     1.007825032230
         C           -1.503800948772     2.110296855998     0.299738212023    12.000000000000
         H           -0.806739948772     2.257109855998     1.123952212023     1.007825032230
         H           -1.086109948772     2.566768855998    -0.596470787977     1.007825032230
         H           -2.463596948772     2.567253855998     0.546268212023     1.007825032230

  Basis Set: AUG-CC-PVTZ
    Blend: AUG-CC-PVTZ
  Basis Set: (AUG-CC-PVTZ AUX)
    Blend: AUG-CC-PVTZ-JKFIT
	 Reference Energy          =    -525.5588489801618834 [Eh]
	 Singles Energy            =      -0.0000000000000000 [Eh]
	 Same-Spin Energy          =      -0.5774285632569519 [Eh]
	 Opposite-Spin Energy      =      -1.7374899369074899 [Eh]
	 Correlation Energy        =      -2.3149185001644419 [Eh]
	 Total Energy              =    -527.8737674803263644 [Eh]

	 ================> DF-SCS-MP2 Energies <==================
	-----------------------------------------------------------
	 SCS Same-Spin Scale       =       0.3333333333333333 [-]
	 SCS Opposite-Spin Scale   =       1.2000000000000000 [-]
	 SCS Same-Spin Energy      =      -0.1924761877523173 [Eh]
	 SCS Opposite-Spin Energy  =      -2.0849879242889879 [Eh]
	 SCS Correlation Energy    =      -2.2774641120413053 [Eh]
	 SCS Total Energy          =    -527.8363130922032269 [Eh]
	-----------------------------------------------------------

  Dipole Moment: [D]
     X:     1.4472      Y:     4.0794      Z:     0.4747     Total:     4.3545

*** Psi4 exiting successfully. Buy a developer a beer!
