                               Psi4 1.3.2 release

  ==> Input File <==

--------------------------------------------------------------------------
#psi4
#
memory 32 gb

molecule  {
0 1
  N       -1.7314010     0.6447010     0.0841650
  N       -1.4345640    -1.5648400    -0.1846490
  N        1.1113180     1.0210360    -0.2929590
  N        1.3650780    -1.3052570     0.2771500
  C       -0.8211750    -0.3840720    -0.0264870
  C        0.7295249    -0.1965817    -0.0065027
  C       -2.9774260     0.0775420    -0.0074450
  C       -2.7669850    -1.2782450    -0.1740670
  C        2.4478010     1.1517920    -0.2896530
  C        2.6936640    -1.1417610     0.2510410
  C        3.2993530     0.0833730    -0.0301630
  H       -3.8759520     0.6750340     0.0629310
  H       -3.5116600    -2.0553930    -0.2887470
  H        2.8330150     2.1453150    -0.5142540
  H        3.2873230    -2.0271970     0.4738100
  H        4.3785670     0.1979470    -0.0409660
  C       -1.4969110     2.0704780     0.2948980
  H       -0.7998500     2.2172910     1.1191120
  H       -1.0792200     2.5269500    -0.6013110
  H       -2.4567070     2.5274350     0.5414280
units angstrom
no_reorient  #important for SAPT in psi4, default
symmetry c1  #important for SAPT in psi4, default
}

set PROPERTIES_ORIGIN ["COM"]
properties('MP2/aug-cc-pvtz', properties = ['dipole'])
--------------------------------------------------------------------------

    Molecular point group: c1
  Charge       = 0
  Multiplicity = 1
  Basis Set: AUG-CC-PVTZ
    Blend: AUG-CC-PVTZ
  Basis Set: (AUG-CC-PVTZ AUX)
    Blend: AUG-CC-PVTZ-JKFIT

    Orbital Energies [Eh]
    ---------------------

    Doubly Occupied:

       1A    -15.618428     2A    -15.583215     3A    -15.578396
       4A    -15.537754     5A    -11.333209     6A    -11.312054
       7A    -11.309490     8A    -11.293233     9A    -11.270423
      10A    -11.256686    11A    -11.251408    12A    -11.233759
      13A     -1.344901    14A     -1.322733    15A     -1.218920
      16A     -1.172201    17A     -1.089293    18A     -0.998891
      19A     -0.961097    20A     -0.912249    21A     -0.890479
      22A     -0.795244    23A     -0.776566    24A     -0.724241
      25A     -0.713149    26A     -0.683042    27A     -0.641561
      28A     -0.638740    29A     -0.608774    30A     -0.596885
      31A     -0.588609    32A     -0.578858    33A     -0.566391
      34A     -0.548682    35A     -0.539479    36A     -0.474417
      37A     -0.439832    38A     -0.434516    39A     -0.420155
      40A     -0.397626    41A     -0.374077    42A     -0.296628

  @DF-RHF Final Energy:  -525.55076522418369

   => Energetics <=

    Nuclear Repulsion Energy =            654.2525939352053683
    One-Electron Energy =               -2010.9541385445147625
    Two-Electron Energy =                 831.1507793851257020
    Total Energy =                       -525.5507652241836922
  Basis Set: (AUG-CC-PVTZ AUX)
    Blend: AUG-CC-PVTZ-RI
    Molecular point group: c1

    Geometry (in Angstrom), charge = 0, multiplicity = 1:

       Center              X                  Y                   Z               Mass
    ------------   -----------------  -----------------  -----------------  -----------------
         N           -1.746418966533     0.682298923121     0.088732339755    14.003074004430
         N           -1.449581966533    -1.527242076879    -0.180081660245    14.003074004430
         N            1.096300033467     1.058633923121    -0.288391660245    14.003074004430
         N            1.350060033467    -1.267659076879     0.281717339755    14.003074004430
         C           -0.836192966533    -0.346474076879    -0.021919660245    12.000000000000
         C            0.714506933467    -0.158983776879    -0.001935360245    12.000000000000
         C           -2.992443966533     0.115139923121    -0.002877660245    12.000000000000
         C           -2.782002966533    -1.240647076879    -0.169499660245    12.000000000000
         C            2.432783033467     1.189389923121    -0.285085660245    12.000000000000
         C            2.678646033467    -1.104163076879     0.255608339755    12.000000000000
         C            3.284335033467     0.120970923121    -0.025595660245    12.000000000000
         H           -3.890969966533     0.712631923121     0.067498339755     1.007825032230
         H           -3.526677966533    -2.017795076879    -0.284179660245     1.007825032230
         H            2.817997033467     2.182912923121    -0.509686660245     1.007825032230
         H            3.272305033467    -1.989599076879     0.478377339755     1.007825032230
         H            4.363549033467     0.235544923121    -0.036398660245     1.007825032230
         C           -1.511928966533     2.108075923121     0.299465339755    12.000000000000
         H           -0.814867966533     2.254888923121     1.123679339755     1.007825032230
         H           -1.094237966533     2.564547923121    -0.596743660245     1.007825032230
         H           -2.471724966533     2.565032923121     0.545995339755     1.007825032230

  Basis Set: AUG-CC-PVTZ
    Blend: AUG-CC-PVTZ
  Basis Set: (AUG-CC-PVTZ AUX)
    Blend: AUG-CC-PVTZ-JKFIT
	 Reference Energy          =    -525.5507652241836922 [Eh]
	 Singles Energy            =      -0.0000000000000000 [Eh]
	 Same-Spin Energy          =      -0.5762871718635376 [Eh]
	 Opposite-Spin Energy      =      -1.7359372078843238 [Eh]
	 Correlation Energy        =      -2.3122243797478612 [Eh]
	 Total Energy              =    -527.8629896039315099 [Eh]

	 ================> DF-SCS-MP2 Energies <==================
	-----------------------------------------------------------
	 SCS Same-Spin Scale       =       0.3333333333333333 [-]
	 SCS Opposite-Spin Scale   =       1.2000000000000000 [-]
	 SCS Same-Spin Energy      =      -0.1920957239545125 [Eh]
	 SCS Opposite-Spin Energy  =      -2.0831246494611886 [Eh]
	 SCS Correlation Energy    =      -2.2752203734157010 [Eh]
	 SCS Total Energy          =    -527.8259855975993560 [Eh]
	-----------------------------------------------------------

  Dipole Moment: [D]
     X:     2.1779      Y:     4.1476      Z:     0.4872     Total:     4.7100

*** Psi4 exiting successfully. Buy a developer a beer!
