                               Psi4 1.3.2 release

  ==> Input File <==

--------------------------------------------------------------------------
#psi4
#
memory 32 gb

molecule  {
0 1
  N       -1.7121178     0.6012295     0.0784999
  N       -1.4345640    -1.5648400    -0.1846490
  N        1.1113180     1.0210360    -0.2929590
  N        1.3650780    -1.3052570     0.2771500
  C       -0.8211750    -0.3840720    -0.0264870
  C        0.6302560    -0.2085840    -0.0077820
  C       -2.9774260     0.0775420    -0.0074450
  C       -2.7669850    -1.2782450    -0.1740670
  C        2.4478010     1.1517920    -0.2896530
  C        2.6936640    -1.1417610     0.2510410
  C        3.2993530     0.0833730    -0.0301630
  H       -3.8759520     0.6750340     0.0629310
  H       -3.5116600    -2.0553930    -0.2887470
  H        2.8330150     2.1453150    -0.5142540
  H        3.2873230    -2.0271970     0.4738100
  H        4.3785670     0.1979470    -0.0409660
  C       -1.4969110     2.0704780     0.2948980
  H       -0.7998500     2.2172910     1.1191120
  H       -1.0792200     2.5269500    -0.6013110
  H       -2.4567070     2.5274350     0.5414280
units angstrom
no_reorient  #important for SAPT in psi4, default
symmetry c1  #important for SAPT in psi4, default
}

set PROPERTIES_ORIGIN ["COM"]
properties('MP2/aug-cc-pvtz', properties = ['dipole'])
--------------------------------------------------------------------------

    Molecular point group: c1
  Charge       = 0
  Multiplicity = 1
  Basis Set: AUG-CC-PVTZ
    Blend: AUG-CC-PVTZ
  Basis Set: (AUG-CC-PVTZ AUX)
    Blend: AUG-CC-PVTZ-JKFIT

    Orbital Energies [Eh]
    ---------------------

    Doubly Occupied:

       1A    -15.625876     2A    -15.580553     3A    -15.575265
       4A    -15.539866     5A    -11.333536     6A    -11.306180
       7A    -11.303183     8A    -11.290751     9A    -11.277762
      10A    -11.255881    11A    -11.252289    12A    -11.239346
      13A     -1.352115    14A     -1.309118    15A     -1.197617
      16A     -1.170304    17A     -1.089614    18A     -1.009151
      19A     -0.968951    20A     -0.899564    21A     -0.896112
      22A     -0.804324    23A     -0.783216    24A     -0.725934
      25A     -0.702955    26A     -0.686359    27A     -0.646630
      28A     -0.640499    29A     -0.607002    30A     -0.591658
      31A     -0.588394    32A     -0.581378    33A     -0.566460
      34A     -0.553287    35A     -0.547692    36A     -0.481951
      37A     -0.432790    38A     -0.424392    39A     -0.411854
      40A     -0.395088    41A     -0.377522    42A     -0.300244

  @DF-RHF Final Energy:  -525.55642478018206

   => Energetics <=

    Nuclear Repulsion Energy =            654.8565384925991566
    One-Electron Energy =               -2012.1805990795071466
    Two-Electron Energy =                 831.7676358067259343
    Total Energy =                       -525.5564247801820557
  Basis Set: (AUG-CC-PVTZ AUX)
    Blend: AUG-CC-PVTZ-RI
    Molecular point group: c1

    Geometry (in Angstrom), charge = 0, multiplicity = 1:

       Center              X                  Y                   Z               Mass
    ------------   -----------------  -----------------  -----------------  -----------------
         N           -1.721380943355     0.643529985791     0.083658715475    14.003074004430
         N           -1.443827143355    -1.522539514209    -0.179490184525    14.003074004430
         N            1.102054856645     1.063336485791    -0.287800184525    14.003074004430
         N            1.355814856645    -1.262956514209     0.282308815475    14.003074004430
         C           -0.830438143355    -0.341771514209    -0.021328184525    12.000000000000
         C            0.620992856645    -0.166283514209    -0.002623184525    12.000000000000
         C           -2.986689143355     0.119842485791    -0.002286184525    12.000000000000
         C           -2.776248143355    -1.235944514209    -0.168908184525    12.000000000000
         C            2.438537856645     1.194092485791    -0.284494184525    12.000000000000
         C            2.684400856645    -1.099460514209     0.256199815475    12.000000000000
         C            3.290089856645     0.125673485791    -0.025004184525    12.000000000000
         H           -3.885215143355     0.717334485791     0.068089815475     1.007825032230
         H           -3.520923143355    -2.013092514209    -0.283588184525     1.007825032230
         H            2.823751856645     2.187615485791    -0.509095184525     1.007825032230
         H            3.278059856645    -1.984896514209     0.478968815475     1.007825032230
         H            4.369303856645     0.240247485791    -0.035807184525     1.007825032230
         C           -1.506174143355     2.112778485791     0.300056815475    12.000000000000
         H           -0.809113143355     2.259591485791     1.124270815475     1.007825032230
         H           -1.088483143355     2.569250485791    -0.596152184525     1.007825032230
         H           -2.465970143355     2.569735485791     0.546586815475     1.007825032230

  Basis Set: AUG-CC-PVTZ
    Blend: AUG-CC-PVTZ
  Basis Set: (AUG-CC-PVTZ AUX)
    Blend: AUG-CC-PVTZ-JKFIT
	 Reference Energy          =    -525.5564247801820557 [Eh]
	 Singles Energy            =      -0.0000000000000000 [Eh]
	 Same-Spin Energy          =      -0.5776417673792404 [Eh]
	 Opposite-Spin Energy      =      -1.7376530546986733 [Eh]
	 Correlation Energy        =      -2.3152948220779139 [Eh]
	 Total Energy              =    -527.8717196022599865 [Eh]

	 ================> DF-SCS-MP2 Energies <==================
	-----------------------------------------------------------
	 SCS Same-Spin Scale       =       0.3333333333333333 [-]
	 SCS Opposite-Spin Scale   =       1.2000000000000000 [-]
	 SCS Same-Spin Energy      =      -0.1925472557930801 [Eh]
	 SCS Opposite-Spin Energy  =      -2.0851836656384077 [Eh]
	 SCS Correlation Energy    =      -2.2777309214314880 [Eh]
	 SCS Total Energy          =    -527.8341557016135539 [Eh]
	-----------------------------------------------------------

  Dipole Moment: [D]
     X:     1.4253      Y:     4.2377      Z:     0.4982     Total:     4.4987

*** Psi4 exiting successfully. Buy a developer a beer!
