                               Psi4 1.3.2 release

  ==> Input File <==

--------------------------------------------------------------------------
#psi4
#
memory 32 gb

molecule  {
0 1
  N       -1.7314010     0.6447010     0.0841650
  N       -1.4345640    -1.5648400    -0.1846490
  N        1.1113180     1.0210360    -0.2929590
  N        1.3650780    -1.3052570     0.2771500
  C       -0.8669519    -0.4721921    -0.0382905
  C        0.6302560    -0.2085840    -0.0077820
  C       -2.9774260     0.0775420    -0.0074450
  C       -2.7669850    -1.2782450    -0.1740670
  C        2.4478010     1.1517920    -0.2896530
  C        2.6936640    -1.1417610     0.2510410
  C        3.2993530     0.0833730    -0.0301630
  H       -3.8759520     0.6750340     0.0629310
  H       -3.5116600    -2.0553930    -0.2887470
  H        2.8330150     2.1453150    -0.5142540
  H        3.2873230    -2.0271970     0.4738100
  H        4.3785670     0.1979470    -0.0409660
  C       -1.4969110     2.0704780     0.2948980
  H       -0.7998500     2.2172910     1.1191120
  H       -1.0792200     2.5269500    -0.6013110
  H       -2.4567070     2.5274350     0.5414280
units angstrom
no_reorient  #important for SAPT in psi4, default
symmetry c1  #important for SAPT in psi4, default
}

set PROPERTIES_ORIGIN ["COM"]
properties('MP2/aug-cc-pvtz', properties = ['dipole'])
--------------------------------------------------------------------------

    Molecular point group: c1
  Charge       = 0
  Multiplicity = 1
  Basis Set: AUG-CC-PVTZ
    Blend: AUG-CC-PVTZ
  Basis Set: (AUG-CC-PVTZ AUX)
    Blend: AUG-CC-PVTZ-JKFIT

    Orbital Energies [Eh]
    ---------------------

    Doubly Occupied:

       1A    -15.613052     2A    -15.581753     3A    -15.574769
       4A    -15.541670     5A    -11.335144     6A    -11.306773
       7A    -11.302865     8A    -11.295069     9A    -11.271110
      10A    -11.260448    11A    -11.252627    12A    -11.237356
      13A     -1.349907    14A     -1.308337    15A     -1.204235
      16A     -1.190435    17A     -1.084691    18A     -1.008668
      19A     -0.961214    20A     -0.898847    21A     -0.888734
      22A     -0.806800    23A     -0.779334    24A     -0.725315
      25A     -0.702527    26A     -0.685545    27A     -0.642598
      28A     -0.637306    29A     -0.607189    30A     -0.593762
      31A     -0.590298    32A     -0.578247    33A     -0.563340
      34A     -0.553964    35A     -0.549622    36A     -0.478752
      37A     -0.439956    38A     -0.424379    39A     -0.413689
      40A     -0.401036    41A     -0.379751    42A     -0.302291

  @DF-RHF Final Energy:  -525.55049297951700

   => Energetics <=

    Nuclear Repulsion Energy =            654.0762876180034482
    One-Electron Energy =               -2010.6067552105935192
    Two-Electron Energy =                 830.9799746130729545
    Total Energy =                       -525.5504929795170028
  Basis Set: (AUG-CC-PVTZ AUX)
    Blend: AUG-CC-PVTZ-RI
    Molecular point group: c1

    Geometry (in Angstrom), charge = 0, multiplicity = 1:

       Center              X                  Y                   Z               Mass
    ------------   -----------------  -----------------  -----------------  -----------------
         N           -1.735545621365     0.689804589705     0.089713090663    14.003074004430
         N           -1.438708621365    -1.519736410295    -0.179100909337    14.003074004430
         N            1.107173378635     1.066139589705    -0.287410909337    14.003074004430
         N            1.360933378635    -1.260153410295     0.282698090663    14.003074004430
         C           -0.871096521365    -0.427088510295    -0.032742409337    12.000000000000
         C            0.626111378635    -0.163480410295    -0.002233909337    12.000000000000
         C           -2.981570621365     0.122645589705    -0.001896909337    12.000000000000
         C           -2.771129621365    -1.233141410295    -0.168518909337    12.000000000000
         C            2.443656378635     1.196895589705    -0.284104909337    12.000000000000
         C            2.689519378635    -1.096657410295     0.256589090663    12.000000000000
         C            3.295208378635     0.128476589705    -0.024614909337    12.000000000000
         H           -3.880096621365     0.720137589705     0.068479090663     1.007825032230
         H           -3.515804621365    -2.010289410295    -0.283198909337     1.007825032230
         H            2.828870378635     2.190418589705    -0.508705909337     1.007825032230
         H            3.283178378635    -1.982093410295     0.479358090663     1.007825032230
         H            4.374422378635     0.243050589705    -0.035417909337     1.007825032230
         C           -1.501055621365     2.115581589705     0.300446090663    12.000000000000
         H           -0.803994621365     2.262394589705     1.124660090663     1.007825032230
         H           -1.083364621365     2.572053589705    -0.595762909337     1.007825032230
         H           -2.460851621365     2.572538589705     0.546976090663     1.007825032230

  Basis Set: AUG-CC-PVTZ
    Blend: AUG-CC-PVTZ
  Basis Set: (AUG-CC-PVTZ AUX)
    Blend: AUG-CC-PVTZ-JKFIT
	 Reference Energy          =    -525.5504929795170028 [Eh]
	 Singles Energy            =      -0.0000000000000000 [Eh]
	 Same-Spin Energy          =      -0.5754739376470703 [Eh]
	 Opposite-Spin Energy      =      -1.7346871363593286 [Eh]
	 Correlation Energy        =      -2.3101610740063991 [Eh]
	 Total Energy              =    -527.8606540535233762 [Eh]

	 ================> DF-SCS-MP2 Energies <==================
	-----------------------------------------------------------
	 SCS Same-Spin Scale       =       0.3333333333333333 [-]
	 SCS Opposite-Spin Scale   =       1.2000000000000000 [-]
	 SCS Same-Spin Energy      =      -0.1918246458823568 [Eh]
	 SCS Opposite-Spin Energy  =      -2.0816245636311943 [Eh]
	 SCS Correlation Energy    =      -2.2734492095135512 [Eh]
	 SCS Total Energy          =    -527.8239421890305039 [Eh]
	-----------------------------------------------------------

  Dipole Moment: [D]
     X:     1.6491      Y:     3.9214      Z:     0.4486     Total:     4.2776

*** Psi4 exiting successfully. Buy a developer a beer!
