                               Psi4 1.3.2 release

  ==> Input File <==

--------------------------------------------------------------------------
#psi4
#
memory 32 gb

molecule  {
0 1
  N       -1.7314010     0.6447010     0.0841650
  N       -1.4345640    -1.5648400    -0.1846490
  N        1.1113180     1.0210360    -0.2929590
  N        1.3650780    -1.3052570     0.2771500
  C       -0.8211750    -0.3840720    -0.0264870
  C        0.6302560    -0.2085840    -0.0077820
  C       -2.9774260     0.0775420    -0.0074450
  C       -2.8147851    -1.2846861    -0.1750435
  C        2.4478010     1.1517920    -0.2896530
  C        2.6936640    -1.1417610     0.2510410
  C        3.2993530     0.0833730    -0.0301630
  H       -3.8759520     0.6750340     0.0629310
  H       -3.5116600    -2.0553930    -0.2887470
  H        2.8330150     2.1453150    -0.5142540
  H        3.2873230    -2.0271970     0.4738100
  H        4.3785670     0.1979470    -0.0409660
  C       -1.4969110     2.0704780     0.2948980
  H       -0.7998500     2.2172910     1.1191120
  H       -1.0792200     2.5269500    -0.6013110
  H       -2.4567070     2.5274350     0.5414280
units angstrom
no_reorient  #important for SAPT in psi4, default
symmetry c1  #important for SAPT in psi4, default
}

set PROPERTIES_ORIGIN ["COM"]
properties('MP2/aug-cc-pvtz', properties = ['dipole'])
--------------------------------------------------------------------------

    Molecular point group: c1
  Charge       = 0
  Multiplicity = 1
  Basis Set: AUG-CC-PVTZ
    Blend: AUG-CC-PVTZ
  Basis Set: (AUG-CC-PVTZ AUX)
    Blend: AUG-CC-PVTZ-JKFIT

    Orbital Energies [Eh]
    ---------------------

    Doubly Occupied:

       1A    -15.623638     2A    -15.580707     3A    -15.575456
       4A    -15.548138     5A    -11.333935     6A    -11.306191
       7A    -11.303268     8A    -11.296202     9A    -11.273039
      10A    -11.262652    11A    -11.252453    12A    -11.240600
      13A     -1.340473    14A     -1.307501    15A     -1.197533
      16A     -1.168864    17A     -1.088947    18A     -1.008823
      19A     -0.965643    20A     -0.899841    21A     -0.895498
      22A     -0.806268    23A     -0.782393    24A     -0.725245
      25A     -0.703374    26A     -0.686226    27A     -0.645136
      28A     -0.639787    29A     -0.609005    30A     -0.594987
      31A     -0.585551    32A     -0.579208    33A     -0.569004
      34A     -0.560185    35A     -0.540072    36A     -0.481554
      37A     -0.433057    38A     -0.424412    39A     -0.411946
      40A     -0.396873    41A     -0.371475    42A     -0.301946

  @DF-RHF Final Energy:  -525.55468923793944

   => Energetics <=

    Nuclear Repulsion Energy =            653.0762564056414021
    One-Electron Energy =               -2008.6276747150932351
    Two-Electron Energy =                 829.9967290715125046
    Total Energy =                       -525.5546892379394421
  Basis Set: (AUG-CC-PVTZ AUX)
    Blend: AUG-CC-PVTZ-RI
    Molecular point group: c1

    Geometry (in Angstrom), charge = 0, multiplicity = 1:

       Center              X                  Y                   Z               Mass
    ------------   -----------------  -----------------  -----------------  -----------------
         N           -1.735393952361     0.683681530920     0.088901445596    14.003074004430
         N           -1.438556952361    -1.525859469080    -0.179912554404    14.003074004430
         N            1.107325047639     1.060016530920    -0.288222554404    14.003074004430
         N            1.361085047639    -1.266276469080     0.281886445596    14.003074004430
         C           -0.825167952361    -0.345091469080    -0.021750554404    12.000000000000
         C            0.626263047639    -0.169603469080    -0.003045554404    12.000000000000
         C           -2.981418952361     0.116522530920    -0.002708554404    12.000000000000
         C           -2.818778052361    -1.245705569080    -0.170307054404    12.000000000000
         C            2.443808047639     1.190772530920    -0.284916554404    12.000000000000
         C            2.689671047639    -1.102780469080     0.255777445596    12.000000000000
         C            3.295360047639     0.122353530920    -0.025426554404    12.000000000000
         H           -3.879944952361     0.714014530920     0.067667445596     1.007825032230
         H           -3.515652952361    -2.016412469080    -0.284010554404     1.007825032230
         H            2.829022047639     2.184295530920    -0.509517554404     1.007825032230
         H            3.283330047639    -1.988216469080     0.478546445596     1.007825032230
         H            4.374574047639     0.236927530920    -0.036229554404     1.007825032230
         C           -1.500903952361     2.109458530920     0.299634445596    12.000000000000
         H           -0.803842952361     2.256271530920     1.123848445596     1.007825032230
         H           -1.083212952361     2.565930530920    -0.596574554404     1.007825032230
         H           -2.460699952361     2.566415530920     0.546164445596     1.007825032230

  Basis Set: AUG-CC-PVTZ
    Blend: AUG-CC-PVTZ
  Basis Set: (AUG-CC-PVTZ AUX)
    Blend: AUG-CC-PVTZ-JKFIT
	 Reference Energy          =    -525.5546892379394421 [Eh]
	 Singles Energy            =      -0.0000000000000000 [Eh]
	 Same-Spin Energy          =      -0.5776349745446068 [Eh]
	 Opposite-Spin Energy      =      -1.7388421068620352 [Eh]
	 Correlation Energy        =      -2.3164770814066422 [Eh]
	 Total Energy              =    -527.8711663193461163 [Eh]

	 ================> DF-SCS-MP2 Energies <==================
	-----------------------------------------------------------
	 SCS Same-Spin Scale       =       0.3333333333333333 [-]
	 SCS Opposite-Spin Scale   =       1.2000000000000000 [-]
	 SCS Same-Spin Energy      =      -0.1925449915148689 [Eh]
	 SCS Opposite-Spin Energy  =      -2.0866105282344423 [Eh]
	 SCS Correlation Energy    =      -2.2791555197493114 [Eh]
	 SCS Total Energy          =    -527.8338447576887802 [Eh]
	-----------------------------------------------------------

  Dipole Moment: [D]
     X:     1.4392      Y:     4.1015      Z:     0.4791     Total:     4.3731

*** Psi4 exiting successfully. Buy a developer a beer!
