                               Psi4 1.3.2 release

  ==> Input File <==

--------------------------------------------------------------------------
#psi4
#
memory 32 gb

molecule  {
0 1
  N       -1.7314010     0.6447010     0.0841650
  N       -1.4345640    -1.5648400    -0.1846490
  N        1.1113180     1.0210360    -0.2929590
  N        1.3650780    -1.3052570     0.2771500
  C       -0.8211750    -0.3840720    -0.0264870
  C        0.6846672    -0.2897892     0.0133163
  C       -2.9774260     0.0775420    -0.0074450
  C       -2.7669850    -1.2782450    -0.1740670
  C        2.4478010     1.1517920    -0.2896530
  C        2.6936640    -1.1417610     0.2510410
  C        3.2993530     0.0833730    -0.0301630
  H       -3.8759520     0.6750340     0.0629310
  H       -3.5116600    -2.0553930    -0.2887470
  H        2.8330150     2.1453150    -0.5142540
  H        3.2873230    -2.0271970     0.4738100
  H        4.3785670     0.1979470    -0.0409660
  C       -1.4969110     2.0704780     0.2948980
  H       -0.7998500     2.2172910     1.1191120
  H       -1.0792200     2.5269500    -0.6013110
  H       -2.4567070     2.5274350     0.5414280
units angstrom
no_reorient  #important for SAPT in psi4, default
symmetry c1  #important for SAPT in psi4, default
}

set PROPERTIES_ORIGIN ["COM"]
properties('MP2/aug-cc-pvtz', properties = ['dipole'])
--------------------------------------------------------------------------

    Molecular point group: c1
  Charge       = 0
  Multiplicity = 1
  Basis Set: AUG-CC-PVTZ
    Blend: AUG-CC-PVTZ
  Basis Set: (AUG-CC-PVTZ AUX)
    Blend: AUG-CC-PVTZ-JKFIT

    Orbital Energies [Eh]
    ---------------------

    Doubly Occupied:

       1A    -15.623393     2A    -15.583485     3A    -15.571458
       4A    -15.541167     5A    -11.331143     6A    -11.308577
       7A    -11.307278     8A    -11.294352     9A    -11.271016
      10A    -11.255913    11A    -11.254215    12A    -11.236530
      13A     -1.344024    14A     -1.321043    15A     -1.205387
      16A     -1.175456    17A     -1.087862    18A     -1.003606
      19A     -0.963957    20A     -0.911131    21A     -0.886486
      22A     -0.798469    23A     -0.781013    24A     -0.725503
      25A     -0.709252    26A     -0.683084    27A     -0.643264
      28A     -0.638861    29A     -0.609554    30A     -0.593972
      31A     -0.588371    32A     -0.581555    33A     -0.566558
      34A     -0.550309    35A     -0.540875    36A     -0.480536
      37A     -0.434766    38A     -0.430900    39A     -0.417694
      40A     -0.393824    41A     -0.375586    42A     -0.298190

  @DF-RHF Final Energy:  -525.54789951812018

   => Energetics <=

    Nuclear Repulsion Energy =            654.0647679783374997
    One-Electron Energy =               -2010.5861028164340496
    Two-Electron Energy =                 830.9734353199764882
    Total Energy =                       -525.5478995181201753
  Basis Set: (AUG-CC-PVTZ AUX)
    Blend: AUG-CC-PVTZ-RI
    Molecular point group: c1

    Geometry (in Angstrom), charge = 0, multiplicity = 1:

       Center              X                  Y                   Z               Mass
    ------------   -----------------  -----------------  -----------------  -----------------
         N           -1.743056213144     0.689286214858     0.087246610227    14.003074004430
         N           -1.446219213144    -1.520254785142    -0.181567389773    14.003074004430
         N            1.099662786856     1.065621214858    -0.289877389773    14.003074004430
         N            1.353422786856    -1.260671785142     0.280231610227    14.003074004430
         C           -0.832830213144    -0.339486785142    -0.023405389773    12.000000000000
         C            0.673011986856    -0.245203985142     0.016397910227    12.000000000000
         C           -2.989081213144     0.122127214858    -0.004363389773    12.000000000000
         C           -2.778640213144    -1.233659785142    -0.170985389773    12.000000000000
         C            2.436145786856     1.196377214858    -0.286571389773    12.000000000000
         C            2.682008786856    -1.097175785142     0.254122610227    12.000000000000
         C            3.287697786856     0.127958214858    -0.027081389773    12.000000000000
         H           -3.887607213144     0.719619214858     0.066012610227     1.007825032230
         H           -3.523315213144    -2.010807785142    -0.285665389773     1.007825032230
         H            2.821359786856     2.189900214858    -0.511172389773     1.007825032230
         H            3.275667786856    -1.982611785142     0.476891610227     1.007825032230
         H            4.366911786856     0.242532214858    -0.037884389773     1.007825032230
         C           -1.508566213144     2.115063214858     0.297979610227    12.000000000000
         H           -0.811505213144     2.261876214858     1.122193610227     1.007825032230
         H           -1.090875213144     2.571535214858    -0.598229389773     1.007825032230
         H           -2.468362213144     2.572020214858     0.544509610227     1.007825032230

  Basis Set: AUG-CC-PVTZ
    Blend: AUG-CC-PVTZ
  Basis Set: (AUG-CC-PVTZ AUX)
    Blend: AUG-CC-PVTZ-JKFIT
	 Reference Energy          =    -525.5478995181201753 [Eh]
	 Singles Energy            =      -0.0000000000000000 [Eh]
	 Same-Spin Energy          =      -0.5767768494719279 [Eh]
	 Opposite-Spin Energy      =      -1.7372129249193653 [Eh]
	 Correlation Energy        =      -2.3139897743912932 [Eh]
	 Total Energy              =    -527.8618892925114778 [Eh]

	 ================> DF-SCS-MP2 Energies <==================
	-----------------------------------------------------------
	 SCS Same-Spin Scale       =       0.3333333333333333 [-]
	 SCS Opposite-Spin Scale   =       1.2000000000000000 [-]
	 SCS Same-Spin Energy      =      -0.1922589498239760 [Eh]
	 SCS Opposite-Spin Energy  =      -2.0846555099032384 [Eh]
	 SCS Correlation Energy    =      -2.2769144597272142 [Eh]
	 SCS Total Energy          =    -527.8248139778473842 [Eh]
	-----------------------------------------------------------

  Dipole Moment: [D]
     X:     1.7819      Y:     4.0432      Z:     0.5170     Total:     4.4486

*** Psi4 exiting successfully. Buy a developer a beer!
