                               Psi4 1.3.2 release

  ==> Input File <==

--------------------------------------------------------------------------
#psi4
#
memory 32 gb

molecule  {
0 1
  N       -1.7314010     0.6447010     0.0841650
  N       -1.4345640    -1.5648400    -0.1846490
  N        1.1113180     1.0210360    -0.2929590
  N        1.3650780    -1.3052570     0.2771500
  C       -0.8211750    -0.3840720    -0.0264870
  C        0.5946434    -0.2996117     0.0133294
  C       -2.9774260     0.0775420    -0.0074450
  C       -2.7669850    -1.2782450    -0.1740670
  C        2.4478010     1.1517920    -0.2896530
  C        2.6936640    -1.1417610     0.2510410
  C        3.2993530     0.0833730    -0.0301630
  H       -3.8759520     0.6750340     0.0629310
  H       -3.5116600    -2.0553930    -0.2887470
  H        2.8330150     2.1453150    -0.5142540
  H        3.2873230    -2.0271970     0.4738100
  H        4.3785670     0.1979470    -0.0409660
  C       -1.4969110     2.0704780     0.2948980
  H       -0.7998500     2.2172910     1.1191120
  H       -1.0792200     2.5269500    -0.6013110
  H       -2.4567070     2.5274350     0.5414280
units angstrom
no_reorient  #important for SAPT in psi4, default
symmetry c1  #important for SAPT in psi4, default
}

set PROPERTIES_ORIGIN ["COM"]
properties('MP2/aug-cc-pvtz', properties = ['dipole'])
--------------------------------------------------------------------------

    Molecular point group: c1
  Charge       = 0
  Multiplicity = 1
  Basis Set: AUG-CC-PVTZ
    Blend: AUG-CC-PVTZ
  Basis Set: (AUG-CC-PVTZ AUX)
    Blend: AUG-CC-PVTZ-JKFIT

    Orbital Energies [Eh]
    ---------------------

    Doubly Occupied:

       1A    -15.630293     2A    -15.579700     3A    -15.569536
       4A    -15.549489     5A    -11.332551     6A    -11.302548
       7A    -11.301589     8A    -11.294864     9A    -11.273818
      10A    -11.264321    11A    -11.249405    12A    -11.242840
      13A     -1.347570    14A     -1.303114    15A     -1.191165
      16A     -1.178175    17A     -1.089044    18A     -1.011764
      19A     -0.970799    20A     -0.903386    21A     -0.886985
      22A     -0.805274    23A     -0.787934    24A     -0.728848
      25A     -0.700648    26A     -0.682725    27A     -0.647897
      28A     -0.641661    29A     -0.609577    30A     -0.592273
      31A     -0.587862    32A     -0.579368    33A     -0.568631
      34A     -0.556841    35A     -0.543340    36A     -0.481063
      37A     -0.437748    38A     -0.424677    39A     -0.402338
      40A     -0.394935    41A     -0.378151    42A     -0.298613

  @DF-RHF Final Energy:  -525.54481557840415

   => Energetics <=

    Nuclear Repulsion Energy =            653.9827138967876863
    One-Electron Energy =               -2010.4083419635562677
    Two-Electron Energy =                 830.8808124883645405
    Total Energy =                       -525.5448155784041546
  Basis Set: (AUG-CC-PVTZ AUX)
    Blend: AUG-CC-PVTZ-RI
    Molecular point group: c1

    Geometry (in Angstrom), charge = 0, multiplicity = 1:

       Center              X                  Y                   Z               Mass
    ------------   -----------------  -----------------  -----------------  -----------------
         N           -1.736307587187     0.690022557674     0.087245628187    14.003074004430
         N           -1.439470587187    -1.519518442326    -0.181568371813    14.003074004430
         N            1.106411412813     1.066357557674    -0.289878371813    14.003074004430
         N            1.360171412813    -1.259935442326     0.280230628187    14.003074004430
         C           -0.826081587187    -0.338750442326    -0.023406371813    12.000000000000
         C            0.589736812813    -0.254290142326     0.016410028187    12.000000000000
         C           -2.982332587187     0.122863557674    -0.004364371813    12.000000000000
         C           -2.771891587187    -1.232923442326    -0.170986371813    12.000000000000
         C            2.442894412813     1.197113557674    -0.286572371813    12.000000000000
         C            2.688757412813    -1.096439442326     0.254121628187    12.000000000000
         C            3.294446412813     0.128694557674    -0.027082371813    12.000000000000
         H           -3.880858587187     0.720355557674     0.066011628187     1.007825032230
         H           -3.516566587187    -2.010071442326    -0.285666371813     1.007825032230
         H            2.828108412813     2.190636557674    -0.511173371813     1.007825032230
         H            3.282416412813    -1.981875442326     0.476890628187     1.007825032230
         H            4.373660412813     0.243268557674    -0.037885371813     1.007825032230
         C           -1.501817587187     2.115799557674     0.297978628187    12.000000000000
         H           -0.804756587187     2.262612557674     1.122192628187     1.007825032230
         H           -1.084126587187     2.572271557674    -0.598230371813     1.007825032230
         H           -2.461613587187     2.572756557674     0.544508628187     1.007825032230

  Basis Set: AUG-CC-PVTZ
    Blend: AUG-CC-PVTZ
  Basis Set: (AUG-CC-PVTZ AUX)
    Blend: AUG-CC-PVTZ-JKFIT
	 Reference Energy          =    -525.5448155784041546 [Eh]
	 Singles Energy            =      -0.0000000000000000 [Eh]
	 Same-Spin Energy          =      -0.5789269312761652 [Eh]
	 Opposite-Spin Energy      =      -1.7404447128872089 [Eh]
	 Correlation Energy        =      -2.3193716441633740 [Eh]
	 Total Energy              =    -527.8641872225675797 [Eh]

	 ================> DF-SCS-MP2 Energies <==================
	-----------------------------------------------------------
	 SCS Same-Spin Scale       =       0.3333333333333333 [-]
	 SCS Opposite-Spin Scale   =       1.2000000000000000 [-]
	 SCS Same-Spin Energy      =      -0.1929756437587217 [Eh]
	 SCS Opposite-Spin Energy  =      -2.0885336554646505 [Eh]
	 SCS Correlation Energy    =      -2.2815092992233721 [Eh]
	 SCS Total Energy          =    -527.8263248776274850 [Eh]
	-----------------------------------------------------------

  Dipole Moment: [D]
     X:     1.0448      Y:     4.0086      Z:     0.5092     Total:     4.1737

*** Psi4 exiting successfully. Buy a developer a beer!
