                               Psi4 1.3.2 release

  ==> Input File <==

--------------------------------------------------------------------------
#psi4
#
memory 32 gb

molecule  {
0 1
  N       -1.7314010     0.6447010     0.0841650
  N       -1.4345640    -1.5648400    -0.1846490
  N        1.1113180     1.0210360    -0.2929590
  N        1.3650780    -1.3052570     0.2771500
  C       -0.8211750    -0.3840720    -0.0264870
  C        0.6302560    -0.2085840    -0.0077820
  C       -2.9774260     0.0775420    -0.0074450
  C       -2.7517588    -1.3763410    -0.1861227
  C        2.4478010     1.1517920    -0.2896530
  C        2.6936640    -1.1417610     0.2510410
  C        3.2993530     0.0833730    -0.0301630
  H       -3.8759520     0.6750340     0.0629310
  H       -3.5116600    -2.0553930    -0.2887470
  H        2.8330150     2.1453150    -0.5142540
  H        3.2873230    -2.0271970     0.4738100
  H        4.3785670     0.1979470    -0.0409660
  C       -1.4969110     2.0704780     0.2948980
  H       -0.7998500     2.2172910     1.1191120
  H       -1.0792200     2.5269500    -0.6013110
  H       -2.4567070     2.5274350     0.5414280
units angstrom
no_reorient  #important for SAPT in psi4, default
symmetry c1  #important for SAPT in psi4, default
}

set PROPERTIES_ORIGIN ["COM"]
properties('MP2/aug-cc-pvtz', properties = ['dipole'])
--------------------------------------------------------------------------

    Molecular point group: c1
  Charge       = 0
  Multiplicity = 1
  Basis Set: AUG-CC-PVTZ
    Blend: AUG-CC-PVTZ
  Basis Set: (AUG-CC-PVTZ AUX)
    Blend: AUG-CC-PVTZ-JKFIT

    Orbital Energies [Eh]
    ---------------------

    Doubly Occupied:

       1A    -15.635070     2A    -15.577135     3A    -15.571833
       4A    -15.548237     5A    -11.331758     6A    -11.304040
       7A    -11.301018     8A    -11.291479     9A    -11.276029
      10A    -11.270922    11A    -11.248887    12A    -11.248358
      13A     -1.343648    14A     -1.305778    15A     -1.197810
      16A     -1.184271    17A     -1.086090    18A     -0.997121
      19A     -0.974353    20A     -0.897517    21A     -0.889122
      22A     -0.812435    23A     -0.781160    24A     -0.726508
      25A     -0.701733    26A     -0.685177    27A     -0.646753
      28A     -0.638826    29A     -0.621414    30A     -0.591923
      31A     -0.584083    32A     -0.578435    33A     -0.572624
      34A     -0.565145    35A     -0.542293    36A     -0.479286
      37A     -0.427888    38A     -0.422328    39A     -0.408480
      40A     -0.396586    41A     -0.383860    42A     -0.284289

  @DF-RHF Final Energy:  -525.54344810521627

   => Energetics <=

    Nuclear Repulsion Energy =            652.9783097552863183
    One-Electron Energy =               -2008.3801143603543551
    Two-Electron Energy =                 829.8583564998517659
    Total Energy =                       -525.5434481052162710
  Basis Set: (AUG-CC-PVTZ AUX)
    Blend: AUG-CC-PVTZ-RI
    Molecular point group: c1

    Geometry (in Angstrom), charge = 0, multiplicity = 1:

       Center              X                  Y                   Z               Mass
    ------------   -----------------  -----------------  -----------------  -----------------
         N           -1.740118713193     0.690552432139     0.089731996813    14.003074004430
         N           -1.443281713193    -1.518988567861    -0.179082003187    14.003074004430
         N            1.102600286807     1.066887432139    -0.287392003187    14.003074004430
         N            1.356360286807    -1.259405567861     0.282716996813    14.003074004430
         C           -0.829892713193    -0.338220567861    -0.020920003187    12.000000000000
         C            0.621538286807    -0.162732567861    -0.002215003187    12.000000000000
         C           -2.986143713193     0.123393432139    -0.001878003187    12.000000000000
         C           -2.760476513193    -1.330489567861    -0.180555703187    12.000000000000
         C            2.439083286807     1.197643432139    -0.284086003187    12.000000000000
         C            2.684946286807    -1.095909567861     0.256607996813    12.000000000000
         C            3.290635286807     0.129224432139    -0.024596003187    12.000000000000
         H           -3.884669713193     0.720885432139     0.068497996813     1.007825032230
         H           -3.520377713193    -2.009541567861    -0.283180003187     1.007825032230
         H            2.824297286807     2.191166432139    -0.508687003187     1.007825032230
         H            3.278605286807    -1.981345567861     0.479376996813     1.007825032230
         H            4.369849286807     0.243798432139    -0.035399003187     1.007825032230
         C           -1.505628713193     2.116329432139     0.300464996813    12.000000000000
         H           -0.808567713193     2.263142432139     1.124678996813     1.007825032230
         H           -1.087937713193     2.572801432139    -0.595744003187     1.007825032230
         H           -2.465424713193     2.573286432139     0.546994996813     1.007825032230

  Basis Set: AUG-CC-PVTZ
    Blend: AUG-CC-PVTZ
  Basis Set: (AUG-CC-PVTZ AUX)
    Blend: AUG-CC-PVTZ-JKFIT
	 Reference Energy          =    -525.5434481052162710 [Eh]
	 Singles Energy            =      -0.0000000000000000 [Eh]
	 Same-Spin Energy          =      -0.5794032412834532 [Eh]
	 Opposite-Spin Energy      =      -1.7403976911104373 [Eh]
	 Correlation Energy        =      -2.3198009323938904 [Eh]
	 Total Energy              =    -527.8632490376102169 [Eh]

	 ================> DF-SCS-MP2 Energies <==================
	-----------------------------------------------------------
	 SCS Same-Spin Scale       =       0.3333333333333333 [-]
	 SCS Opposite-Spin Scale   =       1.2000000000000000 [-]
	 SCS Same-Spin Energy      =      -0.1931344137611511 [Eh]
	 SCS Opposite-Spin Energy  =      -2.0884772293325247 [Eh]
	 SCS Correlation Energy    =      -2.2816116430936759 [Eh]
	 SCS Total Energy          =    -527.8250597483099682 [Eh]
	-----------------------------------------------------------

  Dipole Moment: [D]
     X:     1.2433      Y:     4.0170      Z:     0.4681     Total:     4.2309

*** Psi4 exiting successfully. Buy a developer a beer!
