                               Psi4 1.3.2 release

  ==> Input File <==

--------------------------------------------------------------------------
#psi4
#
memory 32 gb

molecule  {
0 1
  N       -1.7522023     0.6874815     0.0897184
  N       -1.4345640    -1.5648400    -0.1846490
  N        1.1113180     1.0210360    -0.2929590
  N        1.3650780    -1.3052570     0.2771500
  C       -0.8211750    -0.3840720    -0.0264870
  C        0.6302560    -0.2085840    -0.0077820
  C       -2.9774260     0.0775420    -0.0074450
  C       -2.7669850    -1.2782450    -0.1740670
  C        2.4478010     1.1517920    -0.2896530
  C        2.6936640    -1.1417610     0.2510410
  C        3.2993530     0.0833730    -0.0301630
  H       -3.8759520     0.6750340     0.0629310
  H       -3.5116600    -2.0553930    -0.2887470
  H        2.8330150     2.1453150    -0.5142540
  H        3.2873230    -2.0271970     0.4738100
  H        4.3785670     0.1979470    -0.0409660
  C       -1.4969110     2.0704780     0.2948980
  H       -0.7998500     2.2172910     1.1191120
  H       -1.0792200     2.5269500    -0.6013110
  H       -2.4567070     2.5274350     0.5414280
units angstrom
no_reorient  #important for SAPT in psi4, default
symmetry c1  #important for SAPT in psi4, default
}

set PROPERTIES_ORIGIN ["COM"]
properties('MP2/aug-cc-pvtz', properties = ['dipole'])
--------------------------------------------------------------------------

    Molecular point group: c1
  Charge       = 0
  Multiplicity = 1
  Basis Set: AUG-CC-PVTZ
    Blend: AUG-CC-PVTZ
  Basis Set: (AUG-CC-PVTZ AUX)
    Blend: AUG-CC-PVTZ-JKFIT

    Orbital Energies [Eh]
    ---------------------

    Doubly Occupied:

       1A    -15.625410     2A    -15.579524     3A    -15.574631
       4A    -15.552995     5A    -11.333348     6A    -11.305527
       7A    -11.302798     8A    -11.299683     9A    -11.269105
      10A    -11.264074    11A    -11.251442    12A    -11.241387
      13A     -1.339226    14A     -1.307105    15A     -1.199135
      16A     -1.184879    17A     -1.088397    18A     -1.008589
      19A     -0.967443    20A     -0.899098    21A     -0.891685
      22A     -0.800188    23A     -0.785719    24A     -0.727838
      25A     -0.702524    26A     -0.685460    27A     -0.646760
      28A     -0.639893    29A     -0.607767    30A     -0.597111
      31A     -0.589546    32A     -0.578215    33A     -0.566402
      34A     -0.556418    35A     -0.539276    36A     -0.480160
      37A     -0.439391    38A     -0.424061    39A     -0.412687
      40A     -0.398361    41A     -0.377846    42A     -0.296797

  @DF-RHF Final Energy:  -525.55316700576918

   => Energetics <=

    Nuclear Repulsion Energy =            653.4200491188295246
    One-Electron Energy =               -2009.2706206125687913
    Two-Electron Energy =                 830.2974044879699704
    Total Energy =                       -525.5531670057691827
  Basis Set: (AUG-CC-PVTZ AUX)
    Blend: AUG-CC-PVTZ-RI
    Molecular point group: c1

    Geometry (in Angstrom), charge = 0, multiplicity = 1:

       Center              X                  Y                   Z               Mass
    ------------   -----------------  -----------------  -----------------  -----------------
         N           -1.757958920890     0.722236810581     0.093895840572    14.003074004430
         N           -1.440320620890    -1.530084689419    -0.180471559428    14.003074004430
         N            1.105561379110     1.055791310581    -0.288781559428    14.003074004430
         N            1.359321379110    -1.270501689419     0.281327440572    14.003074004430
         C           -0.826931620890    -0.349316689419    -0.022309559428    12.000000000000
         C            0.624499379110    -0.173828689419    -0.003604559428    12.000000000000
         C           -2.983182620890     0.112297310581    -0.003267559428    12.000000000000
         C           -2.772741620890    -1.243489689419    -0.169889559428    12.000000000000
         C            2.442044379110     1.186547310581    -0.285475559428    12.000000000000
         C            2.687907379110    -1.107005689419     0.255218440572    12.000000000000
         C            3.293596379110     0.118128310581    -0.025985559428    12.000000000000
         H           -3.881708620890     0.709789310581     0.067108440572     1.007825032230
         H           -3.517416620890    -2.020637689419    -0.284569559428     1.007825032230
         H            2.827258379110     2.180070310581    -0.510076559428     1.007825032230
         H            3.281566379110    -1.992441689419     0.477987440572     1.007825032230
         H            4.372810379110     0.232702310581    -0.036788559428     1.007825032230
         C           -1.502667620890     2.105233310581     0.299075440572    12.000000000000
         H           -0.805606620890     2.252046310581     1.123289440572     1.007825032230
         H           -1.084976620890     2.561705310581    -0.597133559428     1.007825032230
         H           -2.462463620890     2.562190310581     0.545605440572     1.007825032230

  Basis Set: AUG-CC-PVTZ
    Blend: AUG-CC-PVTZ
  Basis Set: (AUG-CC-PVTZ AUX)
    Blend: AUG-CC-PVTZ-JKFIT
	 Reference Energy          =    -525.5531670057691827 [Eh]
	 Singles Energy            =      -0.0000000000000000 [Eh]
	 Same-Spin Energy          =      -0.5784712276684665 [Eh]
	 Opposite-Spin Energy      =      -1.7393663357279228 [Eh]
	 Correlation Energy        =      -2.3178375633963890 [Eh]
	 Total Energy              =    -527.8710045691656205 [Eh]

	 ================> DF-SCS-MP2 Energies <==================
	-----------------------------------------------------------
	 SCS Same-Spin Scale       =       0.3333333333333333 [-]
	 SCS Opposite-Spin Scale   =       1.2000000000000000 [-]
	 SCS Same-Spin Energy      =      -0.1928237425561555 [Eh]
	 SCS Opposite-Spin Energy  =      -2.0872396028735074 [Eh]
	 SCS Correlation Energy    =      -2.2800633454296628 [Eh]
	 SCS Total Energy          =    -527.8332303511988357 [Eh]
	-----------------------------------------------------------

  Dipole Moment: [D]
     X:     1.3741      Y:     3.9773      Z:     0.4613     Total:     4.2331

*** Psi4 exiting successfully. Buy a developer a beer!
