                               Psi4 1.3.2 release

  ==> Input File <==

--------------------------------------------------------------------------
#psi4
#
memory 32 gb

molecule  {
0 1
  N       -1.7314010     0.6447010     0.0841650
  N       -1.4345640    -1.5648400    -0.1846490
  N        1.1113180     1.0210360    -0.2929590
  N        1.3650780    -1.3052570     0.2771500
  C       -0.8211750    -0.3840720    -0.0264870
  C        0.6302560    -0.2085840    -0.0077820
  C       -2.9774260     0.0775420    -0.0074450
  C       -2.7669850    -1.2782450    -0.1740670
  C        2.4478010     1.1517920    -0.2896530
  C        2.6936640    -1.1417610     0.2510410
  C        3.2993530     0.0833730    -0.0301630
  H       -3.8759520     0.6750340     0.0629310
  H       -3.5804567    -2.1271897    -0.2993417
  H        2.8330150     2.1453150    -0.5142540
  H        3.2873230    -2.0271970     0.4738100
  H        4.3785670     0.1979470    -0.0409660
  C       -1.4969110     2.0704780     0.2948980
  H       -0.7998500     2.2172910     1.1191120
  H       -1.0792200     2.5269500    -0.6013110
  H       -2.4567070     2.5274350     0.5414280
units angstrom
no_reorient  #important for SAPT in psi4, default
symmetry c1  #important for SAPT in psi4, default
}

set PROPERTIES_ORIGIN ["COM"]
properties('MP2/aug-cc-pvtz', properties = ['dipole'])
--------------------------------------------------------------------------

    Molecular point group: c1
  Charge       = 0
  Multiplicity = 1
  Basis Set: AUG-CC-PVTZ
    Blend: AUG-CC-PVTZ
  Basis Set: (AUG-CC-PVTZ AUX)
    Blend: AUG-CC-PVTZ-JKFIT

    Orbital Energies [Eh]
    ---------------------

    Doubly Occupied:

       1A    -15.626400     2A    -15.580289     3A    -15.575172
       4A    -15.547578     5A    -11.333752     6A    -11.306066
       7A    -11.303189     8A    -11.296223     9A    -11.273749
      10A    -11.260807    11A    -11.252064    12A    -11.251325
      13A     -1.345484    14A     -1.308403    15A     -1.198217
      16A     -1.178256    17A     -1.089113    18A     -1.007390
      19A     -0.968307    20A     -0.899398    21A     -0.892919
      22A     -0.795820    23A     -0.784841    24A     -0.724804
      25A     -0.702273    26A     -0.684218    27A     -0.646682
      28A     -0.640096    29A     -0.604739    30A     -0.591373
      31A     -0.587053    32A     -0.579643    33A     -0.569487
      34A     -0.544078    35A     -0.543149    36A     -0.481354
      37A     -0.435952    38A     -0.424461    39A     -0.412607
      40A     -0.396988    41A     -0.378447    42A     -0.299017

  @DF-RHF Final Energy:  -525.55035280879281

   => Energetics <=

    Nuclear Repulsion Energy =            653.6050189156568422
    One-Electron Energy =               -2009.6683820719415507
    Two-Electron Energy =                 830.5130103474917860
    Total Energy =                       -525.5503528087928089
  Basis Set: (AUG-CC-PVTZ AUX)
    Blend: AUG-CC-PVTZ-RI
    Molecular point group: c1

    Geometry (in Angstrom), charge = 0, multiplicity = 1:

       Center              X                  Y                   Z               Mass
    ------------   -----------------  -----------------  -----------------  -----------------
         N           -1.738544141275     0.683650703547     0.088894946163    14.003074004430
         N           -1.441707141275    -1.525890296453    -0.179919053837    14.003074004430
         N            1.104174858725     1.059985703547    -0.288229053837    14.003074004430
         N            1.357934858725    -1.266307296453     0.281879946163    14.003074004430
         C           -0.828318141275    -0.345122296453    -0.021757053837    12.000000000000
         C            0.623112858725    -0.169634296453    -0.003052053837    12.000000000000
         C           -2.984569141275     0.116491703547    -0.002715053837    12.000000000000
         C           -2.774128141275    -1.239295296453    -0.169337053837    12.000000000000
         C            2.440657858725     1.190741703547    -0.284923053837    12.000000000000
         C            2.686520858725    -1.102811296453     0.255770946163    12.000000000000
         C            3.292209858725     0.122322703547    -0.025433053837    12.000000000000
         H           -3.883095141275     0.713983703547     0.067660946163     1.007825032230
         H           -3.587599841275    -2.088239996453    -0.294611753837     1.007825032230
         H            2.825871858725     2.184264703547    -0.509524053837     1.007825032230
         H            3.280179858725    -1.988247296453     0.478539946163     1.007825032230
         H            4.371423858725     0.236896703547    -0.036236053837     1.007825032230
         C           -1.504054141275     2.109427703547     0.299627946163    12.000000000000
         H           -0.806993141275     2.256240703547     1.123841946163     1.007825032230
         H           -1.086363141275     2.565899703547    -0.596581053837     1.007825032230
         H           -2.463850141275     2.566384703547     0.546157946163     1.007825032230

  Basis Set: AUG-CC-PVTZ
    Blend: AUG-CC-PVTZ
  Basis Set: (AUG-CC-PVTZ AUX)
    Blend: AUG-CC-PVTZ-JKFIT
	 Reference Energy          =    -525.5503528087928089 [Eh]
	 Singles Energy            =      -0.0000000000000000 [Eh]
	 Same-Spin Energy          =      -0.5782018426466837 [Eh]
	 Opposite-Spin Energy      =      -1.7392297731504121 [Eh]
	 Correlation Energy        =      -2.3174316157970960 [Eh]
	 Total Energy              =    -527.8677844245898996 [Eh]

	 ================> DF-SCS-MP2 Energies <==================
	-----------------------------------------------------------
	 SCS Same-Spin Scale       =       0.3333333333333333 [-]
	 SCS Opposite-Spin Scale   =       1.2000000000000000 [-]
	 SCS Same-Spin Energy      =      -0.1927339475488946 [Eh]
	 SCS Opposite-Spin Energy  =      -2.0870757277804945 [Eh]
	 SCS Correlation Energy    =      -2.2798096753293891 [Eh]
	 SCS Total Energy          =    -527.8301624841221837 [Eh]
	-----------------------------------------------------------

  Dipole Moment: [D]
     X:     1.4277      Y:     4.1178      Z:     0.4814     Total:     4.3848

*** Psi4 exiting successfully. Buy a developer a beer!
