                               Psi4 1.3.2 release

  ==> Input File <==

--------------------------------------------------------------------------
#psi4
#
memory 32 gb

molecule  {
0 1
  N       -1.7314010     0.6447010     0.0841650
  N       -1.4345640    -1.5648400    -0.1846490
  N        1.1113180     1.0210360    -0.2929590
  N        1.3650780    -1.3052570     0.2771500
  C       -0.7799815    -0.4061342    -0.0284538
  C        0.6302560    -0.2085840    -0.0077820
  C       -2.9774260     0.0775420    -0.0074450
  C       -2.7669850    -1.2782450    -0.1740670
  C        2.4478010     1.1517920    -0.2896530
  C        2.6936640    -1.1417610     0.2510410
  C        3.2993530     0.0833730    -0.0301630
  H       -3.8759520     0.6750340     0.0629310
  H       -3.5116600    -2.0553930    -0.2887470
  H        2.8330150     2.1453150    -0.5142540
  H        3.2873230    -2.0271970     0.4738100
  H        4.3785670     0.1979470    -0.0409660
  C       -1.4969110     2.0704780     0.2948980
  H       -0.7998500     2.2172910     1.1191120
  H       -1.0792200     2.5269500    -0.6013110
  H       -2.4567070     2.5274350     0.5414280
units angstrom
no_reorient  #important for SAPT in psi4, default
symmetry c1  #important for SAPT in psi4, default
}

set PROPERTIES_ORIGIN ["COM"]
properties('MP2/aug-cc-pvtz', properties = ['dipole'])
--------------------------------------------------------------------------

    Molecular point group: c1
  Charge       = 0
  Multiplicity = 1
  Basis Set: AUG-CC-PVTZ
    Blend: AUG-CC-PVTZ
  Basis Set: (AUG-CC-PVTZ AUX)
    Blend: AUG-CC-PVTZ-JKFIT

    Orbital Energies [Eh]
    ---------------------

    Doubly Occupied:

       1A    -15.624445     2A    -15.579828     3A    -15.574130
       4A    -15.550648     5A    -11.330963     6A    -11.305794
       7A    -11.302523     8A    -11.295929     9A    -11.270810
      10A    -11.264426    11A    -11.251371    12A    -11.240796
      13A     -1.337588    14A     -1.306386    15A     -1.197772
      16A     -1.175552    17A     -1.092119    18A     -1.009379
      19A     -0.964613    20A     -0.899693    21A     -0.895890
      22A     -0.798203    23A     -0.788062    24A     -0.724918
      25A     -0.702902    26A     -0.685464    27A     -0.642215
      28A     -0.641756    29A     -0.607689    30A     -0.593037
      31A     -0.586749    32A     -0.576133    33A     -0.573844
      34A     -0.557351    35A     -0.539859    36A     -0.482438
      37A     -0.434123    38A     -0.424190    39A     -0.411820
      40A     -0.399701    41A     -0.376307    42A     -0.296360

  @DF-RHF Final Energy:  -525.55250793306993

   => Energetics <=

    Nuclear Repulsion Energy =            653.9618343613232128
    One-Electron Energy =               -2010.4011361078319169
    Two-Electron Energy =                 830.8867938134386577
    Total Energy =                       -525.5525079330699327
  Basis Set: (AUG-CC-PVTZ AUX)
    Blend: AUG-CC-PVTZ-RI
    Molecular point group: c1

    Geometry (in Angstrom), charge = 0, multiplicity = 1:

       Center              X                  Y                   Z               Mass
    ------------   -----------------  -----------------  -----------------  -----------------
         N           -1.742065349469     0.684852565257     0.088975683345    14.003074004430
         N           -1.445228349469    -1.524688434743    -0.179838316655    14.003074004430
         N            1.100653650531     1.061187565257    -0.288148316655    14.003074004430
         N            1.354413650531    -1.265105434743     0.281960683345    14.003074004430
         C           -0.790645849469    -0.365982634743    -0.023643116655    12.000000000000
         C            0.619591650531    -0.168432434743    -0.002971316655    12.000000000000
         C           -2.988090349469     0.117693565257    -0.002634316655    12.000000000000
         C           -2.777649349469    -1.238093434743    -0.169256316655    12.000000000000
         C            2.437136650531     1.191943565257    -0.284842316655    12.000000000000
         C            2.682999650531    -1.101609434743     0.255851683345    12.000000000000
         C            3.288688650531     0.123524565257    -0.025352316655    12.000000000000
         H           -3.886616349469     0.715185565257     0.067741683345     1.007825032230
         H           -3.522324349469    -2.015241434743    -0.283936316655     1.007825032230
         H            2.822350650531     2.185466565257    -0.509443316655     1.007825032230
         H            3.276658650531    -1.987045434743     0.478620683345     1.007825032230
         H            4.367902650531     0.238098565257    -0.036155316655     1.007825032230
         C           -1.507575349469     2.110629565257     0.299708683345    12.000000000000
         H           -0.810514349469     2.257442565257     1.123922683345     1.007825032230
         H           -1.089884349469     2.567101565257    -0.596500316655     1.007825032230
         H           -2.467371349469     2.567586565257     0.546238683345     1.007825032230

  Basis Set: AUG-CC-PVTZ
    Blend: AUG-CC-PVTZ
  Basis Set: (AUG-CC-PVTZ AUX)
    Blend: AUG-CC-PVTZ-JKFIT
	 Reference Energy          =    -525.5525079330699327 [Eh]
	 Singles Energy            =      -0.0000000000000000 [Eh]
	 Same-Spin Energy          =      -0.5789257890578651 [Eh]
	 Opposite-Spin Energy      =      -1.7399724266417138 [Eh]
	 Correlation Energy        =      -2.3188982156995790 [Eh]
	 Total Energy              =    -527.8714061487695517 [Eh]

	 ================> DF-SCS-MP2 Energies <==================
	-----------------------------------------------------------
	 SCS Same-Spin Scale       =       0.3333333333333333 [-]
	 SCS Opposite-Spin Scale   =       1.2000000000000000 [-]
	 SCS Same-Spin Energy      =      -0.1929752630192884 [Eh]
	 SCS Opposite-Spin Energy  =      -2.0879669119700566 [Eh]
	 SCS Correlation Energy    =      -2.2809421749893448 [Eh]
	 SCS Total Energy          =    -527.8334501080593100 [Eh]
	-----------------------------------------------------------

  Dipole Moment: [D]
     X:     1.3196      Y:     4.0364      Z:     0.4665     Total:     4.2722

*** Psi4 exiting successfully. Buy a developer a beer!
