                               Psi4 1.3.2 release

  ==> Input File <==

--------------------------------------------------------------------------
#psi4
#
memory 32 gb

molecule  {
0 1
  N       -1.7314010     0.6447010     0.0841650
  N       -1.4345640    -1.5648400    -0.1846490
  N        1.1113180     1.0210360    -0.2929590
  N        1.3650780    -1.3052570     0.2771500
  C       -0.8631158    -0.3634484    -0.0247129
  C        0.6302560    -0.2085840    -0.0077820
  C       -2.9774260     0.0775420    -0.0074450
  C       -2.7669850    -1.2782450    -0.1740670
  C        2.4478010     1.1517920    -0.2896530
  C        2.6936640    -1.1417610     0.2510410
  C        3.2993530     0.0833730    -0.0301630
  H       -3.8759520     0.6750340     0.0629310
  H       -3.5116600    -2.0553930    -0.2887470
  H        2.8330150     2.1453150    -0.5142540
  H        3.2873230    -2.0271970     0.4738100
  H        4.3785670     0.1979470    -0.0409660
  C       -1.4969110     2.0704780     0.2948980
  H       -0.7998500     2.2172910     1.1191120
  H       -1.0792200     2.5269500    -0.6013110
  H       -2.4567070     2.5274350     0.5414280
units angstrom
no_reorient  #important for SAPT in psi4, default
symmetry c1  #important for SAPT in psi4, default
}

set PROPERTIES_ORIGIN ["COM"]
properties('MP2/aug-cc-pvtz', properties = ['dipole'])
--------------------------------------------------------------------------

    Molecular point group: c1
  Charge       = 0
  Multiplicity = 1
  Basis Set: AUG-CC-PVTZ
    Blend: AUG-CC-PVTZ
  Basis Set: (AUG-CC-PVTZ AUX)
    Blend: AUG-CC-PVTZ-JKFIT

    Orbital Energies [Eh]
    ---------------------

    Doubly Occupied:

       1A    -15.626924     2A    -15.579907     3A    -15.575413
       4A    -15.542702     5A    -11.335315     6A    -11.305702
       7A    -11.303218     8A    -11.295104     9A    -11.276133
      10A    -11.255628    11A    -11.252026    12A    -11.240290
      13A     -1.354346    14A     -1.308792    15A     -1.198027
      16A     -1.180534    17A     -1.086014    18A     -1.006425
      19A     -0.974146    20A     -0.898744    21A     -0.891477
      22A     -0.806711    23A     -0.780435    24A     -0.729213
      25A     -0.702345    26A     -0.686051    27A     -0.651299
      28A     -0.637749    29A     -0.606866    30A     -0.593705
      31A     -0.589617    32A     -0.579657    33A     -0.566344
      34A     -0.553129    35A     -0.547055    36A     -0.478865
      37A     -0.438222    38A     -0.424111    39A     -0.412727
      40A     -0.393771    41A     -0.379734    42A     -0.300484

  @DF-RHF Final Energy:  -525.55753339545356

   => Energetics <=

    Nuclear Repulsion Energy =            654.3120741213025440
    One-Electron Energy =               -2011.0493007867573851
    Two-Electron Energy =                 831.1796932700011666
    Total Energy =                       -525.5575333954535608
  Basis Set: (AUG-CC-PVTZ AUX)
    Blend: AUG-CC-PVTZ-RI
    Molecular point group: c1

    Geometry (in Angstrom), charge = 0, multiplicity = 1:

       Center              X                  Y                   Z               Mass
    ------------   -----------------  -----------------  -----------------  -----------------
         N           -1.735833194251     0.681652628153     0.088695247118    14.003074004430
         N           -1.438996194251    -1.527888371847    -0.180118752882    14.003074004430
         N            1.106885805749     1.057987628153    -0.288428752882    14.003074004430
         N            1.360645805749    -1.268305371847     0.281680247118    14.003074004430
         C           -0.867547994251    -0.326496771847    -0.020182652882    12.000000000000
         C            0.625823805749    -0.171632371847    -0.003251752882    12.000000000000
         C           -2.981858194251     0.114493628153    -0.002914752882    12.000000000000
         C           -2.771417194251    -1.241293371847    -0.169536752882    12.000000000000
         C            2.443368805749     1.188743628153    -0.285122752882    12.000000000000
         C            2.689231805749    -1.104809371847     0.255571247118    12.000000000000
         C            3.294920805749     0.120324628153    -0.025632752882    12.000000000000
         H           -3.880384194251     0.711985628153     0.067461247118     1.007825032230
         H           -3.516092194251    -2.018441371847    -0.284216752882     1.007825032230
         H            2.828582805749     2.182266628153    -0.509723752882     1.007825032230
         H            3.282890805749    -1.990245371847     0.478340247118     1.007825032230
         H            4.374134805749     0.234898628153    -0.036435752882     1.007825032230
         C           -1.501343194251     2.107429628153     0.299428247118    12.000000000000
         H           -0.804282194251     2.254242628153     1.123642247118     1.007825032230
         H           -1.083652194251     2.563901628153    -0.596780752882     1.007825032230
         H           -2.461139194251     2.564386628153     0.545958247118     1.007825032230

  Basis Set: AUG-CC-PVTZ
    Blend: AUG-CC-PVTZ
  Basis Set: (AUG-CC-PVTZ AUX)
    Blend: AUG-CC-PVTZ-JKFIT
	 Reference Energy          =    -525.5575333954535608 [Eh]
	 Singles Energy            =      -0.0000000000000000 [Eh]
	 Same-Spin Energy          =      -0.5771552279520784 [Eh]
	 Opposite-Spin Energy      =      -1.7369905991855259 [Eh]
	 Correlation Energy        =      -2.3141458271376045 [Eh]
	 Total Energy              =    -527.8716792225911831 [Eh]

	 ================> DF-SCS-MP2 Energies <==================
	-----------------------------------------------------------
	 SCS Same-Spin Scale       =       0.3333333333333333 [-]
	 SCS Opposite-Spin Scale   =       1.2000000000000000 [-]
	 SCS Same-Spin Energy      =      -0.1923850759840261 [Eh]
	 SCS Opposite-Spin Energy  =      -2.0843887190226309 [Eh]
	 SCS Correlation Energy    =      -2.2767737950066569 [Eh]
	 SCS Total Energy          =    -527.8343071904602084 [Eh]
	-----------------------------------------------------------

  Dipole Moment: [D]
     X:     1.4615      Y:     4.1812      Z:     0.4931     Total:     4.4566

*** Psi4 exiting successfully. Buy a developer a beer!
