                               Psi4 1.3.2 release

  ==> Input File <==

--------------------------------------------------------------------------
#psi4
#
memory 32 gb

molecule  {
0 1
  N       -1.7132098     0.6602701     0.0864403
  N       -1.4345640    -1.5648400    -0.1846490
  N        1.1113180     1.0210360    -0.2929590
  N        1.3650780    -1.3052570     0.2771500
  C       -0.8211750    -0.3840720    -0.0264870
  C        0.6302560    -0.2085840    -0.0077820
  C       -2.9774260     0.0775420    -0.0074450
  C       -2.7669850    -1.2782450    -0.1740670
  C        2.4478010     1.1517920    -0.2896530
  C        2.6936640    -1.1417610     0.2510410
  C        3.2993530     0.0833730    -0.0301630
  H       -3.8759520     0.6750340     0.0629310
  H       -3.5116600    -2.0553930    -0.2887470
  H        2.8330150     2.1453150    -0.5142540
  H        3.2873230    -2.0271970     0.4738100
  H        4.3785670     0.1979470    -0.0409660
  C       -1.4969110     2.0704780     0.2948980
  H       -0.7998500     2.2172910     1.1191120
  H       -1.0792200     2.5269500    -0.6013110
  H       -2.4567070     2.5274350     0.5414280
units angstrom
no_reorient  #important for SAPT in psi4, default
symmetry c1  #important for SAPT in psi4, default
}

set PROPERTIES_ORIGIN ["COM"]
properties('MP2/aug-cc-pvtz', properties = ['dipole'])
--------------------------------------------------------------------------

    Molecular point group: c1
  Charge       = 0
  Multiplicity = 1
  Basis Set: AUG-CC-PVTZ
    Blend: AUG-CC-PVTZ
  Basis Set: (AUG-CC-PVTZ AUX)
    Blend: AUG-CC-PVTZ-JKFIT

    Orbital Energies [Eh]
    ---------------------

    Doubly Occupied:

       1A    -15.625107     2A    -15.580424     3A    -15.575238
       4A    -15.546742     5A    -11.333121     6A    -11.306053
       7A    -11.303144     8A    -11.297789     9A    -11.271270
      10A    -11.261040    11A    -11.252249    12A    -11.242369
      13A     -1.342330    14A     -1.307466    15A     -1.198540
      16A     -1.179715    17A     -1.088999    18A     -1.006122
      19A     -0.969915    20A     -0.899509    21A     -0.893940
      22A     -0.801108    23A     -0.784824    24A     -0.726787
      25A     -0.702938    26A     -0.685110    27A     -0.646524
      28A     -0.638945    29A     -0.607805    30A     -0.595576
      31A     -0.589575    32A     -0.579604    33A     -0.567911
      34A     -0.554400    35A     -0.541044    36A     -0.481000
      37A     -0.436753    38A     -0.424385    39A     -0.412705
      40A     -0.395362    41A     -0.377650    42A     -0.299855

  @DF-RHF Final Energy:  -525.55670155560938

   => Energetics <=

    Nuclear Repulsion Energy =            654.0631190393473844
    One-Electron Energy =               -2010.5777573411928643
    Two-Electron Energy =                 830.9579367462361006
    Total Energy =                       -525.5567015556093793
  Basis Set: (AUG-CC-PVTZ AUX)
    Blend: AUG-CC-PVTZ-RI
    Molecular point group: c1

    Geometry (in Angstrom), charge = 0, multiplicity = 1:

       Center              X                  Y                   Z               Mass
    ------------   -----------------  -----------------  -----------------  -----------------
         N           -1.722377417091     0.697405816609     0.090904503069    14.003074004430
         N           -1.443731617091    -1.527704283391    -0.180184796931    14.003074004430
         N            1.102150382909     1.058171716609    -0.288494796931    14.003074004430
         N            1.355910382909    -1.268121283391     0.281614203069    14.003074004430
         C           -0.830342617091    -0.346936283391    -0.022022796931    12.000000000000
         C            0.621088382909    -0.171448283391    -0.003317796931    12.000000000000
         C           -2.986593617091     0.114677716609    -0.002980796931    12.000000000000
         C           -2.776152617091    -1.241109283391    -0.169602796931    12.000000000000
         C            2.438633382909     1.188927716609    -0.285188796931    12.000000000000
         C            2.684496382909    -1.104625283391     0.255505203069    12.000000000000
         C            3.290185382909     0.120508716609    -0.025698796931    12.000000000000
         H           -3.885119617091     0.712169716609     0.067395203069     1.007825032230
         H           -3.520827617091    -2.018257283391    -0.284282796931     1.007825032230
         H            2.823847382909     2.182450716609    -0.509789796931     1.007825032230
         H            3.278155382909    -1.990061283391     0.478274203069     1.007825032230
         H            4.369399382909     0.235082716609    -0.036501796931     1.007825032230
         C           -1.506078617091     2.107613716609     0.299362203069    12.000000000000
         H           -0.809017617091     2.254426716609     1.123576203069     1.007825032230
         H           -1.088387617091     2.564085716609    -0.596846796931     1.007825032230
         H           -2.465874617091     2.564570716609     0.545892203069     1.007825032230

  Basis Set: AUG-CC-PVTZ
    Blend: AUG-CC-PVTZ
  Basis Set: (AUG-CC-PVTZ AUX)
    Blend: AUG-CC-PVTZ-JKFIT
	 Reference Energy          =    -525.5567015556093793 [Eh]
	 Singles Energy            =      -0.0000000000000000 [Eh]
	 Same-Spin Energy          =      -0.5779939257014822 [Eh]
	 Opposite-Spin Energy      =      -1.7386784297112585 [Eh]
	 Correlation Energy        =      -2.3166723554127406 [Eh]
	 Total Energy              =    -527.8733739110220995 [Eh]

	 ================> DF-SCS-MP2 Energies <==================
	-----------------------------------------------------------
	 SCS Same-Spin Scale       =       0.3333333333333333 [-]
	 SCS Opposite-Spin Scale   =       1.2000000000000000 [-]
	 SCS Same-Spin Energy      =      -0.1926646419004941 [Eh]
	 SCS Opposite-Spin Energy  =      -2.0864141156535103 [Eh]
	 SCS Correlation Energy    =      -2.2790787575540046 [Eh]
	 SCS Total Energy          =    -527.8357803131633545 [Eh]
	-----------------------------------------------------------

  Dipole Moment: [D]
     X:     1.3962      Y:     4.0448      Z:     0.4718     Total:     4.3049

*** Psi4 exiting successfully. Buy a developer a beer!
