                               Psi4 1.3.2 release

  ==> Input File <==

--------------------------------------------------------------------------
#psi4
#
memory 32 gb

molecule  {
0 1
  N       -1.7314010     0.6447010     0.0841650
  N       -1.4345640    -1.5648400    -0.1846490
  N        1.1113180     1.0210360    -0.2929590
  N        1.3650780    -1.3052570     0.2771500
  C       -0.8004817    -0.3949249    -0.0274464
  C        0.6302560    -0.2085840    -0.0077820
  C       -2.9774260     0.0775420    -0.0074450
  C       -2.7669850    -1.2782450    -0.1740670
  C        2.4478010     1.1517920    -0.2896530
  C        2.6936640    -1.1417610     0.2510410
  C        3.2993530     0.0833730    -0.0301630
  H       -3.8759520     0.6750340     0.0629310
  H       -3.5116600    -2.0553930    -0.2887470
  H        2.8330150     2.1453150    -0.5142540
  H        3.2873230    -2.0271970     0.4738100
  H        4.3785670     0.1979470    -0.0409660
  C       -1.4969110     2.0704780     0.2948980
  H       -0.7998500     2.2172910     1.1191120
  H       -1.0792200     2.5269500    -0.6013110
  H       -2.4567070     2.5274350     0.5414280
units angstrom
no_reorient  #important for SAPT in psi4, default
symmetry c1  #important for SAPT in psi4, default
}

set PROPERTIES_ORIGIN ["COM"]
properties('MP2/aug-cc-pvtz', properties = ['dipole'])
--------------------------------------------------------------------------

    Molecular point group: c1
  Charge       = 0
  Multiplicity = 1
  Basis Set: AUG-CC-PVTZ
    Blend: AUG-CC-PVTZ
  Basis Set: (AUG-CC-PVTZ AUX)
    Blend: AUG-CC-PVTZ-JKFIT

    Orbital Energies [Eh]
    ---------------------

    Doubly Occupied:

       1A    -15.625166     2A    -15.579938     3A    -15.574537
       4A    -15.548559     5A    -11.332223     6A    -11.305826
       7A    -11.302758     8A    -11.295650     9A    -11.272082
      10A    -11.262160    11A    -11.251624    12A    -11.240540
      13A     -1.340903    14A     -1.307353    15A     -1.197849
      16A     -1.176654    17A     -1.090492    18A     -1.008648
      19A     -0.966375    20A     -0.899510    21A     -0.894947
      22A     -0.800240    23A     -0.786319    24A     -0.725902
      25A     -0.702814    26A     -0.685645    27A     -0.643981
      28A     -0.640918    29A     -0.607517    30A     -0.592917
      31A     -0.586419    32A     -0.578136    33A     -0.571997
      34A     -0.557018    35A     -0.541503    36A     -0.481890
      37A     -0.435174    38A     -0.424216    39A     -0.412134
      40A     -0.398133    41A     -0.377052    42A     -0.297501

  @DF-RHF Final Energy:  -525.55593727696203

   => Energetics <=

    Nuclear Repulsion Energy =            654.0353150323687714
    One-Electron Energy =               -2010.5400674568529666
    Two-Electron Energy =                 830.9488151475221684
    Total Energy =                       -525.5559372769620268
  Basis Set: (AUG-CC-PVTZ AUX)
    Blend: AUG-CC-PVTZ-RI
    Molecular point group: c1

    Geometry (in Angstrom), charge = 0, multiplicity = 1:

       Center              X                  Y                   Z               Mass
    ------------   -----------------  -----------------  -----------------  -----------------
         N           -1.740528553846     0.684012261104     0.088900163696    14.003074004430
         N           -1.443691553846    -1.525528738896    -0.179913836304    14.003074004430
         N            1.102190446154     1.060347261104    -0.288223836304    14.003074004430
         N            1.355950446154    -1.265945738896     0.281885163696    14.003074004430
         C           -0.809609253846    -0.355613638896    -0.022711236304    12.000000000000
         C            0.621128446154    -0.169272738896    -0.003046836304    12.000000000000
         C           -2.986553553846     0.116853261104    -0.002709836304    12.000000000000
         C           -2.776112553846    -1.238933738896    -0.169331836304    12.000000000000
         C            2.438673446154     1.191103261104    -0.284917836304    12.000000000000
         C            2.684536446154    -1.102449738896     0.255776163696    12.000000000000
         C            3.290225446154     0.122684261104    -0.025427836304    12.000000000000
         H           -3.885079553846     0.714345261104     0.067666163696     1.007825032230
         H           -3.520787553846    -2.016081738896    -0.284011836304     1.007825032230
         H            2.823887446154     2.184626261104    -0.509518836304     1.007825032230
         H            3.278195446154    -1.987885738896     0.478545163696     1.007825032230
         H            4.369439446154     0.237258261104    -0.036230836304     1.007825032230
         C           -1.506038553846     2.109789261104     0.299633163696    12.000000000000
         H           -0.808977553846     2.256602261104     1.123847163696     1.007825032230
         H           -1.088347553846     2.566261261104    -0.596575836304     1.007825032230
         H           -2.465834553846     2.566746261104     0.546163163696     1.007825032230

  Basis Set: AUG-CC-PVTZ
    Blend: AUG-CC-PVTZ
  Basis Set: (AUG-CC-PVTZ AUX)
    Blend: AUG-CC-PVTZ-JKFIT
	 Reference Energy          =    -525.5559372769620268 [Eh]
	 Singles Energy            =      -0.0000000000000000 [Eh]
	 Same-Spin Energy          =      -0.5784299081628959 [Eh]
	 Opposite-Spin Energy      =      -1.7391133256706646 [Eh]
	 Correlation Energy        =      -2.3175432338335602 [Eh]
	 Total Energy              =    -527.8734805107956163 [Eh]

	 ================> DF-SCS-MP2 Energies <==================
	-----------------------------------------------------------
	 SCS Same-Spin Scale       =       0.3333333333333333 [-]
	 SCS Opposite-Spin Scale   =       1.2000000000000000 [-]
	 SCS Same-Spin Energy      =      -0.1928099693876320 [Eh]
	 SCS Opposite-Spin Energy  =      -2.0869359908047973 [Eh]
	 SCS Correlation Energy    =      -2.2797459601924293 [Eh]
	 SCS Total Energy          =    -527.8356832371545124 [Eh]
	-----------------------------------------------------------

  Dipole Moment: [D]
     X:     1.3558      Y:     4.0724      Z:     0.4731     Total:     4.3181

*** Psi4 exiting successfully. Buy a developer a beer!
