                               Psi4 1.3.2 release

  ==> Input File <==

--------------------------------------------------------------------------
#psi4
#
memory 32 gb

molecule  {
0 1
  N       -1.6350886     0.6198995     0.2002254
  N       -1.4345640    -1.5648400    -0.1846490
  N        1.1113180     1.0210360    -0.2929590
  N        1.3650780    -1.3052570     0.2771500
  C       -0.8211750    -0.3840720    -0.0264870
  C        0.6302560    -0.2085840    -0.0077820
  C       -2.9774260     0.0775420    -0.0074450
  C       -2.7669850    -1.2782450    -0.1740670
  C        2.4478010     1.1517920    -0.2896530
  C        2.6936640    -1.1417610     0.2510410
  C        3.2993530     0.0833730    -0.0301630
  H       -3.8759520     0.6750340     0.0629310
  H       -3.5116600    -2.0553930    -0.2887470
  H        2.8330150     2.1453150    -0.5142540
  H        3.2873230    -2.0271970     0.4738100
  H        4.3785670     0.1979470    -0.0409660
  C       -1.4969110     2.0704780     0.2948980
  H       -0.7998500     2.2172910     1.1191120
  H       -1.0792200     2.5269500    -0.6013110
  H       -2.4567070     2.5274350     0.5414280
units angstrom
no_reorient  #important for SAPT in psi4, default
symmetry c1  #important for SAPT in psi4, default
}

set PROPERTIES_ORIGIN ["COM"]
properties('MP2/aug-cc-pvtz', properties = ['dipole'])
--------------------------------------------------------------------------

    Molecular point group: c1
  Charge       = 0
  Multiplicity = 1
  Basis Set: AUG-CC-PVTZ
    Blend: AUG-CC-PVTZ
  Basis Set: (AUG-CC-PVTZ AUX)
    Blend: AUG-CC-PVTZ-JKFIT

    Orbital Energies [Eh]
    ---------------------

    Doubly Occupied:

       1A    -15.623158     2A    -15.582641     3A    -15.576818
       4A    -15.537404     5A    -11.332534     6A    -11.307297
       7A    -11.304042     8A    -11.297456     9A    -11.273345
      10A    -11.257592    11A    -11.254305    12A    -11.246312
      13A     -1.346291    14A     -1.307837    15A     -1.199411
      16A     -1.173881    17A     -1.089969    18A     -1.004415
      19A     -0.971834    20A     -0.900559    21A     -0.897154
      22A     -0.800008    23A     -0.783933    24A     -0.724570
      25A     -0.704514    26A     -0.684409    27A     -0.645742
      28A     -0.636625    29A     -0.608549    30A     -0.605327
      31A     -0.592178    32A     -0.579228    33A     -0.565360
      34A     -0.547519    35A     -0.533576    36A     -0.481286
      37A     -0.433560    38A     -0.425088    39A     -0.412986
      40A     -0.391862    41A     -0.378471    42A     -0.304037

  @DF-RHF Final Energy:  -525.54410357929135

   => Energetics <=

    Nuclear Repulsion Energy =            654.8245982618263952
    One-Electron Energy =               -2012.0912439217881911
    Two-Electron Energy =                 831.7225420806704506
    Total Energy =                       -525.5441035792913453
  Basis Set: (AUG-CC-PVTZ AUX)
    Blend: AUG-CC-PVTZ-RI
    Molecular point group: c1

    Geometry (in Angstrom), charge = 0, multiplicity = 1:

       Center              X                  Y                   Z               Mass
    ------------   -----------------  -----------------  -----------------  -----------------
         N           -1.651090124033     0.660566766605     0.194735880074    14.003074004430
         N           -1.450565524033    -1.524172733395    -0.190138519926    14.003074004430
         N            1.095316475967     1.061703266605    -0.298448519926    14.003074004430
         N            1.349076475967    -1.264589733395     0.271660480074    14.003074004430
         C           -0.837176524033    -0.343404733395    -0.031976519926    12.000000000000
         C            0.614254475967    -0.167916733395    -0.013271519926    12.000000000000
         C           -2.993427524033     0.118209266605    -0.012934519926    12.000000000000
         C           -2.782986524033    -1.237577733395    -0.179556519926    12.000000000000
         C            2.431799475967     1.192459266605    -0.295142519926    12.000000000000
         C            2.677662475967    -1.101093733395     0.245551480074    12.000000000000
         C            3.283351475967     0.124040266605    -0.035652519926    12.000000000000
         H           -3.891953524033     0.715701266605     0.057441480074     1.007825032230
         H           -3.527661524033    -2.014725733395    -0.294236519926     1.007825032230
         H            2.817013475967     2.185982266605    -0.519743519926     1.007825032230
         H            3.271321475967    -1.986529733395     0.468320480074     1.007825032230
         H            4.362565475967     0.238614266605    -0.046455519926     1.007825032230
         C           -1.512912524033     2.111145266605     0.289408480074    12.000000000000
         H           -0.815851524033     2.257958266605     1.113622480074     1.007825032230
         H           -1.095221524033     2.567617266605    -0.606800519926     1.007825032230
         H           -2.472708524033     2.568102266605     0.535938480074     1.007825032230

  Basis Set: AUG-CC-PVTZ
    Blend: AUG-CC-PVTZ
  Basis Set: (AUG-CC-PVTZ AUX)
    Blend: AUG-CC-PVTZ-JKFIT
	 Reference Energy          =    -525.5441035792913453 [Eh]
	 Singles Energy            =      -0.0000000000000000 [Eh]
	 Same-Spin Energy          =      -0.5773990866014084 [Eh]
	 Opposite-Spin Energy      =      -1.7386785961341764 [Eh]
	 Correlation Energy        =      -2.3160776827355849 [Eh]
	 Total Energy              =    -527.8601812620269129 [Eh]

	 ================> DF-SCS-MP2 Energies <==================
	-----------------------------------------------------------
	 SCS Same-Spin Scale       =       0.3333333333333333 [-]
	 SCS Opposite-Spin Scale   =       1.2000000000000000 [-]
	 SCS Same-Spin Energy      =      -0.1924663622004694 [Eh]
	 SCS Opposite-Spin Energy  =      -2.0864143153610115 [Eh]
	 SCS Correlation Energy    =      -2.2788806775614812 [Eh]
	 SCS Total Energy          =    -527.8229842568528056 [Eh]
	-----------------------------------------------------------

  Dipole Moment: [D]
     X:     1.5063      Y:     4.0669      Z:     0.4108     Total:     4.3563

*** Psi4 exiting successfully. Buy a developer a beer!
