                               Psi4 1.3.2 release

  ==> Input File <==

--------------------------------------------------------------------------
#psi4
#
memory 32 gb

molecule  {
0 1
  N       -1.7314010     0.6447010     0.0841650
  N       -1.4345640    -1.5648400    -0.1846490
  N        1.1113180     1.0210360    -0.2929590
  N        1.3650780    -1.3052570     0.2771500
  C       -0.8211750    -0.3840720    -0.0264870
  C        0.6302560    -0.2085840    -0.0077820
  C       -2.9774260     0.0775420    -0.0074450
  C       -2.7908566    -1.2816726    -0.1745807
  C        2.4478010     1.1517920    -0.2896530
  C        2.6936640    -1.1417610     0.2510410
  C        3.2993530     0.0833730    -0.0301630
  H       -3.8759520     0.6750340     0.0629310
  H       -3.5116600    -2.0553930    -0.2887470
  H        2.8330150     2.1453150    -0.5142540
  H        3.2873230    -2.0271970     0.4738100
  H        4.3785670     0.1979470    -0.0409660
  C       -1.4969110     2.0704780     0.2948980
  H       -0.7998500     2.2172910     1.1191120
  H       -1.0792200     2.5269500    -0.6013110
  H       -2.4567070     2.5274350     0.5414280
units angstrom
no_reorient  #important for SAPT in psi4, default
symmetry c1  #important for SAPT in psi4, default
}

set PROPERTIES_ORIGIN ["COM"]
properties('MP2/aug-cc-pvtz', properties = ['dipole'])
--------------------------------------------------------------------------

    Molecular point group: c1
  Charge       = 0
  Multiplicity = 1
  Basis Set: AUG-CC-PVTZ
    Blend: AUG-CC-PVTZ
  Basis Set: (AUG-CC-PVTZ AUX)
    Blend: AUG-CC-PVTZ-JKFIT

    Orbital Energies [Eh]
    ---------------------

    Doubly Occupied:

       1A    -15.624687     2A    -15.580348     3A    -15.575172
       4A    -15.547361     5A    -11.333654     6A    -11.306005
       7A    -11.303109     8A    -11.295794     9A    -11.273200
      10A    -11.261239    11A    -11.252136    12A    -11.240448
      13A     -1.342484    14A     -1.307787    15A     -1.197628
      16A     -1.173314    17A     -1.088948    18A     -1.008338
      19A     -0.967059    20A     -0.899540    21A     -0.894703
      22A     -0.804232    23A     -0.783398    24A     -0.725969
      25A     -0.703046    26A     -0.686025    27A     -0.645650
      28A     -0.639786    29A     -0.607885    30A     -0.593917
      31A     -0.586049    32A     -0.579182    33A     -0.569643
      34A     -0.558770    35A     -0.541594    36A     -0.481344
      37A     -0.434722    38A     -0.424317    39A     -0.412223
      40A     -0.396710    41A     -0.374626    42A     -0.300240

  @DF-RHF Final Energy:  -525.55707016473389

   => Energetics <=

    Nuclear Repulsion Energy =            653.5904269487625697
    One-Electron Energy =               -2009.6504330911811849
    Two-Electron Energy =                 830.5029359776847286
    Total Energy =                       -525.5570701647338865
  Basis Set: (AUG-CC-PVTZ AUX)
    Blend: AUG-CC-PVTZ-RI
    Molecular point group: c1

    Geometry (in Angstrom), charge = 0, multiplicity = 1:

       Center              X                  Y                   Z               Mass
    ------------   -----------------  -----------------  -----------------  -----------------
         N           -1.737187750181     0.683455624167     0.088866751836    14.003074004430
         N           -1.440350750181    -1.526085375833    -0.179947248164    14.003074004430
         N            1.105531249819     1.059790624167    -0.288257248164    14.003074004430
         N            1.359291249819    -1.266502375833     0.281851751836    14.003074004430
         C           -0.826961750181    -0.345317375833    -0.021785248164    12.000000000000
         C            0.624469249819    -0.169829375833    -0.003080248164    12.000000000000
         C           -2.983212750181     0.116296624167    -0.002743248164    12.000000000000
         C           -2.796643350181    -1.242917975833    -0.169878948164    12.000000000000
         C            2.442014249819     1.190546624167    -0.284951248164    12.000000000000
         C            2.687877249819    -1.103006375833     0.255742751836    12.000000000000
         C            3.293566249819     0.122127624167    -0.025461248164    12.000000000000
         H           -3.881738750181     0.713788624167     0.067632751836     1.007825032230
         H           -3.517446750181    -2.016638375833    -0.284045248164     1.007825032230
         H            2.827228249819     2.184069624167    -0.509552248164     1.007825032230
         H            3.281536249819    -1.988442375833     0.478511751836     1.007825032230
         H            4.372780249819     0.236701624167    -0.036264248164     1.007825032230
         C           -1.502697750181     2.109232624167     0.299599751836    12.000000000000
         H           -0.805636750181     2.256045624167     1.123813751836     1.007825032230
         H           -1.085006750181     2.565704624167    -0.596609248164     1.007825032230
         H           -2.462493750181     2.566189624167     0.546129751836     1.007825032230

  Basis Set: AUG-CC-PVTZ
    Blend: AUG-CC-PVTZ
  Basis Set: (AUG-CC-PVTZ AUX)
    Blend: AUG-CC-PVTZ-JKFIT
	 Reference Energy          =    -525.5570701647338865 [Eh]
	 Singles Energy            =      -0.0000000000000000 [Eh]
	 Same-Spin Energy          =      -0.5777911951214685 [Eh]
	 Opposite-Spin Energy      =      -1.7385452141673101 [Eh]
	 Correlation Energy        =      -2.3163364092887786 [Eh]
	 Total Energy              =    -527.8734065740226242 [Eh]

	 ================> DF-SCS-MP2 Energies <==================
	-----------------------------------------------------------
	 SCS Same-Spin Scale       =       0.3333333333333333 [-]
	 SCS Opposite-Spin Scale   =       1.2000000000000000 [-]
	 SCS Same-Spin Energy      =      -0.1925970650404895 [Eh]
	 SCS Opposite-Spin Energy  =      -2.0862542570007720 [Eh]
	 SCS Correlation Energy    =      -2.2788513220412616 [Eh]
	 SCS Total Energy          =    -527.8359214867751916 [Eh]
	-----------------------------------------------------------

  Dipole Moment: [D]
     X:     1.4135      Y:     4.1043      Z:     0.4793     Total:     4.3672

*** Psi4 exiting successfully. Buy a developer a beer!
