                               Psi4 1.3.2 release

  ==> Input File <==

--------------------------------------------------------------------------
#psi4
#
memory 32 gb

molecule  {
0 1
  N       -1.7314010     0.6447010     0.0841650
  N       -1.4345640    -1.5648400    -0.1846490
  N        1.1113180     1.0210360    -0.2929590
  N        1.3650780    -1.3052570     0.2771500
  C       -0.8211750    -0.3840720    -0.0264870
  C        0.6302560    -0.2085840    -0.0077820
  C       -3.0682380     0.0362067    -0.0141217
  C       -2.7669850    -1.2782450    -0.1740670
  C        2.4478010     1.1517920    -0.2896530
  C        2.6936640    -1.1417610     0.2510410
  C        3.2993530     0.0833730    -0.0301630
  H       -3.8759520     0.6750340     0.0629310
  H       -3.5116600    -2.0553930    -0.2887470
  H        2.8330150     2.1453150    -0.5142540
  H        3.2873230    -2.0271970     0.4738100
  H        4.3785670     0.1979470    -0.0409660
  C       -1.4969110     2.0704780     0.2948980
  H       -0.7998500     2.2172910     1.1191120
  H       -1.0792200     2.5269500    -0.6013110
  H       -2.4567070     2.5274350     0.5414280
units angstrom
no_reorient  #important for SAPT in psi4, default
symmetry c1  #important for SAPT in psi4, default
}

set PROPERTIES_ORIGIN ["COM"]
properties('MP2/aug-cc-pvtz', properties = ['dipole'])
--------------------------------------------------------------------------

    Molecular point group: c1
  Charge       = 0
  Multiplicity = 1
  Basis Set: AUG-CC-PVTZ
    Blend: AUG-CC-PVTZ
  Basis Set: (AUG-CC-PVTZ AUX)
    Blend: AUG-CC-PVTZ-JKFIT

    Orbital Energies [Eh]
    ---------------------

    Doubly Occupied:

       1A    -15.617906     2A    -15.583309     3A    -15.578516
       4A    -15.542893     5A    -11.335592     6A    -11.307778
       7A    -11.305083     8A    -11.302925     9A    -11.268194
      10A    -11.258084    11A    -11.255186    12A    -11.243979
      13A     -1.332195    14A     -1.304207    15A     -1.199737
      16A     -1.168350    17A     -1.090919    18A     -1.009973
      19A     -0.961020    20A     -0.901270    21A     -0.898812
      22A     -0.799738    23A     -0.786182    24A     -0.721241
      25A     -0.705978    26A     -0.686074    27A     -0.640984
      28A     -0.636787    29A     -0.614562    30A     -0.594456
      31A     -0.589926    32A     -0.581580    33A     -0.568576
      34A     -0.537974    35A     -0.537095    36A     -0.482734
      37A     -0.437029    38A     -0.426011    39A     -0.414605
      40A     -0.395156    41A     -0.371841    42A     -0.308399

  @DF-RHF Final Energy:  -525.54664096201054

   => Energetics <=

    Nuclear Repulsion Energy =            652.1640998588339926
    One-Electron Energy =               -2006.8157737140418249
    Two-Electron Energy =                 829.1050328931971762
    Total Energy =                       -525.5466409620105424
  Basis Set: (AUG-CC-PVTZ AUX)
    Blend: AUG-CC-PVTZ-RI
    Molecular point group: c1

    Geometry (in Angstrom), charge = 0, multiplicity = 1:

       Center              X                  Y                   Z               Mass
    ------------   -----------------  -----------------  -----------------  -----------------
         N           -1.732169569201     0.686297371440     0.089328760569    14.003074004430
         N           -1.435332569201    -1.523243628560    -0.179485239431    14.003074004430
         N            1.110549430799     1.062632371440    -0.287795239431    14.003074004430
         N            1.364309430799    -1.263660628560     0.282313760569    14.003074004430
         C           -0.821943569201    -0.342475628560    -0.021323239431    12.000000000000
         C            0.629487430799    -0.166987628560    -0.002618239431    12.000000000000
         C           -3.069006569201     0.077803071440    -0.008957939431    12.000000000000
         C           -2.767753569201    -1.236648628560    -0.168903239431    12.000000000000
         C            2.447032430799     1.193388371440    -0.284489239431    12.000000000000
         C            2.692895430799    -1.100164628560     0.256204760569    12.000000000000
         C            3.298584430799     0.124969371440    -0.024999239431    12.000000000000
         H           -3.876720569201     0.716630371440     0.068094760569     1.007825032230
         H           -3.512428569201    -2.013796628560    -0.283583239431     1.007825032230
         H            2.832246430799     2.186911371440    -0.509090239431     1.007825032230
         H            3.286554430799    -1.985600628560     0.478973760569     1.007825032230
         H            4.377798430799     0.239543371440    -0.035802239431     1.007825032230
         C           -1.497679569201     2.112074371440     0.300061760569    12.000000000000
         H           -0.800618569201     2.258887371440     1.124275760569     1.007825032230
         H           -1.079988569201     2.568546371440    -0.596147239431     1.007825032230
         H           -2.457475569201     2.569031371440     0.546591760569     1.007825032230

  Basis Set: AUG-CC-PVTZ
    Blend: AUG-CC-PVTZ
  Basis Set: (AUG-CC-PVTZ AUX)
    Blend: AUG-CC-PVTZ-JKFIT
	 Reference Energy          =    -525.5466409620105424 [Eh]
	 Singles Energy            =      -0.0000000000000000 [Eh]
	 Same-Spin Energy          =      -0.5774213829712657 [Eh]
	 Opposite-Spin Energy      =      -1.7392674596236239 [Eh]
	 Correlation Energy        =      -2.3166888425948895 [Eh]
	 Total Energy              =    -527.8633298046054279 [Eh]

	 ================> DF-SCS-MP2 Energies <==================
	-----------------------------------------------------------
	 SCS Same-Spin Scale       =       0.3333333333333333 [-]
	 SCS Opposite-Spin Scale   =       1.2000000000000000 [-]
	 SCS Same-Spin Energy      =      -0.1924737943237552 [Eh]
	 SCS Opposite-Spin Energy  =      -2.0871209515483486 [Eh]
	 SCS Correlation Energy    =      -2.2795947458721040 [Eh]
	 SCS Total Energy          =    -527.8262357078826881 [Eh]
	-----------------------------------------------------------

  Dipole Moment: [D]
     X:     1.5282      Y:     4.0077      Z:     0.4647     Total:     4.3143

*** Psi4 exiting successfully. Buy a developer a beer!
