                               Psi4 1.3.2 release

  ==> Input File <==

--------------------------------------------------------------------------
#psi4
#
memory 32 gb

molecule  {
0 1
  N       -1.7314010     0.6447010     0.0841650
  N       -1.4345640    -1.5648400    -0.1846490
  N        1.1113180     1.0210360    -0.2929590
  N        1.3650780    -1.3052570     0.2771500
  C       -0.8211750    -0.3840720    -0.0264870
  C        0.6302560    -0.2085840    -0.0077820
  C       -2.9774260     0.0775420    -0.0074450
  C       -2.7669850    -1.2782450    -0.1740670
  C        2.3482765     1.1420549    -0.2898992
  C        2.6936640    -1.1417610     0.2510410
  C        3.2993530     0.0833730    -0.0301630
  H       -3.8759520     0.6750340     0.0629310
  H       -3.5116600    -2.0553930    -0.2887470
  H        2.8330150     2.1453150    -0.5142540
  H        3.2873230    -2.0271970     0.4738100
  H        4.3785670     0.1979470    -0.0409660
  C       -1.4969110     2.0704780     0.2948980
  H       -0.7998500     2.2172910     1.1191120
  H       -1.0792200     2.5269500    -0.6013110
  H       -2.4567070     2.5274350     0.5414280
units angstrom
no_reorient  #important for SAPT in psi4, default
symmetry c1  #important for SAPT in psi4, default
}

set PROPERTIES_ORIGIN ["COM"]
properties('MP2/aug-cc-pvtz', properties = ['dipole'])
--------------------------------------------------------------------------

    Molecular point group: c1
  Charge       = 0
  Multiplicity = 1
  Basis Set: AUG-CC-PVTZ
    Blend: AUG-CC-PVTZ
  Basis Set: (AUG-CC-PVTZ AUX)
    Blend: AUG-CC-PVTZ-JKFIT

    Orbital Energies [Eh]
    ---------------------

    Doubly Occupied:

       1A    -15.627857     2A    -15.575989     3A    -15.574217
       4A    -15.548155     5A    -11.336708     6A    -11.305415
       7A    -11.296975     8A    -11.296942     9A    -11.275786
      10A    -11.261815    11A    -11.252548    12A    -11.242083
      13A     -1.350041    14A     -1.324680    15A     -1.216143
      16A     -1.180742    17A     -1.081216    18A     -1.007566
      19A     -0.971030    20A     -0.905359    21A     -0.886936
      22A     -0.803183    23A     -0.786340    24A     -0.727356
      25A     -0.709044    26A     -0.683957    27A     -0.648895
      28A     -0.641039    29A     -0.606779    30A     -0.592876
      31A     -0.590605    32A     -0.584386    33A     -0.564249
      34A     -0.558812    35A     -0.546480    36A     -0.484021
      37A     -0.441456    38A     -0.435308    39A     -0.407014
      40A     -0.391581    41A     -0.376427    42A     -0.297742

  @DF-RHF Final Energy:  -525.54732594931204

   => Energetics <=

    Nuclear Repulsion Energy =            655.8315472296152393
    One-Electron Energy =               -2013.9662490589018944
    Two-Electron Energy =                 832.5873758799747293
    Total Energy =                       -525.5473259493120395
  Basis Set: (AUG-CC-PVTZ AUX)
    Blend: AUG-CC-PVTZ-RI
    Molecular point group: c1

    Geometry (in Angstrom), charge = 0, multiplicity = 1:

       Center              X                  Y                   Z               Mass
    ------------   -----------------  -----------------  -----------------  -----------------
         N           -1.731516437433     0.683928615259     0.088846698723    14.003074004430
         N           -1.434679437433    -1.525612384741    -0.179967301277    14.003074004430
         N            1.111202562567     1.060263615259    -0.288277301277    14.003074004430
         N            1.364962562567    -1.266029384741     0.281831698723    14.003074004430
         C           -0.821290437433    -0.344844384741    -0.021805301277    12.000000000000
         C            0.630140562567    -0.169356384741    -0.003100301277    12.000000000000
         C           -2.977541437433     0.116769615259    -0.002763301277    12.000000000000
         C           -2.767100437433    -1.239017384741    -0.169385301277    12.000000000000
         C            2.348161062567     1.181282515259    -0.285217501277    12.000000000000
         C            2.693548562567    -1.102533384741     0.255722698723    12.000000000000
         C            3.299237562567     0.122600615259    -0.025481301277    12.000000000000
         H           -3.876067437433     0.714261615259     0.067612698723     1.007825032230
         H           -3.511775437433    -2.016165384741    -0.284065301277     1.007825032230
         H            2.832899562567     2.184542615259    -0.509572301277     1.007825032230
         H            3.287207562567    -1.987969384741     0.478491698723     1.007825032230
         H            4.378451562567     0.237174615259    -0.036284301277     1.007825032230
         C           -1.497026437433     2.109705615259     0.299579698723    12.000000000000
         H           -0.799965437433     2.256518615259     1.123793698723     1.007825032230
         H           -1.079335437433     2.566177615259    -0.596629301277     1.007825032230
         H           -2.456822437433     2.566662615259     0.546109698723     1.007825032230

  Basis Set: AUG-CC-PVTZ
    Blend: AUG-CC-PVTZ
  Basis Set: (AUG-CC-PVTZ AUX)
    Blend: AUG-CC-PVTZ-JKFIT
	 Reference Energy          =    -525.5473259493120395 [Eh]
	 Singles Energy            =      -0.0000000000000000 [Eh]
	 Same-Spin Energy          =      -0.5773359967651732 [Eh]
	 Opposite-Spin Energy      =      -1.7369644129653072 [Eh]
	 Correlation Energy        =      -2.3143004097304805 [Eh]
	 Total Energy              =    -527.8616263590424751 [Eh]

	 ================> DF-SCS-MP2 Energies <==================
	-----------------------------------------------------------
	 SCS Same-Spin Scale       =       0.3333333333333333 [-]
	 SCS Opposite-Spin Scale   =       1.2000000000000000 [-]
	 SCS Same-Spin Energy      =      -0.1924453322550577 [Eh]
	 SCS Opposite-Spin Energy  =      -2.0843572955583687 [Eh]
	 SCS Correlation Energy    =      -2.2768026278134266 [Eh]
	 SCS Total Energy          =    -527.8241285771255207 [Eh]
	-----------------------------------------------------------

  Dipole Moment: [D]
     X:     1.1606      Y:     4.1254      Z:     0.4712     Total:     4.3113

*** Psi4 exiting successfully. Buy a developer a beer!
