                               Psi4 1.3.2 release

  ==> Input File <==

--------------------------------------------------------------------------
#psi4
#
memory 32 gb

molecule  {
0 1
  N       -1.7314010     0.6447010     0.0841650
  N       -1.4345640    -1.5648400    -0.1846490
  N        1.1113180     1.0210360    -0.2929590
  N        1.3650780    -1.3052570     0.2771500
  C       -0.8211750    -0.3840720    -0.0264870
  C        0.6302560    -0.2085840    -0.0077820
  C       -2.9774260     0.0775420    -0.0074450
  C       -2.7669850    -1.2782450    -0.1740670
  C        2.4478010     1.1517920    -0.2896530
  C        2.6936640    -1.1417610     0.2510410
  C        3.2993530     0.0833730    -0.0301630
  H       -4.0421393     0.7855434     0.0759474
  H       -3.5116600    -2.0553930    -0.2887470
  H        2.8330150     2.1453150    -0.5142540
  H        3.2873230    -2.0271970     0.4738100
  H        4.3785670     0.1979470    -0.0409660
  C       -1.4969110     2.0704780     0.2948980
  H       -0.7998500     2.2172910     1.1191120
  H       -1.0792200     2.5269500    -0.6013110
  H       -2.4567070     2.5274350     0.5414280
units angstrom
no_reorient  #important for SAPT in psi4, default
symmetry c1  #important for SAPT in psi4, default
}

set PROPERTIES_ORIGIN ["COM"]
properties('MP2/aug-cc-pvtz', properties = ['dipole'])
--------------------------------------------------------------------------

    Molecular point group: c1
  Charge       = 0
  Multiplicity = 1
  Basis Set: AUG-CC-PVTZ
    Blend: AUG-CC-PVTZ
  Basis Set: (AUG-CC-PVTZ AUX)
    Blend: AUG-CC-PVTZ-JKFIT

    Orbital Energies [Eh]
    ---------------------

    Doubly Occupied:

       1A    -15.627718     2A    -15.580285     3A    -15.575282
       4A    -15.548055     5A    -11.333902     6A    -11.306089
       7A    -11.303268     8A    -11.296595     9A    -11.280203
      10A    -11.273065    11A    -11.252096    12A    -11.241902
      13A     -1.346006    14A     -1.308523    15A     -1.198321
      16A     -1.178590    17A     -1.089101    18A     -1.004579
      19A     -0.968949    20A     -0.899622    21A     -0.891495
      22A     -0.798282    23A     -0.778015    24A     -0.726702
      25A     -0.702438    26A     -0.679565    27A     -0.646798
      28A     -0.631224    29A     -0.601724    30A     -0.593338
      31A     -0.583728    32A     -0.570563    33A     -0.561923
      34A     -0.553493    35A     -0.543912    36A     -0.481433
      37A     -0.436196    38A     -0.424518    39A     -0.412616
      40A     -0.397186    41A     -0.378886    42A     -0.299314

  @DF-RHF Final Energy:  -525.53463542974873

   => Energetics <=

    Nuclear Repulsion Energy =            653.1441425683326543
    One-Electron Energy =               -2008.7465564426499895
    Two-Electron Energy =                 830.0677784445686029
    Total Energy =                       -525.5346354297487323
  Basis Set: (AUG-CC-PVTZ AUX)
    Blend: AUG-CC-PVTZ-RI
    Molecular point group: c1

    Geometry (in Angstrom), charge = 0, multiplicity = 1:

       Center              X                  Y                   Z               Mass
    ------------   -----------------  -----------------  -----------------  -----------------
         N           -1.737930974021     0.682502911761     0.088746291638    14.003074004430
         N           -1.441093974021    -1.527038088239    -0.180067708362    14.003074004430
         N            1.104788025979     1.058837911761    -0.288377708362    14.003074004430
         N            1.358548025979    -1.267455088239     0.281731291638    14.003074004430
         C           -0.827704974021    -0.346270088239    -0.021905708362    12.000000000000
         C            0.623726025979    -0.170782088239    -0.003200708362    12.000000000000
         C           -2.983955974021     0.115343911761    -0.002863708362    12.000000000000
         C           -2.773514974021    -1.240443088239    -0.169485708362    12.000000000000
         C            2.441271025979     1.189593911761    -0.285071708362    12.000000000000
         C            2.687134025979    -1.103959088239     0.255622291638    12.000000000000
         C            3.292823025979     0.121174911761    -0.025581708362    12.000000000000
         H           -4.048669274021     0.823345311761     0.080528691638     1.007825032230
         H           -3.518189974021    -2.017591088239    -0.284165708362     1.007825032230
         H            2.826485025979     2.183116911761    -0.509672708362     1.007825032230
         H            3.280793025979    -1.989395088239     0.478391291638     1.007825032230
         H            4.372037025979     0.235748911761    -0.036384708362     1.007825032230
         C           -1.503440974021     2.108279911761     0.299479291638    12.000000000000
         H           -0.806379974021     2.255092911761     1.123693291638     1.007825032230
         H           -1.085749974021     2.564751911761    -0.596729708362     1.007825032230
         H           -2.463236974021     2.565236911761     0.546009291638     1.007825032230

  Basis Set: AUG-CC-PVTZ
    Blend: AUG-CC-PVTZ
  Basis Set: (AUG-CC-PVTZ AUX)
    Blend: AUG-CC-PVTZ-JKFIT
	 Reference Energy          =    -525.5346354297487323 [Eh]
	 Singles Energy            =      -0.0000000000000000 [Eh]
	 Same-Spin Energy          =      -0.5786323585945539 [Eh]
	 Opposite-Spin Energy      =      -1.7406742408059723 [Eh]
	 Correlation Energy        =      -2.3193065994005262 [Eh]
	 Total Energy              =    -527.8539420291492661 [Eh]

	 ================> DF-SCS-MP2 Energies <==================
	-----------------------------------------------------------
	 SCS Same-Spin Scale       =       0.3333333333333333 [-]
	 SCS Opposite-Spin Scale   =       1.2000000000000000 [-]
	 SCS Same-Spin Energy      =      -0.1928774528648513 [Eh]
	 SCS Opposite-Spin Energy  =      -2.0888090889671669 [Eh]
	 SCS Correlation Energy    =      -2.2816865418320180 [Eh]
	 SCS Total Energy          =    -527.8163219715808054 [Eh]
	-----------------------------------------------------------

  Dipole Moment: [D]
     X:     1.4191      Y:     4.0947      Z:     0.4775     Total:     4.3598

*** Psi4 exiting successfully. Buy a developer a beer!
