                               Psi4 1.3.2 release

  ==> Input File <==

--------------------------------------------------------------------------
#psi4
#
memory 32 gb

molecule  {
0 1
  N       -1.7314010     0.6447010     0.0841650
  N       -1.4345640    -1.5648400    -0.1846490
  N        1.1113180     1.0210360    -0.2929590
  N        1.3650780    -1.3052570     0.2771500
  C       -0.7180340    -0.2842193    -0.0123938
  C        0.6302560    -0.2085840    -0.0077820
  C       -2.9774260     0.0775420    -0.0074450
  C       -2.7669850    -1.2782450    -0.1740670
  C        2.4478010     1.1517920    -0.2896530
  C        2.6936640    -1.1417610     0.2510410
  C        3.2993530     0.0833730    -0.0301630
  H       -3.8759520     0.6750340     0.0629310
  H       -3.5116600    -2.0553930    -0.2887470
  H        2.8330150     2.1453150    -0.5142540
  H        3.2873230    -2.0271970     0.4738100
  H        4.3785670     0.1979470    -0.0409660
  C       -1.4969110     2.0704780     0.2948980
  H       -0.7998500     2.2172910     1.1191120
  H       -1.0792200     2.5269500    -0.6013110
  H       -2.4567070     2.5274350     0.5414280
units angstrom
no_reorient  #important for SAPT in psi4, default
symmetry c1  #important for SAPT in psi4, default
}

set PROPERTIES_ORIGIN ["COM"]
properties('MP2/aug-cc-pvtz', properties = ['dipole'])
--------------------------------------------------------------------------

    Molecular point group: c1
  Charge       = 0
  Multiplicity = 1
  Basis Set: AUG-CC-PVTZ
    Blend: AUG-CC-PVTZ
  Basis Set: (AUG-CC-PVTZ AUX)
    Blend: AUG-CC-PVTZ-JKFIT

    Orbital Energies [Eh]
    ---------------------

    Doubly Occupied:

       1A    -15.642128     2A    -15.574937     3A    -15.571971
       4A    -15.556681     5A    -11.324150     6A    -11.302702
       7A    -11.301058     8A    -11.295277     9A    -11.273564
      10A    -11.267696    11A    -11.248036    12A    -11.247313
      13A     -1.339638    14A     -1.306113    15A     -1.194308
      16A     -1.157730    17A     -1.099483    18A     -1.010552
      19A     -0.970697    20A     -0.905384    21A     -0.898247
      22A     -0.798995    23A     -0.789045    24A     -0.726872
      25A     -0.701927    26A     -0.684755    27A     -0.649165
      28A     -0.648367    29A     -0.607029    30A     -0.593384
      31A     -0.588101    32A     -0.584826    33A     -0.567388
      34A     -0.549980    35A     -0.535538    36A     -0.483927
      37A     -0.426020    38A     -0.422033    39A     -0.406650
      40A     -0.399909    41A     -0.375592    42A     -0.287175

  @DF-RHF Final Energy:  -525.51801613937880

   => Energetics <=

    Nuclear Repulsion Energy =            654.3003773737307256
    One-Electron Energy =               -2011.0081001349185499
    Two-Electron Energy =                 831.1897066218090231
    Total Energy =                       -525.5180161393788012
  Basis Set: (AUG-CC-PVTZ AUX)
    Blend: AUG-CC-PVTZ-RI
    Molecular point group: c1

    Geometry (in Angstrom), charge = 0, multiplicity = 1:

       Center              X                  Y                   Z               Mass
    ------------   -----------------  -----------------  -----------------  -----------------
         N           -1.746709238157     0.675713225897     0.087771746910    14.003074004430
         N           -1.449872238157    -1.533827774103    -0.181042253090    14.003074004430
         N            1.096009761843     1.052048225897    -0.289352253090    14.003074004430
         N            1.349769761843    -1.274244774103     0.280756746910    14.003074004430
         C           -0.733342238157    -0.253207074103    -0.008787053090    12.000000000000
         C            0.614947761843    -0.177571774103    -0.004175253090    12.000000000000
         C           -2.992734238157     0.108554225897    -0.003838253090    12.000000000000
         C           -2.782293238157    -1.247232774103    -0.170460253090    12.000000000000
         C            2.432492761843     1.182804225897    -0.286046253090    12.000000000000
         C            2.678355761843    -1.110748774103     0.254647746910    12.000000000000
         C            3.284044761843     0.114385225897    -0.026556253090    12.000000000000
         H           -3.891260238157     0.706046225897     0.066537746910     1.007825032230
         H           -3.526968238157    -2.024380774103    -0.285140253090     1.007825032230
         H            2.817706761843     2.176327225897    -0.510647253090     1.007825032230
         H            3.272014761843    -1.996184774103     0.477416746910     1.007825032230
         H            4.363258761843     0.228959225897    -0.037359253090     1.007825032230
         C           -1.512219238157     2.101490225897     0.298504746910    12.000000000000
         H           -0.815158238157     2.248303225897     1.122718746910     1.007825032230
         H           -1.094528238157     2.557962225897    -0.597704253090     1.007825032230
         H           -2.472015238157     2.558447225897     0.545034746910     1.007825032230

  Basis Set: AUG-CC-PVTZ
    Blend: AUG-CC-PVTZ
  Basis Set: (AUG-CC-PVTZ AUX)
    Blend: AUG-CC-PVTZ-JKFIT
	 Reference Energy          =    -525.5180161393788012 [Eh]
	 Singles Energy            =      -0.0000000000000000 [Eh]
	 Same-Spin Energy          =      -0.5833902975367928 [Eh]
	 Opposite-Spin Energy      =      -1.7477623191939462 [Eh]
	 Correlation Energy        =      -2.3311526167307388 [Eh]
	 Total Energy              =    -527.8491687561095205 [Eh]

	 ================> DF-SCS-MP2 Energies <==================
	-----------------------------------------------------------
	 SCS Same-Spin Scale       =       0.3333333333333333 [-]
	 SCS Opposite-Spin Scale   =       1.2000000000000000 [-]
	 SCS Same-Spin Energy      =      -0.1944634325122643 [Eh]
	 SCS Opposite-Spin Energy  =      -2.0973147830327354 [Eh]
	 SCS Correlation Energy    =      -2.2917782155449995 [Eh]
	 SCS Total Energy          =    -527.8097943549238380 [Eh]
	-----------------------------------------------------------

  Dipole Moment: [D]
     X:     0.8862      Y:     4.1609      Z:     0.4893     Total:     4.2822

*** Psi4 exiting successfully. Buy a developer a beer!
