                               Psi4 1.3.2 release

  ==> Input File <==

--------------------------------------------------------------------------
#psi4
#
memory 32 gb

molecule  {
0 1
  N       -1.7314010     0.6447010     0.0841650
  N       -1.4345640    -1.5648400    -0.1846490
  N        1.2405751     0.9662055    -0.2762817
  N        1.3650780    -1.3052570     0.2771500
  C       -0.8211750    -0.3840720    -0.0264870
  C        0.6302560    -0.2085840    -0.0077820
  C       -2.9774260     0.0775420    -0.0074450
  C       -2.7669850    -1.2782450    -0.1740670
  C        2.4478010     1.1517920    -0.2896530
  C        2.6936640    -1.1417610     0.2510410
  C        3.2993530     0.0833730    -0.0301630
  H       -3.8759520     0.6750340     0.0629310
  H       -3.5116600    -2.0553930    -0.2887470
  H        2.8330150     2.1453150    -0.5142540
  H        3.2873230    -2.0271970     0.4738100
  H        4.3785670     0.1979470    -0.0409660
  C       -1.4969110     2.0704780     0.2948980
  H       -0.7998500     2.2172910     1.1191120
  H       -1.0792200     2.5269500    -0.6013110
  H       -2.4567070     2.5274350     0.5414280
units angstrom
no_reorient  #important for SAPT in psi4, default
symmetry c1  #important for SAPT in psi4, default
}

set PROPERTIES_ORIGIN ["COM"]
properties('MP2/aug-cc-pvtz', properties = ['dipole'])
--------------------------------------------------------------------------

    Molecular point group: c1
  Charge       = 0
  Multiplicity = 1
  Basis Set: AUG-CC-PVTZ
    Blend: AUG-CC-PVTZ
  Basis Set: (AUG-CC-PVTZ AUX)
    Blend: AUG-CC-PVTZ-JKFIT

    Orbital Energies [Eh]
    ---------------------

    Doubly Occupied:

       1A    -15.629430     2A    -15.572558     3A    -15.562193
       4A    -15.550376     5A    -11.335442     6A    -11.301416
       7A    -11.293222     8A    -11.287445     9A    -11.277777
      10A    -11.263135    11A    -11.244489    12A    -11.243697
      13A     -1.350128    14A     -1.326560    15A     -1.211739
      16A     -1.182296    17A     -1.085325    18A     -1.009925
      19A     -0.972366    20A     -0.907720    21A     -0.888848
      22A     -0.805737    23A     -0.793545    24A     -0.730921
      25A     -0.713684    26A     -0.687092    27A     -0.650047
      28A     -0.636382    29A     -0.613339    30A     -0.595549
      31A     -0.594285    32A     -0.584944    33A     -0.574836
      34A     -0.561120    35A     -0.548452    36A     -0.474940
      37A     -0.439033    38A     -0.434786    39A     -0.394984
      40A     -0.392232    41A     -0.378091    42A     -0.298809

  @DF-RHF Final Energy:  -525.54390724801272

   => Energetics <=

    Nuclear Repulsion Energy =            655.6871244196398720
    One-Electron Energy =               -2013.6642784441353342
    Two-Electron Energy =                 832.4332467764828607
    Total Energy =                       -525.5439072480127152
  Basis Set: (AUG-CC-PVTZ AUX)
    Blend: AUG-CC-PVTZ-RI
    Molecular point group: c1

    Geometry (in Angstrom), charge = 0, multiplicity = 1:

       Center              X                  Y                   Z               Mass
    ------------   -----------------  -----------------  -----------------  -----------------
         N           -1.750284469190     0.687995151389     0.087369341114    14.003074004430
         N           -1.453447469190    -1.521545848611    -0.181444658886    14.003074004430
         N            1.221691630810     1.009499651389    -0.273077358886    14.003074004430
         N            1.346194530810    -1.261962848611     0.280354341114    14.003074004430
         C           -0.840058469190    -0.340777848611    -0.023282658886    12.000000000000
         C            0.611372530810    -0.165289848611    -0.004577658886    12.000000000000
         C           -2.996309469190     0.120836151389    -0.004240658886    12.000000000000
         C           -2.785868469190    -1.234950848611    -0.170862658886    12.000000000000
         C            2.428917530810     1.195086151389    -0.286448658886    12.000000000000
         C            2.674780530810    -1.098466848611     0.254245341114    12.000000000000
         C            3.280469530810     0.126667151389    -0.026958658886    12.000000000000
         H           -3.894835469190     0.718328151389     0.066135341114     1.007825032230
         H           -3.530543469190    -2.012098848611    -0.285542658886     1.007825032230
         H            2.814131530810     2.188609151389    -0.511049658886     1.007825032230
         H            3.268439530810    -1.983902848611     0.477014341114     1.007825032230
         H            4.359683530810     0.241241151389    -0.037761658886     1.007825032230
         C           -1.515794469190     2.113772151389     0.298102341114    12.000000000000
         H           -0.818733469190     2.260585151389     1.122316341114     1.007825032230
         H           -1.098103469190     2.570244151389    -0.598106658886     1.007825032230
         H           -2.475590469190     2.570729151389     0.544632341114     1.007825032230

  Basis Set: AUG-CC-PVTZ
    Blend: AUG-CC-PVTZ
  Basis Set: (AUG-CC-PVTZ AUX)
    Blend: AUG-CC-PVTZ-JKFIT
	 Reference Energy          =    -525.5439072480127152 [Eh]
	 Singles Energy            =      -0.0000000000000000 [Eh]
	 Same-Spin Energy          =      -0.5772804155810622 [Eh]
	 Opposite-Spin Energy      =      -1.7354343212188794 [Eh]
	 Correlation Energy        =      -2.3127147367999417 [Eh]
	 Total Energy              =    -527.8566219848127048 [Eh]

	 ================> DF-SCS-MP2 Energies <==================
	-----------------------------------------------------------
	 SCS Same-Spin Scale       =       0.3333333333333333 [-]
	 SCS Opposite-Spin Scale   =       1.2000000000000000 [-]
	 SCS Same-Spin Energy      =      -0.1924268051936874 [Eh]
	 SCS Opposite-Spin Energy  =      -2.0825211854626553 [Eh]
	 SCS Correlation Energy    =      -2.2749479906563428 [Eh]
	 SCS Total Energy          =    -527.8188552386690162 [Eh]
	-----------------------------------------------------------

  Dipole Moment: [D]
     X:     0.8667      Y:     4.2560      Z:     0.4408     Total:     4.3657

*** Psi4 exiting successfully. Buy a developer a beer!
