                               Psi4 1.3.2 release

  ==> Input File <==

--------------------------------------------------------------------------
#psi4
#
memory 32 gb

molecule  {
0 1
  N       -1.7314010     0.6447010     0.0841650
  N       -1.4345640    -1.5648400    -0.1846490
  N        1.1113180     1.0210360    -0.2929590
  N        1.3650780    -1.3052570     0.2771500
  C       -0.7856284    -0.3519885    -0.0219166
  C        0.6302560    -0.2085840    -0.0077820
  C       -2.9774260     0.0775420    -0.0074450
  C       -2.7669850    -1.2782450    -0.1740670
  C        2.4478010     1.1517920    -0.2896530
  C        2.6936640    -1.1417610     0.2510410
  C        3.2993530     0.0833730    -0.0301630
  H       -3.8759520     0.6750340     0.0629310
  H       -3.5116600    -2.0553930    -0.2887470
  H        2.8330150     2.1453150    -0.5142540
  H        3.2873230    -2.0271970     0.4738100
  H        4.3785670     0.1979470    -0.0409660
  C       -1.4969110     2.0704780     0.2948980
  H       -0.7998500     2.2172910     1.1191120
  H       -1.0792200     2.5269500    -0.6013110
  H       -2.4567070     2.5274350     0.5414280
units angstrom
no_reorient  #important for SAPT in psi4, default
symmetry c1  #important for SAPT in psi4, default
}

set PROPERTIES_ORIGIN ["COM"]
properties('MP2/aug-cc-pvtz', properties = ['dipole'])
--------------------------------------------------------------------------

    Molecular point group: c1
  Charge       = 0
  Multiplicity = 1
  Basis Set: AUG-CC-PVTZ
    Blend: AUG-CC-PVTZ
  Basis Set: (AUG-CC-PVTZ AUX)
    Blend: AUG-CC-PVTZ-JKFIT

    Orbital Energies [Eh]
    ---------------------

    Doubly Occupied:

       1A    -15.631062     2A    -15.578742     3A    -15.574341
       4A    -15.549965     5A    -11.330995     6A    -11.305095
       7A    -11.302603     8A    -11.295497     9A    -11.273329
      10A    -11.261927    11A    -11.250971    12A    -11.242313
      13A     -1.342010    14A     -1.307510    15A     -1.196745
      16A     -1.170122    17A     -1.092207    18A     -1.008732
      19A     -0.969321    20A     -0.899544    21A     -0.897269
      22A     -0.799897    23A     -0.787185    24A     -0.726900
      25A     -0.702662    26A     -0.685598    27A     -0.646607
      28A     -0.642388    29A     -0.607449    30A     -0.593129
      31A     -0.585455    32A     -0.582093    33A     -0.569598
      34A     -0.556473    35A     -0.540097    36A     -0.482727
      37A     -0.432582    38A     -0.423864    39A     -0.411040
      40A     -0.397299    41A     -0.376615    42A     -0.295129

  @DF-RHF Final Energy:  -525.55055826019679

   => Energetics <=

    Nuclear Repulsion Energy =            654.1340335484812840
    One-Electron Energy =               -2010.7190165761714979
    Two-Electron Energy =                 831.0344247674934195
    Total Energy =                       -525.5505582601967944
  Basis Set: (AUG-CC-PVTZ AUX)
    Blend: AUG-CC-PVTZ-RI
    Molecular point group: c1

    Geometry (in Angstrom), charge = 0, multiplicity = 1:

       Center              X                  Y                   Z               Mass
    ------------   -----------------  -----------------  -----------------  -----------------
         N           -1.741642030125     0.680793537794     0.088485622743    14.003074004430
         N           -1.444805030125    -1.528747462206    -0.180328377257    14.003074004430
         N            1.101076969875     1.057128537794    -0.288638377257    14.003074004430
         N            1.354836969875    -1.269164462206     0.281470622743    14.003074004430
         C           -0.795869430125    -0.315895962206    -0.017595977257    12.000000000000
         C            0.620014969875    -0.172491462206    -0.003461377257    12.000000000000
         C           -2.987667030125     0.113634537794    -0.003124377257    12.000000000000
         C           -2.777226030125    -1.242152462206    -0.169746377257    12.000000000000
         C            2.437559969875     1.187884537794    -0.285332377257    12.000000000000
         C            2.683422969875    -1.105668462206     0.255361622743    12.000000000000
         C            3.289111969875     0.119465537794    -0.025842377257    12.000000000000
         H           -3.886193030125     0.711126537794     0.067251622743     1.007825032230
         H           -3.521901030125    -2.019300462206    -0.284426377257     1.007825032230
         H            2.822773969875     2.181407537794    -0.509933377257     1.007825032230
         H            3.277081969875    -1.991104462206     0.478130622743     1.007825032230
         H            4.368325969875     0.234039537794    -0.036645377257     1.007825032230
         C           -1.507152030125     2.106570537794     0.299218622743    12.000000000000
         H           -0.810091030125     2.253383537794     1.123432622743     1.007825032230
         H           -1.089461030125     2.563042537794    -0.596990377257     1.007825032230
         H           -2.466948030125     2.563527537794     0.545748622743     1.007825032230

  Basis Set: AUG-CC-PVTZ
    Blend: AUG-CC-PVTZ
  Basis Set: (AUG-CC-PVTZ AUX)
    Blend: AUG-CC-PVTZ-JKFIT
	 Reference Energy          =    -525.5505582601967944 [Eh]
	 Singles Energy            =      -0.0000000000000000 [Eh]
	 Same-Spin Energy          =      -0.5796239238370748 [Eh]
	 Opposite-Spin Energy      =      -1.7410563101811232 [Eh]
	 Correlation Energy        =      -2.3206802340181980 [Eh]
	 Total Energy              =    -527.8712384942150493 [Eh]

	 ================> DF-SCS-MP2 Energies <==================
	-----------------------------------------------------------
	 SCS Same-Spin Scale       =       0.3333333333333333 [-]
	 SCS Opposite-Spin Scale   =       1.2000000000000000 [-]
	 SCS Same-Spin Energy      =      -0.1932079746123583 [Eh]
	 SCS Opposite-Spin Energy  =      -2.0892675722173477 [Eh]
	 SCS Correlation Energy    =      -2.2824755468297058 [Eh]
	 SCS Total Energy          =    -527.8330338070264816 [Eh]
	-----------------------------------------------------------

  Dipole Moment: [D]
     X:     1.2287      Y:     4.1358      Z:     0.4844     Total:     4.3416

*** Psi4 exiting successfully. Buy a developer a beer!
