                               Psi4 1.3.2 release

  ==> Input File <==

--------------------------------------------------------------------------
#psi4
#
memory 32 gb

molecule  {
0 1
  N       -1.7314010     0.6447010     0.0841650
  N       -1.4345640    -1.5648400    -0.1846490
  N        1.1113180     1.0210360    -0.2929590
  N        1.3650780    -1.3052570     0.2771500
  C       -0.8211750    -0.3840720    -0.0264870
  C        0.6302560    -0.2085840    -0.0077820
  C       -2.9343201    -0.0071152    -0.0195725
  C       -2.7669850    -1.2782450    -0.1740670
  C        2.4478010     1.1517920    -0.2896530
  C        2.6936640    -1.1417610     0.2510410
  C        3.2993530     0.0833730    -0.0301630
  H       -3.8759520     0.6750340     0.0629310
  H       -3.5116600    -2.0553930    -0.2887470
  H        2.8330150     2.1453150    -0.5142540
  H        3.2873230    -2.0271970     0.4738100
  H        4.3785670     0.1979470    -0.0409660
  C       -1.4969110     2.0704780     0.2948980
  H       -0.7998500     2.2172910     1.1191120
  H       -1.0792200     2.5269500    -0.6013110
  H       -2.4567070     2.5274350     0.5414280
units angstrom
no_reorient  #important for SAPT in psi4, default
symmetry c1  #important for SAPT in psi4, default
}

set PROPERTIES_ORIGIN ["COM"]
properties('MP2/aug-cc-pvtz', properties = ['dipole'])
--------------------------------------------------------------------------

    Molecular point group: c1
  Charge       = 0
  Multiplicity = 1
  Basis Set: AUG-CC-PVTZ
    Blend: AUG-CC-PVTZ
  Basis Set: (AUG-CC-PVTZ AUX)
    Blend: AUG-CC-PVTZ-JKFIT

    Orbital Energies [Eh]
    ---------------------

    Doubly Occupied:

       1A    -15.619351     2A    -15.580785     3A    -15.575411
       4A    -15.542608     5A    -11.333153     6A    -11.306200
       7A    -11.303214     8A    -11.295811     9A    -11.274320
      10A    -11.255109    11A    -11.252600    12A    -11.226921
      13A     -1.348877    14A     -1.309225    15A     -1.198219
      16A     -1.176821    17A     -1.090666    18A     -1.015665
      19A     -0.969071    20A     -0.900692    21A     -0.896930
      22A     -0.800188    23A     -0.780998    24A     -0.729375
      25A     -0.702719    26A     -0.683349    27A     -0.647175
      28A     -0.634305    29A     -0.603471    30A     -0.599736
      31A     -0.586972    32A     -0.576599    33A     -0.568711
      34A     -0.548337    35A     -0.547256    36A     -0.481059
      37A     -0.434018    38A     -0.424392    39A     -0.412231
      40A     -0.397131    41A     -0.377689    42A     -0.309462

  @DF-RHF Final Energy:  -525.54655129483911

   => Energetics <=

    Nuclear Repulsion Energy =            655.6322692824514888
    One-Electron Energy =               -2013.7239987862728867
    Two-Electron Energy =                 832.5451782089822927
    Total Energy =                       -525.5465512948391051
  Basis Set: (AUG-CC-PVTZ AUX)
    Blend: AUG-CC-PVTZ-RI
    Molecular point group: c1

    Geometry (in Angstrom), charge = 0, multiplicity = 1:

       Center              X                  Y                   Z               Mass
    ------------   -----------------  -----------------  -----------------  -----------------
         N           -1.742208712360     0.689544993723     0.089737379294    14.003074004430
         N           -1.445371712360    -1.519996006277    -0.179076620706    14.003074004430
         N            1.100510287640     1.065879993723    -0.287386620706    14.003074004430
         N            1.354270287640    -1.260413006277     0.282722379294    14.003074004430
         C           -0.831982712360    -0.339228006277    -0.020914620706    12.000000000000
         C            0.619448287640    -0.163740006277    -0.002209620706    12.000000000000
         C           -2.945127812360     0.037728793723    -0.014000120706    12.000000000000
         C           -2.777792712360    -1.233401006277    -0.168494620706    12.000000000000
         C            2.436993287640     1.196635993723    -0.284080620706    12.000000000000
         C            2.682856287640    -1.096917006277     0.256613379294    12.000000000000
         C            3.288545287640     0.128216993723    -0.024590620706    12.000000000000
         H           -3.886759712360     0.719877993723     0.068503379294     1.007825032230
         H           -3.522467712360    -2.010549006277    -0.283174620706     1.007825032230
         H            2.822207287640     2.190158993723    -0.508681620706     1.007825032230
         H            3.276515287640    -1.982353006277     0.479382379294     1.007825032230
         H            4.367759287640     0.242790993723    -0.035393620706     1.007825032230
         C           -1.507718712360     2.115321993723     0.300470379294    12.000000000000
         H           -0.810657712360     2.262134993723     1.124684379294     1.007825032230
         H           -1.090027712360     2.571793993723    -0.595738620706     1.007825032230
         H           -2.467514712360     2.572278993723     0.547000379294     1.007825032230

  Basis Set: AUG-CC-PVTZ
    Blend: AUG-CC-PVTZ
  Basis Set: (AUG-CC-PVTZ AUX)
    Blend: AUG-CC-PVTZ-JKFIT
	 Reference Energy          =    -525.5465512948391051 [Eh]
	 Singles Energy            =      -0.0000000000000000 [Eh]
	 Same-Spin Energy          =      -0.5770055522789732 [Eh]
	 Opposite-Spin Energy      =      -1.7368895635505039 [Eh]
	 Correlation Energy        =      -2.3138951158294772 [Eh]
	 Total Energy              =    -527.8604464106686009 [Eh]

	 ================> DF-SCS-MP2 Energies <==================
	-----------------------------------------------------------
	 SCS Same-Spin Scale       =       0.3333333333333333 [-]
	 SCS Opposite-Spin Scale   =       1.2000000000000000 [-]
	 SCS Same-Spin Energy      =      -0.1923351840929911 [Eh]
	 SCS Opposite-Spin Energy  =      -2.0842674762606048 [Eh]
	 SCS Correlation Energy    =      -2.2766026603535958 [Eh]
	 SCS Total Energy          =    -527.8231539551926517 [Eh]
	-----------------------------------------------------------

  Dipole Moment: [D]
     X:     1.4672      Y:     4.0579      Z:     0.4766     Total:     4.3413

*** Psi4 exiting successfully. Buy a developer a beer!
