                               Psi4 1.3.2 release

  ==> Input File <==

--------------------------------------------------------------------------
#psi4
#
memory 32 gb

molecule  {
0 1
  N       -1.7982340     0.7709651     0.0989068
  N       -1.4345640    -1.5648400    -0.1846490
  N        1.1113180     1.0210360    -0.2929590
  N        1.3650780    -1.3052570     0.2771500
  C       -0.8211750    -0.3840720    -0.0264870
  C        0.6302560    -0.2085840    -0.0077820
  C       -2.9774260     0.0775420    -0.0074450
  C       -2.7669850    -1.2782450    -0.1740670
  C        2.4478010     1.1517920    -0.2896530
  C        2.6936640    -1.1417610     0.2510410
  C        3.2993530     0.0833730    -0.0301630
  H       -3.8759520     0.6750340     0.0629310
  H       -3.5116600    -2.0553930    -0.2887470
  H        2.8330150     2.1453150    -0.5142540
  H        3.2873230    -2.0271970     0.4738100
  H        4.3785670     0.1979470    -0.0409660
  C       -1.4969110     2.0704780     0.2948980
  H       -0.7998500     2.2172910     1.1191120
  H       -1.0792200     2.5269500    -0.6013110
  H       -2.4567070     2.5274350     0.5414280
units angstrom
no_reorient  #important for SAPT in psi4, default
symmetry c1  #important for SAPT in psi4, default
}

set PROPERTIES_ORIGIN ["COM"]
properties('MP2/aug-cc-pvtz', properties = ['dipole'])
--------------------------------------------------------------------------

    Molecular point group: c1
  Charge       = 0
  Multiplicity = 1
  Basis Set: AUG-CC-PVTZ
    Blend: AUG-CC-PVTZ
  Basis Set: (AUG-CC-PVTZ AUX)
    Blend: AUG-CC-PVTZ-JKFIT

    Orbital Energies [Eh]
    ---------------------

    Doubly Occupied:

       1A    -15.623845     2A    -15.578884     3A    -15.574423
       4A    -15.564967     5A    -11.333607     6A    -11.306755
       7A    -11.305112     8A    -11.302675     9A    -11.272566
      10A    -11.261303    11A    -11.250961    12A    -11.243391
      13A     -1.332468    14A     -1.305961    15A     -1.208892
      16A     -1.192272    17A     -1.087710    18A     -1.014205
      19A     -0.964308    20A     -0.898910    21A     -0.887686
      22A     -0.795352    23A     -0.788109    24A     -0.729397
      25A     -0.702522    26A     -0.685500    27A     -0.650258
      28A     -0.642705    29A     -0.611591    30A     -0.608099
      31A     -0.591519    32A     -0.579703    33A     -0.564080
      34A     -0.540425    35A     -0.532961    36A     -0.477531
      37A     -0.443674    38A     -0.423887    39A     -0.412985
      40A     -0.401884    41A     -0.377045    42A     -0.293060

  @DF-RHF Final Energy:  -525.52658997017681

   => Energetics <=

    Nuclear Repulsion Energy =            652.1331440941308983
    One-Electron Energy =               -2006.5930927932847680
    Two-Electron Energy =                 828.9333587289769412
    Total Energy =                       -525.5265899701768149
  Basis Set: (AUG-CC-PVTZ AUX)
    Blend: AUG-CC-PVTZ-RI
    Molecular point group: c1

    Geometry (in Angstrom), charge = 0, multiplicity = 1:

       Center              X                  Y                   Z               Mass
    ------------   -----------------  -----------------  -----------------  -----------------
         N           -1.799963847694     0.798417410197     0.102280455293    14.003074004430
         N           -1.436293847694    -1.537387689803    -0.181275344707    14.003074004430
         N            1.109588152306     1.048488310197    -0.289585344707    14.003074004430
         N            1.363348152306    -1.277804689803     0.280523655293    14.003074004430
         C           -0.822904847694    -0.356619689803    -0.023113344707    12.000000000000
         C            0.628526152306    -0.181131689803    -0.004408344707    12.000000000000
         C           -2.979155847694     0.104994310197    -0.004071344707    12.000000000000
         C           -2.768714847694    -1.250792689803    -0.170693344707    12.000000000000
         C            2.446071152306     1.179244310197    -0.286279344707    12.000000000000
         C            2.691934152306    -1.114308689803     0.254414655293    12.000000000000
         C            3.297623152306     0.110825310197    -0.026789344707    12.000000000000
         H           -3.877681847694     0.702486310197     0.066304655293     1.007825032230
         H           -3.513389847694    -2.027940689803    -0.285373344707     1.007825032230
         H            2.831285152306     2.172767310197    -0.510880344707     1.007825032230
         H            3.285593152306    -1.999744689803     0.477183655293     1.007825032230
         H            4.376837152306     0.225399310197    -0.037592344707     1.007825032230
         C           -1.498640847694     2.097930310197     0.298271655293    12.000000000000
         H           -0.801579847694     2.244743310197     1.122485655293     1.007825032230
         H           -1.080949847694     2.554402310197    -0.597937344707     1.007825032230
         H           -2.458436847694     2.554887310197     0.544801655293     1.007825032230

  Basis Set: AUG-CC-PVTZ
    Blend: AUG-CC-PVTZ
  Basis Set: (AUG-CC-PVTZ AUX)
    Blend: AUG-CC-PVTZ-JKFIT
	 Reference Energy          =    -525.5265899701768149 [Eh]
	 Singles Energy            =      -0.0000000000000000 [Eh]
	 Same-Spin Energy          =      -0.5800231781370732 [Eh]
	 Opposite-Spin Energy      =      -1.7425504572454118 [Eh]
	 Correlation Energy        =      -2.3225736353824851 [Eh]
	 Total Energy              =    -527.8491636055592835 [Eh]

	 ================> DF-SCS-MP2 Energies <==================
	-----------------------------------------------------------
	 SCS Same-Spin Scale       =       0.3333333333333333 [-]
	 SCS Opposite-Spin Scale   =       1.2000000000000000 [-]
	 SCS Same-Spin Energy      =      -0.1933410593790244 [Eh]
	 SCS Opposite-Spin Energy  =      -2.0910605486944940 [Eh]
	 SCS Correlation Energy    =      -2.2844016080735186 [Eh]
	 SCS Total Energy          =    -527.8109915782503094 [Eh]
	-----------------------------------------------------------

  Dipole Moment: [D]
     X:     1.3758      Y:     3.7213      Z:     0.4272     Total:     3.9904

*** Psi4 exiting successfully. Buy a developer a beer!
