                               Psi4 1.3.2 release

  ==> Input File <==

--------------------------------------------------------------------------
#psi4
#
memory 32 gb

molecule  {
0 1
  N       -1.7314010     0.6447010     0.0841650
  N       -1.4254076    -1.5185439    -0.1786467
  N        1.1113180     1.0210360    -0.2929590
  N        1.3650780    -1.3052570     0.2771500
  C       -0.8211750    -0.3840720    -0.0264870
  C        0.6302560    -0.2085840    -0.0077820
  C       -2.9774260     0.0775420    -0.0074450
  C       -2.7669850    -1.2782450    -0.1740670
  C        2.4478010     1.1517920    -0.2896530
  C        2.6936640    -1.1417610     0.2510410
  C        3.2993530     0.0833730    -0.0301630
  H       -3.8759520     0.6750340     0.0629310
  H       -3.5116600    -2.0553930    -0.2887470
  H        2.8330150     2.1453150    -0.5142540
  H        3.2873230    -2.0271970     0.4738100
  H        4.3785670     0.1979470    -0.0409660
  C       -1.4969110     2.0704780     0.2948980
  H       -0.7998500     2.2172910     1.1191120
  H       -1.0792200     2.5269500    -0.6013110
  H       -2.4567070     2.5274350     0.5414280
units angstrom
no_reorient  #important for SAPT in psi4, default
symmetry c1  #important for SAPT in psi4, default
}

set PROPERTIES_ORIGIN ["COM"]
properties('MP2/aug-cc-pvtz', properties = ['dipole'])
--------------------------------------------------------------------------

    Molecular point group: c1
  Charge       = 0
  Multiplicity = 1
  Basis Set: AUG-CC-PVTZ
    Blend: AUG-CC-PVTZ
  Basis Set: (AUG-CC-PVTZ AUX)
    Blend: AUG-CC-PVTZ-JKFIT

    Orbital Energies [Eh]
    ---------------------

    Doubly Occupied:

       1A    -15.619948     2A    -15.580025     3A    -15.575061
       4A    -15.539280     5A    -11.332875     6A    -11.305767
       7A    -11.303002     8A    -11.289609     9A    -11.270984
      10A    -11.260401    11A    -11.251992    12A    -11.239355
      13A     -1.349598    14A     -1.308526    15A     -1.198736
      16A     -1.181050    17A     -1.089074    18A     -1.010740
      19A     -0.964838    20A     -0.899469    21A     -0.894619
      22A     -0.805856    23A     -0.783939    24A     -0.725698
      25A     -0.702673    26A     -0.686559    27A     -0.646090
      28A     -0.640131    29A     -0.608174    30A     -0.592362
      31A     -0.586617    32A     -0.579012    33A     -0.573301
      34A     -0.558454    35A     -0.545289    36A     -0.481280
      37A     -0.431367    38A     -0.424015    39A     -0.411154
      40A     -0.397849    41A     -0.376738    42A     -0.301654

  @DF-RHF Final Energy:  -525.55995042702864

   => Energetics <=

    Nuclear Repulsion Energy =            655.4838396811173880
    One-Electron Energy =               -2013.4412582249608477
    Two-Electron Energy =                 832.3974681168148209
    Total Energy =                       -525.5599504270286388
  Basis Set: (AUG-CC-PVTZ AUX)
    Blend: AUG-CC-PVTZ-RI
    Molecular point group: c1

    Geometry (in Angstrom), charge = 0, multiplicity = 1:

       Center              X                  Y                   Z               Mass
    ------------   -----------------  -----------------  -----------------  -----------------
         N           -1.739778268473     0.679148771997     0.088303171580    14.003074004430
         N           -1.433784868473    -1.484096128003    -0.174508528420    14.003074004430
         N            1.102940731527     1.055483771997    -0.288820828420    14.003074004430
         N            1.356700731527    -1.270809228003     0.281288171580    14.003074004430
         C           -0.829552268473    -0.349624228003    -0.022348828420    12.000000000000
         C            0.621878731527    -0.174136228003    -0.003643828420    12.000000000000
         C           -2.985803268473     0.111989771997    -0.003306828420    12.000000000000
         C           -2.775362268473    -1.243797228003    -0.169928828420    12.000000000000
         C            2.439423731527     1.186239771997    -0.285514828420    12.000000000000
         C            2.685286731527    -1.107313228003     0.255179171580    12.000000000000
         C            3.290975731527     0.117820771997    -0.026024828420    12.000000000000
         H           -3.884329268473     0.709481771997     0.067069171580     1.007825032230
         H           -3.520037268473    -2.020945228003    -0.284608828420     1.007825032230
         H            2.824637731527     2.179762771997    -0.510115828420     1.007825032230
         H            3.278945731527    -1.992749228003     0.477948171580     1.007825032230
         H            4.370189731527     0.232394771997    -0.036827828420     1.007825032230
         C           -1.505288268473     2.104925771997     0.299036171580    12.000000000000
         H           -0.808227268473     2.251738771997     1.123250171580     1.007825032230
         H           -1.087597268473     2.561397771997    -0.597172828420     1.007825032230
         H           -2.465084268473     2.561882771997     0.545566171580     1.007825032230

  Basis Set: AUG-CC-PVTZ
    Blend: AUG-CC-PVTZ
  Basis Set: (AUG-CC-PVTZ AUX)
    Blend: AUG-CC-PVTZ-JKFIT
	 Reference Energy          =    -525.5599504270286388 [Eh]
	 Singles Energy            =      -0.0000000000000000 [Eh]
	 Same-Spin Energy          =      -0.5769240380833591 [Eh]
	 Opposite-Spin Energy      =      -1.7361154490127091 [Eh]
	 Correlation Energy        =      -2.3130394870960682 [Eh]
	 Total Energy              =    -527.8729899141246733 [Eh]

	 ================> DF-SCS-MP2 Energies <==================
	-----------------------------------------------------------
	 SCS Same-Spin Scale       =       0.3333333333333333 [-]
	 SCS Opposite-Spin Scale   =       1.2000000000000000 [-]
	 SCS Same-Spin Energy      =      -0.1923080126944530 [Eh]
	 SCS Opposite-Spin Energy  =      -2.0833385388152510 [Eh]
	 SCS Correlation Energy    =      -2.2756465515097042 [Eh]
	 SCS Total Energy          =    -527.8355969785383195 [Eh]
	-----------------------------------------------------------

  Dipole Moment: [D]
     X:     1.4555      Y:     3.9838      Z:     0.4619     Total:     4.2664

*** Psi4 exiting successfully. Buy a developer a beer!
