                               Psi4 1.3.2 release

  ==> Input File <==

--------------------------------------------------------------------------
#psi4
#
memory 32 gb

molecule  {
0 1
  N       -1.7314010     0.6447010     0.0841650
  N       -1.4345640    -1.5648400    -0.1846490
  N        1.1113180     1.0210360    -0.2929590
  N        1.3650780    -1.3052570     0.2771500
  C       -0.8954775    -0.4440957    -0.0378300
  C        0.6302560    -0.2085840    -0.0077820
  C       -2.9774260     0.0775420    -0.0074450
  C       -2.7669850    -1.2782450    -0.1740670
  C        2.4478010     1.1517920    -0.2896530
  C        2.6936640    -1.1417610     0.2510410
  C        3.2993530     0.0833730    -0.0301630
  H       -3.8759520     0.6750340     0.0629310
  H       -3.5116600    -2.0553930    -0.2887470
  H        2.8330150     2.1453150    -0.5142540
  H        3.2873230    -2.0271970     0.4738100
  H        4.3785670     0.1979470    -0.0409660
  C       -1.4969110     2.0704780     0.2948980
  H       -0.7998500     2.2172910     1.1191120
  H       -1.0792200     2.5269500    -0.6013110
  H       -2.4567070     2.5274350     0.5414280
units angstrom
no_reorient  #important for SAPT in psi4, default
symmetry c1  #important for SAPT in psi4, default
}

set PROPERTIES_ORIGIN ["COM"]
properties('MP2/aug-cc-pvtz', properties = ['dipole'])
--------------------------------------------------------------------------

    Molecular point group: c1
  Charge       = 0
  Multiplicity = 1
  Basis Set: AUG-CC-PVTZ
    Blend: AUG-CC-PVTZ
  Basis Set: (AUG-CC-PVTZ AUX)
    Blend: AUG-CC-PVTZ-JKFIT

    Orbital Energies [Eh]
    ---------------------

    Doubly Occupied:

       1A    -15.616419     2A    -15.580822     3A    -15.574590
       4A    -15.539993     5A    -11.335210     6A    -11.306106
       7A    -11.302648     8A    -11.295012     9A    -11.273937
      10A    -11.257866    11A    -11.252135    12A    -11.238190
      13A     -1.355623    14A     -1.308037    15A     -1.204843
      16A     -1.190625    17A     -1.082878    18A     -1.007645
      19A     -0.966451    20A     -0.898026    21A     -0.887122
      22A     -0.809539    23A     -0.777073    24A     -0.727335
      25A     -0.701776    26A     -0.685834    27A     -0.647079
      28A     -0.635882    29A     -0.606787    30A     -0.594895
      31A     -0.590202    32A     -0.577787    33A     -0.562961
      34A     -0.552997    35A     -0.551068    36A     -0.476571
      37A     -0.442020    38A     -0.423840    39A     -0.413378
      40A     -0.398516    41A     -0.380202    42A     -0.304071

  @DF-RHF Final Energy:  -525.55197566661786

   => Energetics <=

    Nuclear Repulsion Energy =            654.2424296581037879
    One-Electron Energy =               -2010.9208300837533443
    Two-Electron Energy =                 831.1264247590318064
    Total Energy =                       -525.5519756666178637
  Basis Set: (AUG-CC-PVTZ AUX)
    Blend: AUG-CC-PVTZ-RI
    Molecular point group: c1

    Geometry (in Angstrom), charge = 0, multiplicity = 1:

       Center              X                  Y                   Z               Mass
    ------------   -----------------  -----------------  -----------------  -----------------
         N           -1.733407202362     0.687698345642     0.089678569323    14.003074004430
         N           -1.436570202362    -1.521842654358    -0.179135430677    14.003074004430
         N            1.109311797638     1.064033345642    -0.287445430677    14.003074004430
         N            1.363071797638    -1.262259654358     0.282663569323    14.003074004430
         C           -0.897483702362    -0.401098354358    -0.032316430677    12.000000000000
         C            0.628249797638    -0.165586654358    -0.002268430677    12.000000000000
         C           -2.979432202362     0.120539345642    -0.001931430677    12.000000000000
         C           -2.768991202362    -1.235247654358    -0.168553430677    12.000000000000
         C            2.445794797638     1.194789345642    -0.284139430677    12.000000000000
         C            2.691657797638    -1.098763654358     0.256554569323    12.000000000000
         C            3.297346797638     0.126370345642    -0.024649430677    12.000000000000
         H           -3.877958202362     0.718031345642     0.068444569323     1.007825032230
         H           -3.513666202362    -2.012395654358    -0.283233430677     1.007825032230
         H            2.831008797638     2.188312345642    -0.508740430677     1.007825032230
         H            3.285316797638    -1.984199654358     0.479323569323     1.007825032230
         H            4.376560797638     0.240944345642    -0.035452430677     1.007825032230
         C           -1.498917202362     2.113475345642     0.300411569323    12.000000000000
         H           -0.801856202362     2.260288345642     1.124625569323     1.007825032230
         H           -1.081226202362     2.569947345642    -0.595797430677     1.007825032230
         H           -2.458713202362     2.570432345642     0.546941569323     1.007825032230

  Basis Set: AUG-CC-PVTZ
    Blend: AUG-CC-PVTZ
  Basis Set: (AUG-CC-PVTZ AUX)
    Blend: AUG-CC-PVTZ-JKFIT
	 Reference Energy          =    -525.5519756666178637 [Eh]
	 Singles Energy            =      -0.0000000000000000 [Eh]
	 Same-Spin Energy          =      -0.5752513429444968 [Eh]
	 Opposite-Spin Energy      =      -1.7342820702557500 [Eh]
	 Correlation Energy        =      -2.3095334132002465 [Eh]
	 Total Energy              =    -527.8615090798181200 [Eh]

	 ================> DF-SCS-MP2 Energies <==================
	-----------------------------------------------------------
	 SCS Same-Spin Scale       =       0.3333333333333333 [-]
	 SCS Opposite-Spin Scale   =       1.2000000000000000 [-]
	 SCS Same-Spin Energy      =      -0.1917504476481656 [Eh]
	 SCS Opposite-Spin Energy  =      -2.0811384843069001 [Eh]
	 SCS Correlation Energy    =      -2.2728889319550656 [Eh]
	 SCS Total Energy          =    -527.8248645985729581 [Eh]
	-----------------------------------------------------------

  Dipole Moment: [D]
     X:     1.6227      Y:     4.0155      Z:     0.4640     Total:     4.3558

*** Psi4 exiting successfully. Buy a developer a beer!
