                               Psi4 1.3.2 release

  ==> Input File <==

--------------------------------------------------------------------------
#psi4
#
memory 32 gb

molecule  {
0 1
  N       -1.7314010     0.6447010     0.0841650
  N       -1.4345640    -1.5648400    -0.1846490
  N        1.1113180     1.0210360    -0.2929590
  N        1.3650780    -1.3052570     0.2771500
  C       -0.8211750    -0.3840720    -0.0264870
  C        0.6302560    -0.2085840    -0.0077820
  C       -2.9774260     0.0775420    -0.0074450
  C       -2.7431775    -1.2744045    -0.1735025
  C        2.4478010     1.1517920    -0.2896530
  C        2.6936640    -1.1417610     0.2510410
  C        3.2993530     0.0833730    -0.0301630
  H       -3.8759520     0.6750340     0.0629310
  H       -3.5116600    -2.0553930    -0.2887470
  H        2.8330150     2.1453150    -0.5142540
  H        3.2873230    -2.0271970     0.4738100
  H        4.3785670     0.1979470    -0.0409660
  C       -1.4969110     2.0704780     0.2948980
  H       -0.7998500     2.2172910     1.1191120
  H       -1.0792200     2.5269500    -0.6013110
  H       -2.4567070     2.5274350     0.5414280
units angstrom
no_reorient  #important for SAPT in psi4, default
symmetry c1  #important for SAPT in psi4, default
}

set PROPERTIES_ORIGIN ["COM"]
properties('MP2/aug-cc-pvtz', properties = ['dipole'])
--------------------------------------------------------------------------

    Molecular point group: c1
  Charge       = 0
  Multiplicity = 1
  Basis Set: AUG-CC-PVTZ
    Blend: AUG-CC-PVTZ
  Basis Set: (AUG-CC-PVTZ AUX)
    Blend: AUG-CC-PVTZ-JKFIT

    Orbital Energies [Eh]
    ---------------------

    Doubly Occupied:

       1A    -15.627025     2A    -15.579635     3A    -15.574618
       4A    -15.545673     5A    -11.333117     6A    -11.305650
       7A    -11.302812     8A    -11.295090     9A    -11.273613
      10A    -11.258727    11A    -11.251506    12A    -11.240361
      13A     -1.347495    14A     -1.308318    15A     -1.198567
      16A     -1.182301    17A     -1.088914    18A     -1.007538
      19A     -0.970144    20A     -0.899092    21A     -0.893075
      22A     -0.800700    23A     -0.785509    24A     -0.728144
      25A     -0.702334    26A     -0.685569    27A     -0.646929
      28A     -0.639830    29A     -0.607246    30A     -0.592085
      31A     -0.588085    32A     -0.579681    33A     -0.569907
      34A     -0.553122    35A     -0.545049    36A     -0.480929
      37A     -0.437401    38A     -0.424114    39A     -0.412478
      40A     -0.396637    41A     -0.381162    42A     -0.296953

  @DF-RHF Final Energy:  -525.55728105167998

   => Energetics <=

    Nuclear Repulsion Energy =            654.6590186535197518
    One-Electron Energy =               -2011.7583311621401663
    Two-Electron Energy =                 831.5420314569404354
    Total Energy =                       -525.5572810516799791
  Basis Set: (AUG-CC-PVTZ AUX)
    Blend: AUG-CC-PVTZ-RI
    Molecular point group: c1

    Geometry (in Angstrom), charge = 0, multiplicity = 1:

       Center              X                  Y                   Z               Mass
    ------------   -----------------  -----------------  -----------------  -----------------
         N           -1.740762009565     0.682910771714     0.088785924671    14.003074004430
         N           -1.443925009565    -1.526630228286    -0.180028075329    14.003074004430
         N            1.101956990435     1.059245771714    -0.288338075329    14.003074004430
         N            1.355716990435    -1.267047228286     0.281770924671    14.003074004430
         C           -0.830536009565    -0.345862228286    -0.021866075329    12.000000000000
         C            0.620894990435    -0.170374228286    -0.003161075329    12.000000000000
         C           -2.986787009565     0.115751771714    -0.002824075329    12.000000000000
         C           -2.752538509565    -1.236194728286    -0.168881575329    12.000000000000
         C            2.438439990435     1.190001771714    -0.285032075329    12.000000000000
         C            2.684302990435    -1.103551228286     0.255661924671    12.000000000000
         C            3.289991990435     0.121582771714    -0.025542075329    12.000000000000
         H           -3.885313009565     0.713243771714     0.067551924671     1.007825032230
         H           -3.521021009565    -2.017183228286    -0.284126075329     1.007825032230
         H            2.823653990435     2.183524771714    -0.509633075329     1.007825032230
         H            3.277961990435    -1.988987228286     0.478430924671     1.007825032230
         H            4.369205990435     0.236156771714    -0.036345075329     1.007825032230
         C           -1.506272009565     2.108687771714     0.299518924671    12.000000000000
         H           -0.809211009565     2.255500771714     1.123732924671     1.007825032230
         H           -1.088581009565     2.565159771714    -0.596690075329     1.007825032230
         H           -2.466068009565     2.565644771714     0.546048924671     1.007825032230

  Basis Set: AUG-CC-PVTZ
    Blend: AUG-CC-PVTZ
  Basis Set: (AUG-CC-PVTZ AUX)
    Blend: AUG-CC-PVTZ-JKFIT
	 Reference Energy          =    -525.5572810516799791 [Eh]
	 Singles Energy            =      -0.0000000000000000 [Eh]
	 Same-Spin Energy          =      -0.5781668179351518 [Eh]
	 Opposite-Spin Energy      =      -1.7381930894735285 [Eh]
	 Correlation Energy        =      -2.3163599074086800 [Eh]
	 Total Energy              =    -527.8736409590886751 [Eh]

	 ================> DF-SCS-MP2 Energies <==================
	-----------------------------------------------------------
	 SCS Same-Spin Scale       =       0.3333333333333333 [-]
	 SCS Opposite-Spin Scale   =       1.2000000000000000 [-]
	 SCS Same-Spin Energy      =      -0.1927222726450506 [Eh]
	 SCS Opposite-Spin Energy  =      -2.0858317073682340 [Eh]
	 SCS Correlation Energy    =      -2.2785539800132844 [Eh]
	 SCS Total Energy          =    -527.8358350316932501 [Eh]
	-----------------------------------------------------------

  Dipole Moment: [D]
     X:     1.3752      Y:     4.1143      Z:     0.4804     Total:     4.3646

*** Psi4 exiting successfully. Buy a developer a beer!
