                               Psi4 1.3.2 release

  ==> Input File <==

--------------------------------------------------------------------------
#psi4
#
memory 32 gb

molecule  {
0 1
  N       -1.7314010     0.6447010     0.0841650
  N       -1.4345640    -1.5648400    -0.1846490
  N        1.1113180     1.0210360    -0.2929590
  N        1.3650780    -1.3052570     0.2771500
  C       -0.8211750    -0.3840720    -0.0264870
  C        0.6302560    -0.2085840    -0.0077820
  C       -3.0721763     0.0599344    -0.0117687
  C       -2.7669850    -1.2782450    -0.1740670
  C        2.4478010     1.1517920    -0.2896530
  C        2.6936640    -1.1417610     0.2510410
  C        3.2993530     0.0833730    -0.0301630
  H       -3.8759520     0.6750340     0.0629310
  H       -3.5116600    -2.0553930    -0.2887470
  H        2.8330150     2.1453150    -0.5142540
  H        3.2873230    -2.0271970     0.4738100
  H        4.3785670     0.1979470    -0.0409660
  C       -1.4969110     2.0704780     0.2948980
  H       -0.7998500     2.2172910     1.1191120
  H       -1.0792200     2.5269500    -0.6013110
  H       -2.4567070     2.5274350     0.5414280
units angstrom
no_reorient  #important for SAPT in psi4, default
symmetry c1  #important for SAPT in psi4, default
}

set PROPERTIES_ORIGIN ["COM"]
properties('MP2/aug-cc-pvtz', properties = ['dipole'])
--------------------------------------------------------------------------

    Molecular point group: c1
  Charge       = 0
  Multiplicity = 1
  Basis Set: AUG-CC-PVTZ
    Blend: AUG-CC-PVTZ
  Basis Set: (AUG-CC-PVTZ AUX)
    Blend: AUG-CC-PVTZ-JKFIT

    Orbital Energies [Eh]
    ---------------------

    Doubly Occupied:

       1A    -15.620167     2A    -15.583083     3A    -15.578345
       4A    -15.544336     5A    -11.335663     6A    -11.307696
       7A    -11.305025     8A    -11.302756     9A    -11.268351
      10A    -11.259192    11A    -11.254949    12A    -11.247279
      13A     -1.332348    14A     -1.304236    15A     -1.199683
      16A     -1.169610    17A     -1.090563    18A     -1.007694
      19A     -0.961549    20A     -0.901230    21A     -0.898103
      22A     -0.803130    23A     -0.785287    24A     -0.720851
      25A     -0.706141    26A     -0.686862    27A     -0.643584
      28A     -0.637242    29A     -0.615278    30A     -0.594350
      31A     -0.589136    32A     -0.581856    33A     -0.568549
      34A     -0.538369    35A     -0.537197    36A     -0.482827
      37A     -0.437420    38A     -0.425987    39A     -0.414601
      40A     -0.394787    41A     -0.372768    42A     -0.305207

  @DF-RHF Final Energy:  -525.54492019813119

   => Energetics <=

    Nuclear Repulsion Energy =            651.9518001228159392
    One-Electron Energy =               -2006.3668649471710523
    Two-Electron Energy =                 828.8701446262239187
    Total Energy =                       -525.5449201981311944
  Basis Set: (AUG-CC-PVTZ AUX)
    Blend: AUG-CC-PVTZ-RI
    Molecular point group: c1

    Geometry (in Angstrom), charge = 0, multiplicity = 1:

       Center              X                  Y                   Z               Mass
    ------------   -----------------  -----------------  -----------------  -----------------
         N           -1.731874334900     0.684518626574     0.089152368139    14.003074004430
         N           -1.435037334900    -1.525022373426    -0.179661631861    14.003074004430
         N            1.110844665100     1.060853626574    -0.287971631861    14.003074004430
         N            1.364604665100    -1.265439373426     0.282137368139    14.003074004430
         C           -0.821648334900    -0.344254373426    -0.021499631861    12.000000000000
         C            0.629782665100    -0.168766373426    -0.002794631861    12.000000000000
         C           -3.072649634900     0.099752026574    -0.006781331861    12.000000000000
         C           -2.767458334900    -1.238427373426    -0.169079631861    12.000000000000
         C            2.447327665100     1.191609626574    -0.284665631861    12.000000000000
         C            2.693190665100    -1.101943373426     0.256028368139    12.000000000000
         C            3.298879665100     0.123190626574    -0.025175631861    12.000000000000
         H           -3.876425334900     0.714851626574     0.067918368139     1.007825032230
         H           -3.512133334900    -2.015575373426    -0.283759631861     1.007825032230
         H            2.832541665100     2.185132626574    -0.509266631861     1.007825032230
         H            3.286849665100    -1.987379373426     0.478797368139     1.007825032230
         H            4.378093665100     0.237764626574    -0.035978631861     1.007825032230
         C           -1.497384334900     2.110295626574     0.299885368139    12.000000000000
         H           -0.800323334900     2.257108626574     1.124099368139     1.007825032230
         H           -1.079693334900     2.566767626574    -0.596323631861     1.007825032230
         H           -2.457180334900     2.567252626574     0.546415368139     1.007825032230

  Basis Set: AUG-CC-PVTZ
    Blend: AUG-CC-PVTZ
  Basis Set: (AUG-CC-PVTZ AUX)
    Blend: AUG-CC-PVTZ-JKFIT
	 Reference Energy          =    -525.5449201981311944 [Eh]
	 Singles Energy            =      -0.0000000000000000 [Eh]
	 Same-Spin Energy          =      -0.5777997599045047 [Eh]
	 Opposite-Spin Energy      =      -1.7398939637510982 [Eh]
	 Correlation Energy        =      -2.3176937236556028 [Eh]
	 Total Energy              =    -527.8626139217867603 [Eh]

	 ================> DF-SCS-MP2 Energies <==================
	-----------------------------------------------------------
	 SCS Same-Spin Scale       =       0.3333333333333333 [-]
	 SCS Opposite-Spin Scale   =       1.2000000000000000 [-]
	 SCS Same-Spin Energy      =      -0.1925999199681682 [Eh]
	 SCS Opposite-Spin Energy  =      -2.0878727565013175 [Eh]
	 SCS Correlation Energy    =      -2.2804726764694858 [Eh]
	 SCS Total Energy          =    -527.8253928746006522 [Eh]
	-----------------------------------------------------------

  Dipole Moment: [D]
     X:     1.5222      Y:     4.0165      Z:     0.4660     Total:     4.3205

*** Psi4 exiting successfully. Buy a developer a beer!
