                               Psi4 1.3.2 release

  ==> Input File <==

--------------------------------------------------------------------------
#psi4
#
memory 32 gb

molecule  {
0 1
  N       -1.7314010     0.6447010     0.0841650
  N       -1.4345640    -1.5648400    -0.1846490
  N        1.1113180     1.0210360    -0.2929590
  N        1.3650780    -1.3052570     0.2771500
  C       -0.8211750    -0.3840720    -0.0264870
  C        0.7014812    -0.0265285    -0.0500048
  C       -2.9774260     0.0775420    -0.0074450
  C       -2.7669850    -1.2782450    -0.1740670
  C        2.4478010     1.1517920    -0.2896530
  C        2.6936640    -1.1417610     0.2510410
  C        3.2993530     0.0833730    -0.0301630
  H       -3.8759520     0.6750340     0.0629310
  H       -3.5116600    -2.0553930    -0.2887470
  H        2.8330150     2.1453150    -0.5142540
  H        3.2873230    -2.0271970     0.4738100
  H        4.3785670     0.1979470    -0.0409660
  C       -1.4969110     2.0704780     0.2948980
  H       -0.7998500     2.2172910     1.1191120
  H       -1.0792200     2.5269500    -0.6013110
  H       -2.4567070     2.5274350     0.5414280
units angstrom
no_reorient  #important for SAPT in psi4, default
symmetry c1  #important for SAPT in psi4, default
}

set PROPERTIES_ORIGIN ["COM"]
properties('MP2/aug-cc-pvtz', properties = ['dipole'])
--------------------------------------------------------------------------

    Molecular point group: c1
  Charge       = 0
  Multiplicity = 1
  Basis Set: AUG-CC-PVTZ
    Blend: AUG-CC-PVTZ
  Basis Set: (AUG-CC-PVTZ AUX)
    Blend: AUG-CC-PVTZ-JKFIT

    Orbital Energies [Eh]
    ---------------------

    Doubly Occupied:

       1A    -15.616451     2A    -15.582939     3A    -15.573042
       4A    -15.539984     5A    -11.326296     6A    -11.312859
       7A    -11.301410     8A    -11.294150     9A    -11.272975
      10A    -11.259528    11A    -11.251000    12A    -11.234746
      13A     -1.368447    14A     -1.328679    15A     -1.206458
      16A     -1.172662    17A     -1.088207    18A     -0.999837
      19A     -0.963278    20A     -0.924817    21A     -0.873454
      22A     -0.798637    23A     -0.776292    24A     -0.727313
      25A     -0.716819    26A     -0.676068    27A     -0.645313
      28A     -0.637651    29A     -0.612230    30A     -0.604447
      31A     -0.588984    32A     -0.579219    33A     -0.568966
      34A     -0.552783    35A     -0.541479    36A     -0.477162
      37A     -0.447145    38A     -0.434300    39A     -0.405919
      40A     -0.387696    41A     -0.373873    42A     -0.297602

  @DF-RHF Final Energy:  -525.50222373883400

   => Energetics <=

    Nuclear Repulsion Energy =            654.9201238080445364
    One-Electron Energy =               -2012.1624588217503060
    Two-Electron Energy =                 831.7401112748717651
    Total Energy =                       -525.5022237388340045
  Basis Set: (AUG-CC-PVTZ AUX)
    Blend: AUG-CC-PVTZ-RI
    Molecular point group: c1

    Geometry (in Angstrom), charge = 0, multiplicity = 1:

       Center              X                  Y                   Z               Mass
    ------------   -----------------  -----------------  -----------------  -----------------
         N           -1.744316673120     0.669550900492     0.091993470714    14.003074004430
         N           -1.447479673120    -1.539990099508    -0.176820529286    14.003074004430
         N            1.098402326880     1.045885900492    -0.285130529286    14.003074004430
         N            1.352162326880    -1.280407099508     0.284978470714    14.003074004430
         C           -0.834090673120    -0.359222099508    -0.018658529286    12.000000000000
         C            0.688565526880    -0.001678599508    -0.042176329286    12.000000000000
         C           -2.990341673120     0.102391900492     0.000383470714    12.000000000000
         C           -2.779900673120    -1.253395099508    -0.166238529286    12.000000000000
         C            2.434885326880     1.176641900492    -0.281824529286    12.000000000000
         C            2.680748326880    -1.116911099508     0.258869470714    12.000000000000
         C            3.286437326880     0.108222900492    -0.022334529286    12.000000000000
         H           -3.888867673120     0.699883900492     0.070759470714     1.007825032230
         H           -3.524575673120    -2.030543099508    -0.280918529286     1.007825032230
         H            2.820099326880     2.170164900492    -0.506425529286     1.007825032230
         H            3.274407326880    -2.002347099508     0.481638470714     1.007825032230
         H            4.365651326880     0.222796900492    -0.033137529286     1.007825032230
         C           -1.509826673120     2.095327900492     0.302726470714    12.000000000000
         H           -0.812765673120     2.242140900492     1.126940470714     1.007825032230
         H           -1.092135673120     2.551799900492    -0.593482529286     1.007825032230
         H           -2.469622673120     2.552284900492     0.549256470714     1.007825032230

  Basis Set: AUG-CC-PVTZ
    Blend: AUG-CC-PVTZ
  Basis Set: (AUG-CC-PVTZ AUX)
    Blend: AUG-CC-PVTZ-JKFIT
	 Reference Energy          =    -525.5022237388340045 [Eh]
	 Singles Energy            =      -0.0000000000000000 [Eh]
	 Same-Spin Energy          =      -0.5756344047209455 [Eh]
	 Opposite-Spin Energy      =      -1.7383400471941965 [Eh]
	 Correlation Energy        =      -2.3139744519151422 [Eh]
	 Total Energy              =    -527.8161981907491054 [Eh]

	 ================> DF-SCS-MP2 Energies <==================
	-----------------------------------------------------------
	 SCS Same-Spin Scale       =       0.3333333333333333 [-]
	 SCS Opposite-Spin Scale   =       1.2000000000000000 [-]
	 SCS Same-Spin Energy      =      -0.1918781349069818 [Eh]
	 SCS Opposite-Spin Energy  =      -2.0860080566330357 [Eh]
	 SCS Correlation Energy    =      -2.2778861915400177 [Eh]
	 SCS Total Energy          =    -527.7801099303740102 [Eh]
	-----------------------------------------------------------

  Dipole Moment: [D]
     X:     2.0051      Y:     4.3637      Z:     0.4068     Total:     4.8195

*** Psi4 exiting successfully. Buy a developer a beer!
