                               Psi4 1.3.2 release

  ==> Input File <==

--------------------------------------------------------------------------
#psi4
#
memory 32 gb

molecule  {
0 1
  N       -1.7314010     0.6447010     0.0841650
  N       -1.5161710    -1.5196038    -0.1782187
  N        1.1113180     1.0210360    -0.2929590
  N        1.3650780    -1.3052570     0.2771500
  C       -0.8211750    -0.3840720    -0.0264870
  C        0.6302560    -0.2085840    -0.0077820
  C       -2.9774260     0.0775420    -0.0074450
  C       -2.7669850    -1.2782450    -0.1740670
  C        2.4478010     1.1517920    -0.2896530
  C        2.6936640    -1.1417610     0.2510410
  C        3.2993530     0.0833730    -0.0301630
  H       -3.8759520     0.6750340     0.0629310
  H       -3.5116600    -2.0553930    -0.2887470
  H        2.8330150     2.1453150    -0.5142540
  H        3.2873230    -2.0271970     0.4738100
  H        4.3785670     0.1979470    -0.0409660
  C       -1.4969110     2.0704780     0.2948980
  H       -0.7998500     2.2172910     1.1191120
  H       -1.0792200     2.5269500    -0.6013110
  H       -2.4567070     2.5274350     0.5414280
units angstrom
no_reorient  #important for SAPT in psi4, default
symmetry c1  #important for SAPT in psi4, default
}

set PROPERTIES_ORIGIN ["COM"]
properties('MP2/aug-cc-pvtz', properties = ['dipole'])
--------------------------------------------------------------------------

    Molecular point group: c1
  Charge       = 0
  Multiplicity = 1
  Basis Set: AUG-CC-PVTZ
    Blend: AUG-CC-PVTZ
  Basis Set: (AUG-CC-PVTZ AUX)
    Blend: AUG-CC-PVTZ-JKFIT

    Orbital Energies [Eh]
    ---------------------

    Doubly Occupied:

       1A    -15.629130     2A    -15.579235     3A    -15.574237
       4A    -15.534860     5A    -11.334669     6A    -11.305685
       7A    -11.302684     8A    -11.290989     9A    -11.272819
      10A    -11.256320    11A    -11.250806    12A    -11.232213
      13A     -1.354195    14A     -1.309371    15A     -1.200744
      16A     -1.188578    17A     -1.089205    18A     -1.005606
      19A     -0.973893    20A     -0.899035    21A     -0.893868
      22A     -0.801551    23A     -0.787353    24A     -0.732714
      25A     -0.702216    26A     -0.686733    27A     -0.647453
      28A     -0.640994    29A     -0.609602    30A     -0.593691
      31A     -0.589077    32A     -0.578766    33A     -0.576507
      34A     -0.563245    35A     -0.549161    36A     -0.481230
      37A     -0.425116    38A     -0.422793    39A     -0.408856
      40A     -0.395283    41A     -0.389506    42A     -0.292199

  @DF-RHF Final Energy:  -525.55186654918577

   => Energetics <=

    Nuclear Repulsion Energy =            655.4843263828555564
    One-Electron Energy =               -2013.3680181870704473
    Two-Electron Energy =                 832.3318252550290026
    Total Energy =                       -525.5518665491857746
  Basis Set: (AUG-CC-PVTZ AUX)
    Blend: AUG-CC-PVTZ-RI
    Molecular point group: c1

    Geometry (in Angstrom), charge = 0, multiplicity = 1:

       Center              X                  Y                   Z               Mass
    ------------   -----------------  -----------------  -----------------  -----------------
         N           -1.731838443824     0.679241490209     0.088265730883    14.003074004430
         N           -1.516608443824    -1.485063309791    -0.174117969117    14.003074004430
         N            1.110880556176     1.055576490209    -0.288858269117    14.003074004430
         N            1.364640556176    -1.270716509791     0.281250730883    14.003074004430
         C           -0.821612443824    -0.349531509791    -0.022386269117    12.000000000000
         C            0.629818556176    -0.174043509791    -0.003681269117    12.000000000000
         C           -2.977863443824     0.112082490209    -0.003344269117    12.000000000000
         C           -2.767422443824    -1.243704509791    -0.169966269117    12.000000000000
         C            2.447363556176     1.186332490209    -0.285552269117    12.000000000000
         C            2.693226556176    -1.107220509791     0.255141730883    12.000000000000
         C            3.298915556176     0.117913490209    -0.026062269117    12.000000000000
         H           -3.876389443824     0.709574490209     0.067031730883     1.007825032230
         H           -3.512097443824    -2.020852509791    -0.284646269117     1.007825032230
         H            2.832577556176     2.179855490209    -0.510153269117     1.007825032230
         H            3.286885556176    -1.992656509791     0.477910730883     1.007825032230
         H            4.378129556176     0.232487490209    -0.036865269117     1.007825032230
         C           -1.497348443824     2.105018490209     0.298998730883    12.000000000000
         H           -0.800287443824     2.251831490209     1.123212730883     1.007825032230
         H           -1.079657443824     2.561490490209    -0.597210269117     1.007825032230
         H           -2.457144443824     2.561975490209     0.545528730883     1.007825032230

  Basis Set: AUG-CC-PVTZ
    Blend: AUG-CC-PVTZ
  Basis Set: (AUG-CC-PVTZ AUX)
    Blend: AUG-CC-PVTZ-JKFIT
	 Reference Energy          =    -525.5518665491857746 [Eh]
	 Singles Energy            =      -0.0000000000000000 [Eh]
	 Same-Spin Energy          =      -0.5784293423181301 [Eh]
	 Opposite-Spin Energy      =      -1.7369847175476014 [Eh]
	 Correlation Energy        =      -2.3154140598657316 [Eh]
	 Total Energy              =    -527.8672806090514769 [Eh]

	 ================> DF-SCS-MP2 Energies <==================
	-----------------------------------------------------------
	 SCS Same-Spin Scale       =       0.3333333333333333 [-]
	 SCS Opposite-Spin Scale   =       1.2000000000000000 [-]
	 SCS Same-Spin Energy      =      -0.1928097807727100 [Eh]
	 SCS Opposite-Spin Energy  =      -2.0843816610571215 [Eh]
	 SCS Correlation Energy    =      -2.2771914418298316 [Eh]
	 SCS Total Energy          =    -527.8290579910155884 [Eh]
	-----------------------------------------------------------

  Dipole Moment: [D]
     X:     1.4287      Y:     3.9803      Z:     0.4561     Total:     4.2535

*** Psi4 exiting successfully. Buy a developer a beer!
