                               Psi4 1.3.2 release

  ==> Input File <==

--------------------------------------------------------------------------
#psi4
#
memory 32 gb

molecule  {
0 1
  N       -1.7314010     0.6447010     0.0841650
  N       -1.4345640    -1.5648400    -0.1846490
  N        1.1113180     1.0210360    -0.2929590
  N        1.3650780    -1.3052570     0.2771500
  C       -0.8211750    -0.3840720    -0.0264870
  C        0.6302560    -0.2085840    -0.0077820
  C       -2.8335239     0.0915505    -0.0024871
  C       -2.7669850    -1.2782450    -0.1740670
  C        2.4478010     1.1517920    -0.2896530
  C        2.6936640    -1.1417610     0.2510410
  C        3.2993530     0.0833730    -0.0301630
  H       -3.8759520     0.6750340     0.0629310
  H       -3.5116600    -2.0553930    -0.2887470
  H        2.8330150     2.1453150    -0.5142540
  H        3.2873230    -2.0271970     0.4738100
  H        4.3785670     0.1979470    -0.0409660
  C       -1.4969110     2.0704780     0.2948980
  H       -0.7998500     2.2172910     1.1191120
  H       -1.0792200     2.5269500    -0.6013110
  H       -2.4567070     2.5274350     0.5414280
units angstrom
no_reorient  #important for SAPT in psi4, default
symmetry c1  #important for SAPT in psi4, default
}

set PROPERTIES_ORIGIN ["COM"]
properties('MP2/aug-cc-pvtz', properties = ['dipole'])
--------------------------------------------------------------------------

    Molecular point group: c1
  Charge       = 0
  Multiplicity = 1
  Basis Set: AUG-CC-PVTZ
    Blend: AUG-CC-PVTZ
  Basis Set: (AUG-CC-PVTZ AUX)
    Blend: AUG-CC-PVTZ-JKFIT

    Orbital Energies [Eh]
    ---------------------

    Doubly Occupied:

       1A    -15.632194     2A    -15.574982     3A    -15.569303
       4A    -15.551142     5A    -11.329730     6A    -11.302831
       7A    -11.299635     8A    -11.284229     9A    -11.282138
      10A    -11.264511    11A    -11.246730    12A    -11.232654
      13A     -1.383360    14A     -1.307726    15A     -1.200304
      16A     -1.187293    17A     -1.086430    18A     -1.013566
      19A     -0.978651    20A     -0.896541    21A     -0.886926
      22A     -0.817813    23A     -0.776166    24A     -0.738382
      25A     -0.699091    26A     -0.683631    27A     -0.665737
      28A     -0.640946    29A     -0.609136    30A     -0.594295
      31A     -0.585751    32A     -0.577980    33A     -0.562676
      34A     -0.555902    35A     -0.548380    36A     -0.477520
      37A     -0.433382    38A     -0.421415    39A     -0.410266
      40A     -0.405275    41A     -0.380737    42A     -0.288861

  @DF-RHF Final Energy:  -525.53037811926720

   => Energetics <=

    Nuclear Repulsion Energy =            657.7403449152294570
    One-Electron Energy =               -2017.7730107159279669
    Two-Electron Energy =                 834.5022876814311985
    Total Energy =                       -525.5303781192671977
  Basis Set: (AUG-CC-PVTZ AUX)
    Blend: AUG-CC-PVTZ-RI
    Molecular point group: c1

    Geometry (in Angstrom), charge = 0, multiplicity = 1:

       Center              X                  Y                   Z               Mass
    ------------   -----------------  -----------------  -----------------  -----------------
         N           -1.749764890301     0.682148528521     0.088456573841    14.003074004430
         N           -1.452927890301    -1.527392471479    -0.180357426159    14.003074004430
         N            1.092954109699     1.058483528521    -0.288667426159    14.003074004430
         N            1.346714109699    -1.267809471479     0.281441573841    14.003074004430
         C           -0.839538890301    -0.346624471479    -0.022195426159    12.000000000000
         C            0.611892109699    -0.171136471479    -0.003490426159    12.000000000000
         C           -2.851887790301     0.128998028521     0.001804473841    12.000000000000
         C           -2.785348890301    -1.240797471479    -0.169775426159    12.000000000000
         C            2.429437109699     1.189239528521    -0.285361426159    12.000000000000
         C            2.675300109699    -1.104313471479     0.255332573841    12.000000000000
         C            3.280989109699     0.120820528521    -0.025871426159    12.000000000000
         H           -3.894315890301     0.712481528521     0.067222573841     1.007825032230
         H           -3.530023890301    -2.017945471479    -0.284455426159     1.007825032230
         H            2.814651109699     2.182762528521    -0.509962426159     1.007825032230
         H            3.268959109699    -1.989749471479     0.478101573841     1.007825032230
         H            4.360203109699     0.235394528521    -0.036674426159     1.007825032230
         C           -1.515274890301     2.107925528521     0.299189573841    12.000000000000
         H           -0.818213890301     2.254738528521     1.123403573841     1.007825032230
         H           -1.097583890301     2.564397528521    -0.597019426159     1.007825032230
         H           -2.475070890301     2.564882528521     0.545719573841     1.007825032230

  Basis Set: AUG-CC-PVTZ
    Blend: AUG-CC-PVTZ
  Basis Set: (AUG-CC-PVTZ AUX)
    Blend: AUG-CC-PVTZ-JKFIT
	 Reference Energy          =    -525.5303781192671977 [Eh]
	 Singles Energy            =      -0.0000000000000000 [Eh]
	 Same-Spin Energy          =      -0.5784337343703615 [Eh]
	 Opposite-Spin Energy      =      -1.7372185280174222 [Eh]
	 Correlation Energy        =      -2.3156522623877835 [Eh]
	 Total Energy              =    -527.8460303816549413 [Eh]

	 ================> DF-SCS-MP2 Energies <==================
	-----------------------------------------------------------
	 SCS Same-Spin Scale       =       0.3333333333333333 [-]
	 SCS Opposite-Spin Scale   =       1.2000000000000000 [-]
	 SCS Same-Spin Energy      =      -0.1928112447901205 [Eh]
	 SCS Opposite-Spin Energy  =      -2.0846622336209064 [Eh]
	 SCS Correlation Energy    =      -2.2774734784110269 [Eh]
	 SCS Total Energy          =    -527.8078515976782228 [Eh]
	-----------------------------------------------------------

  Dipole Moment: [D]
     X:     1.2199      Y:     4.2608      Z:     0.5026     Total:     4.4604

*** Psi4 exiting successfully. Buy a developer a beer!
