                               Psi4 1.3.2 release

  ==> Input File <==

--------------------------------------------------------------------------
#psi4
#
memory 32 gb

molecule  {
0 1
  N       -1.7314010     0.6447010     0.0841650
  N       -1.4345640    -1.5648400    -0.1846490
  N        1.1550333     1.0044232    -0.2869489
  N        1.3650780    -1.3052570     0.2771500
  C       -0.8211750    -0.3840720    -0.0264870
  C        0.6302560    -0.2085840    -0.0077820
  C       -2.9774260     0.0775420    -0.0074450
  C       -2.7669850    -1.2782450    -0.1740670
  C        2.4478010     1.1517920    -0.2896530
  C        2.6936640    -1.1417610     0.2510410
  C        3.2993530     0.0833730    -0.0301630
  H       -3.8759520     0.6750340     0.0629310
  H       -3.5116600    -2.0553930    -0.2887470
  H        2.8330150     2.1453150    -0.5142540
  H        3.2873230    -2.0271970     0.4738100
  H        4.3785670     0.1979470    -0.0409660
  C       -1.4969110     2.0704780     0.2948980
  H       -0.7998500     2.2172910     1.1191120
  H       -1.0792200     2.5269500    -0.6013110
  H       -2.4567070     2.5274350     0.5414280
units angstrom
no_reorient  #important for SAPT in psi4, default
symmetry c1  #important for SAPT in psi4, default
}

set PROPERTIES_ORIGIN ["COM"]
properties('MP2/aug-cc-pvtz', properties = ['dipole'])
--------------------------------------------------------------------------

    Molecular point group: c1
  Charge       = 0
  Multiplicity = 1
  Basis Set: AUG-CC-PVTZ
    Blend: AUG-CC-PVTZ
  Basis Set: (AUG-CC-PVTZ AUX)
    Blend: AUG-CC-PVTZ-JKFIT

    Orbital Energies [Eh]
    ---------------------

    Doubly Occupied:

       1A    -15.627060     2A    -15.574267     3A    -15.574009
       4A    -15.547885     5A    -11.333928     6A    -11.299902
       7A    -11.299748     8A    -11.297400     9A    -11.274809
      10A    -11.261049    11A    -11.249349    12A    -11.241513
      13A     -1.346272    14A     -1.313456    15A     -1.202382
      16A     -1.179428    17A     -1.087821    18A     -1.008733
      19A     -0.969845    20A     -0.899881    21A     -0.894489
      22A     -0.803459    23A     -0.787340    24A     -0.728163
      25A     -0.706276    26A     -0.686184    27A     -0.647448
      28A     -0.638628    29A     -0.609427    30A     -0.593601
      31A     -0.589065    32A     -0.581088    33A     -0.571451
      34A     -0.558187    35A     -0.544926    36A     -0.479588
      37A     -0.436548    38A     -0.427910    39A     -0.407270
      40A     -0.395206    41A     -0.378188    42A     -0.298763

  @DF-RHF Final Energy:  -525.55833341501329

   => Energetics <=

    Nuclear Repulsion Energy =            654.5859539253110597
    One-Electron Energy =               -2011.5846901552858981
    Two-Electron Energy =                 831.4404028149615442
    Total Energy =                       -525.5583334150132941
  Basis Set: (AUG-CC-PVTZ AUX)
    Blend: AUG-CC-PVTZ-RI
    Molecular point group: c1

    Geometry (in Angstrom), charge = 0, multiplicity = 1:

       Center              X                  Y                   Z               Mass
    ------------   -----------------  -----------------  -----------------  -----------------
         N           -1.742801421044     0.684651933347     0.088302489249    14.003074004430
         N           -1.445964421044    -1.524889066653    -0.180511510751    14.003074004430
         N            1.143632878956     1.044374133347    -0.282811410751    14.003074004430
         N            1.353677578956    -1.265306066653     0.281287489249    14.003074004430
         C           -0.832575421044    -0.344121066653    -0.022349510751    12.000000000000
         C            0.618855578956    -0.168633066653    -0.003644510751    12.000000000000
         C           -2.988826421044     0.117492933347    -0.003307510751    12.000000000000
         C           -2.778385421044    -1.238294066653    -0.169929510751    12.000000000000
         C            2.436400578956     1.191742933347    -0.285515510751    12.000000000000
         C            2.682263578956    -1.101810066653     0.255178489249    12.000000000000
         C            3.287952578956     0.123323933347    -0.026025510751    12.000000000000
         H           -3.887352421044     0.714984933347     0.067068489249     1.007825032230
         H           -3.523060421044    -2.015442066653    -0.284609510751     1.007825032230
         H            2.821614578956     2.185265933347    -0.510116510751     1.007825032230
         H            3.275922578956    -1.987246066653     0.477947489249     1.007825032230
         H            4.367166578956     0.237897933347    -0.036828510751     1.007825032230
         C           -1.508311421044     2.110428933347     0.299035489249    12.000000000000
         H           -0.811250421044     2.257241933347     1.123249489249     1.007825032230
         H           -1.090620421044     2.566900933347    -0.597173510751     1.007825032230
         H           -2.468107421044     2.567385933347     0.545565489249     1.007825032230

  Basis Set: AUG-CC-PVTZ
    Blend: AUG-CC-PVTZ
  Basis Set: (AUG-CC-PVTZ AUX)
    Blend: AUG-CC-PVTZ-JKFIT
	 Reference Energy          =    -525.5583334150132941 [Eh]
	 Singles Energy            =      -0.0000000000000000 [Eh]
	 Same-Spin Energy          =      -0.5776670007701790 [Eh]
	 Opposite-Spin Energy      =      -1.7370740066001706 [Eh]
	 Correlation Energy        =      -2.3147410073703494 [Eh]
	 Total Energy              =    -527.8730744223836382 [Eh]

	 ================> DF-SCS-MP2 Energies <==================
	-----------------------------------------------------------
	 SCS Same-Spin Scale       =       0.3333333333333333 [-]
	 SCS Opposite-Spin Scale   =       1.2000000000000000 [-]
	 SCS Same-Spin Energy      =      -0.1925556669233930 [Eh]
	 SCS Opposite-Spin Energy  =      -2.0844888079202049 [Eh]
	 SCS Correlation Energy    =      -2.2770444748435978 [Eh]
	 SCS Total Energy          =    -527.8353778898568862 [Eh]
	-----------------------------------------------------------

  Dipole Moment: [D]
     X:     1.2300      Y:     4.1558      Z:     0.4667     Total:     4.3590

*** Psi4 exiting successfully. Buy a developer a beer!
