                               Psi4 1.4a3.dev225

  ==> Input File <==

--------------------------------------------------------------------------
#psi4
#
memory 32 gb

molecule  {
0 1
  N       -1.7314010     0.6447010     0.0841650
  N       -1.4345640    -1.5648400    -0.1846490
  N        1.1113180     1.0210360    -0.2929590
  N        1.3650780    -1.3052570     0.2771500
  C       -0.8211750    -0.3840720    -0.0264870
  C        0.6302560    -0.2085840    -0.0077820
  C       -2.9774260     0.0775420    -0.0074450
  C       -2.7669850    -1.2782450    -0.1740670
  C        2.4677059     1.1537394    -0.2896038
  C        2.6936640    -1.1417610     0.2510410
  C        3.2993530     0.0833730    -0.0301630
  H       -3.8759520     0.6750340     0.0629310
  H       -3.5116600    -2.0553930    -0.2887470
  H        2.8330150     2.1453150    -0.5142540
  H        3.2873230    -2.0271970     0.4738100
  H        4.3785670     0.1979470    -0.0409660
  C       -1.4969110     2.0704780     0.2948980
  H       -0.7998500     2.2172910     1.1191120
  H       -1.0792200     2.5269500    -0.6013110
  H       -2.4567070     2.5274350     0.5414280
units angstrom
no_reorient  #important for SAPT in psi4, default
symmetry c1  #important for SAPT in psi4, default
}

set PROPERTIES_ORIGIN ["COM"]
properties('MP2/aug-cc-pvtz', properties = ['dipole'])
--------------------------------------------------------------------------

    Molecular point group: c1
  Charge       = 0
  Multiplicity = 1
  Basis Set: AUG-CC-PVTZ
    Blend: AUG-CC-PVTZ
  Basis Set: (AUG-CC-PVTZ AUX)
    Blend: AUG-CC-PVTZ-JKFIT

    Orbital Energies [Eh]
    ---------------------

    Doubly Occupied:

       1A    -15.625446     2A    -15.580561     3A    -15.575165
       4A    -15.546247     5A    -11.332777     6A    -11.305638
       7A    -11.304109     8A    -11.295162     9A    -11.272967
      10A    -11.259593    11A    -11.251664    12A    -11.240065
      13A     -1.344204    14A     -1.305593    15A     -1.194497
      16A     -1.177073    17A     -1.090666    18A     -1.007863
      19A     -0.968111    20A     -0.901134    21A     -0.892296
      22A     -0.802189    23A     -0.784368    24A     -0.726991
      25A     -0.701408    26A     -0.686222    27A     -0.645800
      28A     -0.639367    29A     -0.608148    30A     -0.593373
      31A     -0.586554    32A     -0.578529    33A     -0.570279
      34A     -0.555835    35A     -0.542709    36A     -0.479765
      37A     -0.436132    38A     -0.421429    39A     -0.412996
      40A     -0.398045    41A     -0.377976    42A     -0.298699

  @DF-RHF Final Energy:  -525.55684470101903

   => Energetics <=

    Nuclear Repulsion Energy =            653.8003602475993148
    One-Electron Energy =               -2010.0791176922352861
    Two-Electron Energy =                 830.7219127436170538
    Total Energy =                       -525.5568447010190312
  Basis Set: (AUG-CC-PVTZ AUX)
    Blend: AUG-CC-PVTZ-RI
    Molecular point group: c1

    Geometry (in Angstrom), charge = 0, multiplicity = 1:

       Center              X                  Y                   Z               Mass
    ------------   -----------------  -----------------  -----------------  -----------------
         N           -1.740469451511     0.683052687782     0.088824554089    14.003074004430
         N           -1.443632451511    -1.526488312218    -0.179989445911    14.003074004430
         N            1.102249548489     1.059387687782    -0.288299445911    14.003074004430
         N            1.356009548489    -1.266905312218     0.281809554089    14.003074004430
         C           -0.830243451511    -0.345720312218    -0.021827445911    12.000000000000
         C            0.621187548489    -0.170232312218    -0.003122445911    12.000000000000
         C           -2.986494451511     0.115893687782    -0.002785445911    12.000000000000
         C           -2.776053451511    -1.239893312218    -0.169407445911    12.000000000000
         C            2.458637448489     1.192091087782    -0.284944245911    12.000000000000
         C            2.684595548489    -1.103409312218     0.255700554089    12.000000000000
         C            3.290284548489     0.121724687782    -0.025503445911    12.000000000000
         H           -3.885020451511     0.713385687782     0.067590554089     1.007825032230
         H           -3.520728451511    -2.017041312218    -0.284087445911     1.007825032230
         H            2.823946548489     2.183666687782    -0.509594445911     1.007825032230
         H            3.278254548489    -1.988845312218     0.478469554089     1.007825032230
         H            4.369498548489     0.236298687782    -0.036306445911     1.007825032230
         C           -1.505979451511     2.108829687782     0.299557554089    12.000000000000
         H           -0.808918451511     2.255642687782     1.123771554089     1.007825032230
         H           -1.088288451511     2.565301687782    -0.596651445911     1.007825032230
         H           -2.465775451511     2.565786687782     0.546087554089     1.007825032230

  Basis Set: AUG-CC-PVTZ
    Blend: AUG-CC-PVTZ
  Basis Set: (AUG-CC-PVTZ AUX)
    Blend: AUG-CC-PVTZ-JKFIT
	 Reference Energy          =    -525.5568447010190312 [Eh]
	 Singles Energy            =      -0.0000000000000000 [Eh]
	 Same-Spin Energy          =      -0.5780641307462822 [Eh]
	 Opposite-Spin Energy      =      -1.7387421658138948 [Eh]
	 Correlation Energy        =      -2.3168062965601770 [Eh]
	 Total Energy              =    -527.8736509975792615 [Eh]

	 ================> DF-SCS-MP2 Energies <==================
	-----------------------------------------------------------
	 SCS Same-Spin Scale       =       0.3333333333333333 [-]
	 SCS Opposite-Spin Scale   =       1.2000000000000000 [-]
	 SCS Same-Spin Energy      =      -0.1926880435820940 [Eh]
	 SCS Opposite-Spin Energy  =      -2.0864905989766735 [Eh]
	 SCS Correlation Energy    =      -2.2791786425587675 [Eh]
	 SCS Total Energy          =    -527.8360233435778355 [Eh]
	-----------------------------------------------------------

  Dipole Moment: [D]
     X:     1.4277      Y:     4.1035      Z:     0.4816     Total:     4.3714

*** Psi4 exiting successfully. Buy a developer a beer!
