                               Psi4 1.4a3.dev225

  ==> Input File <==

--------------------------------------------------------------------------
#psi4
#
memory 32 gb

molecule  {
0 1
  N       -1.7314010     0.6447010     0.0841650
  N       -1.4345640    -1.5648400    -0.1846490
  N        1.1113180     1.0210360    -0.2929590
  N        1.3650780    -1.3052570     0.2771500
  C       -0.8211750    -0.3840720    -0.0264870
  C        0.6302560    -0.2085840    -0.0077820
  C       -2.9774260     0.0775420    -0.0074450
  C       -2.7669850    -1.2782450    -0.1740670
  C        2.4478010     1.1517920    -0.2896530
  C        2.7135105    -1.1393187     0.2506510
  C        3.2993530     0.0833730    -0.0301630
  H       -3.8759520     0.6750340     0.0629310
  H       -3.5116600    -2.0553930    -0.2887470
  H        2.8330150     2.1453150    -0.5142540
  H        3.2873230    -2.0271970     0.4738100
  H        4.3785670     0.1979470    -0.0409660
  C       -1.4969110     2.0704780     0.2948980
  H       -0.7998500     2.2172910     1.1191120
  H       -1.0792200     2.5269500    -0.6013110
  H       -2.4567070     2.5274350     0.5414280
units angstrom
no_reorient  #important for SAPT in psi4, default
symmetry c1  #important for SAPT in psi4, default
}

set PROPERTIES_ORIGIN ["COM"]
properties('MP2/aug-cc-pvtz', properties = ['dipole'])
--------------------------------------------------------------------------

    Molecular point group: c1
  Charge       = 0
  Multiplicity = 1
  Basis Set: AUG-CC-PVTZ
    Blend: AUG-CC-PVTZ
  Basis Set: (AUG-CC-PVTZ AUX)
    Blend: AUG-CC-PVTZ-JKFIT

    Orbital Energies [Eh]
    ---------------------

    Doubly Occupied:

       1A    -15.625498     2A    -15.580291     3A    -15.575724
       4A    -15.546047     5A    -11.332510     6A    -11.307070
       7A    -11.302976     8A    -11.295099     9A    -11.273259
      10A    -11.259504    11A    -11.251630    12A    -11.240018
      13A     -1.344248    14A     -1.305769    15A     -1.194552
      16A     -1.176736    17A     -1.090650    18A     -1.007874
      19A     -0.968304    20A     -0.901474    21A     -0.892075
      22A     -0.802037    23A     -0.784503    24A     -0.727017
      25A     -0.701624    26A     -0.686174    27A     -0.646009
      28A     -0.639536    29A     -0.607435    30A     -0.594331
      31A     -0.586568    32A     -0.578864    33A     -0.569641
      34A     -0.556076    35A     -0.542945    36A     -0.479816
      37A     -0.435920    38A     -0.421263    39A     -0.413066
      40A     -0.397924    41A     -0.377899    42A     -0.298544

  @DF-RHF Final Energy:  -525.55672376975792

   => Energetics <=

    Nuclear Repulsion Energy =            653.8167092315190985
    One-Electron Energy =               -2010.1098644036821952
    Two-Electron Energy =                 830.7364314024051737
    Total Energy =                       -525.5567237697579230
  Basis Set: (AUG-CC-PVTZ AUX)
    Blend: AUG-CC-PVTZ-RI
    Molecular point group: c1

    Geometry (in Angstrom), charge = 0, multiplicity = 1:

       Center              X                  Y                   Z               Mass
    ------------   -----------------  -----------------  -----------------  -----------------
         N           -1.740465073561     0.683015587649     0.088857478677    14.003074004430
         N           -1.443628073561    -1.526525412351    -0.179956521323    14.003074004430
         N            1.102253926439     1.059350587649    -0.288266521323    14.003074004430
         N            1.356013926439    -1.266942412351     0.281842478677    14.003074004430
         C           -0.830239073561    -0.345757412351    -0.021794521323    12.000000000000
         C            0.621191926439    -0.170269412351    -0.003089521323    12.000000000000
         C           -2.986490073561     0.115856587649    -0.002752521323    12.000000000000
         C           -2.776049073561    -1.239930412351    -0.169374521323    12.000000000000
         C            2.438736926439     1.190106587649    -0.284960521323    12.000000000000
         C            2.704446426439    -1.101004112351     0.255343478677    12.000000000000
         C            3.290288926439     0.121687587649    -0.025470521323    12.000000000000
         H           -3.885016073561     0.713348587649     0.067623478677     1.007825032230
         H           -3.520724073561    -2.017078412351    -0.284054521323     1.007825032230
         H            2.823950926439     2.183629587649    -0.509561521323     1.007825032230
         H            3.278258926439    -1.988882412351     0.478502478677     1.007825032230
         H            4.369502926439     0.236261587649    -0.036273521323     1.007825032230
         C           -1.505975073561     2.108792587649     0.299590478677    12.000000000000
         H           -0.808914073561     2.255605587649     1.123804478677     1.007825032230
         H           -1.088284073561     2.565264587649    -0.596618521323     1.007825032230
         H           -2.465771073561     2.565749587649     0.546120478677     1.007825032230

  Basis Set: AUG-CC-PVTZ
    Blend: AUG-CC-PVTZ
  Basis Set: (AUG-CC-PVTZ AUX)
    Blend: AUG-CC-PVTZ-JKFIT
	 Reference Energy          =    -525.5567237697579230 [Eh]
	 Singles Energy            =      -0.0000000000000000 [Eh]
	 Same-Spin Energy          =      -0.5781303218417241 [Eh]
	 Opposite-Spin Energy      =      -1.7387919689645823 [Eh]
	 Correlation Energy        =      -2.3169222908063065 [Eh]
	 Total Energy              =    -527.8736460605642833 [Eh]

	 ================> DF-SCS-MP2 Energies <==================
	-----------------------------------------------------------
	 SCS Same-Spin Scale       =       0.3333333333333333 [-]
	 SCS Opposite-Spin Scale   =       1.2000000000000000 [-]
	 SCS Same-Spin Energy      =      -0.1927101072805747 [Eh]
	 SCS Opposite-Spin Energy  =      -2.0865503627574986 [Eh]
	 SCS Correlation Energy    =      -2.2792604700380732 [Eh]
	 SCS Total Energy          =    -527.8359842397959483 [Eh]
	-----------------------------------------------------------

  Dipole Moment: [D]
     X:     1.4287      Y:     4.1177      Z:     0.4777     Total:     4.3846

*** Psi4 exiting successfully. Buy a developer a beer!
