                               Psi4 1.4a3.dev225

  ==> Input File <==

--------------------------------------------------------------------------
#psi4
#
memory 32 gb

molecule  {
0 1
  N       -1.7314010     0.6447010     0.0841650
  N       -1.4345640    -1.5648400    -0.1846490
  N        1.1113180     1.0210360    -0.2929590
  N        1.3650780    -1.3052570     0.2771500
  C       -0.8120196    -0.3664480    -0.0241263
  C        0.6302560    -0.2085840    -0.0077820
  C       -2.9774260     0.0775420    -0.0074450
  C       -2.7669850    -1.2782450    -0.1740670
  C        2.4478010     1.1517920    -0.2896530
  C        2.6936640    -1.1417610     0.2510410
  C        3.2993530     0.0833730    -0.0301630
  H       -3.8759520     0.6750340     0.0629310
  H       -3.5116600    -2.0553930    -0.2887470
  H        2.8330150     2.1453150    -0.5142540
  H        3.2873230    -2.0271970     0.4738100
  H        4.3785670     0.1979470    -0.0409660
  C       -1.4969110     2.0704780     0.2948980
  H       -0.7998500     2.2172910     1.1191120
  H       -1.0792200     2.5269500    -0.6013110
  H       -2.4567070     2.5274350     0.5414280
units angstrom
no_reorient  #important for SAPT in psi4, default
symmetry c1  #important for SAPT in psi4, default
}

set PROPERTIES_ORIGIN ["COM"]
properties('MP2/aug-cc-pvtz', properties = ['dipole'])
--------------------------------------------------------------------------

    Molecular point group: c1
  Charge       = 0
  Multiplicity = 1
  Basis Set: AUG-CC-PVTZ
    Blend: AUG-CC-PVTZ
  Basis Set: (AUG-CC-PVTZ AUX)
    Blend: AUG-CC-PVTZ-JKFIT

    Orbital Energies [Eh]
    ---------------------

    Doubly Occupied:

       1A    -15.628283     2A    -15.579540     3A    -15.574844
       4A    -15.547366     5A    -11.332853     6A    -11.305561
       7A    -11.302921     8A    -11.295405     9A    -11.273767
      10A    -11.259965    11A    -11.251584    12A    -11.241100
      13A     -1.344766    14A     -1.308083    15A     -1.197400
      16A     -1.174701    17A     -1.089851    18A     -1.007996
      19A     -0.969676    20A     -0.899348    21A     -0.895072
      22A     -0.801823    23A     -0.785180    24A     -0.727265
      25A     -0.702694    26A     -0.685781    27A     -0.647110
      28A     -0.640520    29A     -0.607340    30A     -0.593031
      31A     -0.586464    32A     -0.580625    33A     -0.569565
      34A     -0.556214    35A     -0.542358    36A     -0.481694
      37A     -0.434886    38A     -0.424119    39A     -0.411959
      40A     -0.396341    41A     -0.377552    42A     -0.297423

  @DF-RHF Final Energy:  -525.55603358050882

   => Energetics <=

    Nuclear Repulsion Energy =            654.1461801236116571
    One-Electron Energy =               -2010.7443754903074478
    Two-Electron Energy =                 831.0421617861869663
    Total Energy =                       -525.5560335805088243
  Basis Set: (AUG-CC-PVTZ AUX)
    Blend: AUG-CC-PVTZ-RI
    Molecular point group: c1

    Geometry (in Angstrom), charge = 0, multiplicity = 1:

       Center              X                  Y                   Z               Mass
    ------------   -----------------  -----------------  -----------------  -----------------
         N           -1.739663616224     0.681877492893     0.088651272702    14.003074004430
         N           -1.442826616224    -1.527663507107    -0.180162727298    14.003074004430
         N            1.103055383776     1.058212492893    -0.288472727298    14.003074004430
         N            1.356815383776    -1.268080507107     0.281636272702    14.003074004430
         C           -0.820282216224    -0.329271507107    -0.019640027298    12.000000000000
         C            0.621993383776    -0.171407507107    -0.003295727298    12.000000000000
         C           -2.985688616224     0.114718492893    -0.002958727298    12.000000000000
         C           -2.775247616224    -1.241068507107    -0.169580727298    12.000000000000
         C            2.439538383776     1.188968492893    -0.285166727298    12.000000000000
         C            2.685401383776    -1.104584507107     0.255527272702    12.000000000000
         C            3.291090383776     0.120549492893    -0.025676727298    12.000000000000
         H           -3.884214616224     0.712210492893     0.067417272702     1.007825032230
         H           -3.519922616224    -2.018216507107    -0.284260727298     1.007825032230
         H            2.824752383776     2.182491492893    -0.509767727298     1.007825032230
         H            3.279060383776    -1.990020507107     0.478296272702     1.007825032230
         H            4.370304383776     0.235123492893    -0.036479727298     1.007825032230
         C           -1.505173616224     2.107654492893     0.299384272702    12.000000000000
         H           -0.808112616224     2.254467492893     1.123598272702     1.007825032230
         H           -1.087482616224     2.564126492893    -0.596824727298     1.007825032230
         H           -2.464969616224     2.564611492893     0.545914272702     1.007825032230

  Basis Set: AUG-CC-PVTZ
    Blend: AUG-CC-PVTZ
  Basis Set: (AUG-CC-PVTZ AUX)
    Blend: AUG-CC-PVTZ-JKFIT
	 Reference Energy          =    -525.5560335805088243 [Eh]
	 Singles Energy            =      -0.0000000000000000 [Eh]
	 Same-Spin Energy          =      -0.5785291438606345 [Eh]
	 Opposite-Spin Energy      =      -1.7392228444567213 [Eh]
	 Correlation Energy        =      -2.3177519883173558 [Eh]
	 Total Energy              =    -527.8737855688261789 [Eh]

	 ================> DF-SCS-MP2 Energies <==================
	-----------------------------------------------------------
	 SCS Same-Spin Scale       =       0.3333333333333333 [-]
	 SCS Opposite-Spin Scale   =       1.2000000000000000 [-]
	 SCS Same-Spin Energy      =      -0.1928430479535448 [Eh]
	 SCS Opposite-Spin Energy  =      -2.0870674133480653 [Eh]
	 SCS Correlation Energy    =      -2.2799104613016103 [Eh]
	 SCS Total Energy          =    -527.8359440418104214 [Eh]
	-----------------------------------------------------------

  Dipole Moment: [D]
     X:     1.3356      Y:     4.1336      Z:     0.4841     Total:     4.3709

*** Psi4 exiting successfully. Buy a developer a beer!
