                               Psi4 1.3.2 release

  ==> Input File <==

--------------------------------------------------------------------------
#psi4
#
memory 32 gb

molecule  {
0 1
  N       -1.7314010     0.6447010     0.0841650
  N       -1.4397517    -1.5878606    -0.1876458
  N        1.1113180     1.0210360    -0.2929590
  N        1.3650780    -1.3052570     0.2771500
  C       -0.8211750    -0.3840720    -0.0264870
  C        0.6302560    -0.2085840    -0.0077820
  C       -2.9774260     0.0775420    -0.0074450
  C       -2.7669850    -1.2782450    -0.1740670
  C        2.4478010     1.1517920    -0.2896530
  C        2.6936640    -1.1417610     0.2510410
  C        3.2993530     0.0833730    -0.0301630
  H       -3.8759520     0.6750340     0.0629310
  H       -3.5116600    -2.0553930    -0.2887470
  H        2.8330150     2.1453150    -0.5142540
  H        3.2873230    -2.0271970     0.4738100
  H        4.3785670     0.1979470    -0.0409660
  C       -1.4969110     2.0704780     0.2948980
  H       -0.7998500     2.2172910     1.1191120
  H       -1.0792200     2.5269500    -0.6013110
  H       -2.4567070     2.5274350     0.5414280
units angstrom
no_reorient  #important for SAPT in psi4, default
symmetry c1  #important for SAPT in psi4, default
}

set PROPERTIES_ORIGIN ["COM"]
properties('MP2/aug-cc-pvtz', properties = ['dipole'])
--------------------------------------------------------------------------

    Molecular point group: c1
  Charge       = 0
  Multiplicity = 1
  Basis Set: AUG-CC-PVTZ
    Blend: AUG-CC-PVTZ
  Basis Set: (AUG-CC-PVTZ AUX)
    Blend: AUG-CC-PVTZ-JKFIT

    Orbital Energies [Eh]
    ---------------------

    Doubly Occupied:

       1A    -15.628686     2A    -15.579968     3A    -15.574815
       4A    -15.550012     5A    -11.333589     6A    -11.305847
       7A    -11.302934     8A    -11.298130     9A    -11.274543
      10A    -11.259688    11A    -11.251738    12A    -11.240937
      13A     -1.342901    14A     -1.307849    15A     -1.197580
      16A     -1.176116    17A     -1.088869    18A     -1.006615
      19A     -0.970359    20A     -0.899213    21A     -0.893578
      22A     -0.800838    23A     -0.784505    24A     -0.727543
      25A     -0.702692    26A     -0.685456    27A     -0.646423
      28A     -0.639718    29A     -0.606982    30A     -0.593274
      31A     -0.587177    32A     -0.579549    33A     -0.568839
      34A     -0.554099    35A     -0.542357    36A     -0.481129
      37A     -0.438494    38A     -0.424286    39A     -0.412815
      40A     -0.396054    41A     -0.378512    42A     -0.296984

  @DF-RHF Final Energy:  -525.55525493679670

   => Energetics <=

    Nuclear Repulsion Energy =            653.4497027257781383
    One-Electron Energy =               -2009.3465280089828866
    Two-Electron Energy =                 830.3415703464079343
    Total Energy =                       -525.5552549367967003
  Basis Set: (AUG-CC-PVTZ AUX)
    Blend: AUG-CC-PVTZ-RI
    Molecular point group: c1

    Geometry (in Angstrom), charge = 0, multiplicity = 1:

       Center              X                  Y                   Z               Mass
    ------------   -----------------  -----------------  -----------------  -----------------
         N           -1.738523471509     0.685212476565     0.089090397223    14.003074004430
         N           -1.446874171509    -1.547349123435    -0.182720402777    14.003074004430
         N            1.104195528491     1.061547476565    -0.288033602777    14.003074004430
         N            1.357955528491    -1.264745523435     0.282075397223    14.003074004430
         C           -0.828297471509    -0.343560523435    -0.021561602777    12.000000000000
         C            0.623133528491    -0.168072523435    -0.002856602777    12.000000000000
         C           -2.984548471509     0.118053476565    -0.002519602777    12.000000000000
         C           -2.774107471509    -1.237733523435    -0.169141602777    12.000000000000
         C            2.440678528491     1.192303476565    -0.284727602777    12.000000000000
         C            2.686541528491    -1.101249523435     0.255966397223    12.000000000000
         C            3.292230528491     0.123884476565    -0.025237602777    12.000000000000
         H           -3.883074471509     0.715545476565     0.067856397223     1.007825032230
         H           -3.518782471509    -2.014881523435    -0.283821602777     1.007825032230
         H            2.825892528491     2.185826476565    -0.509328602777     1.007825032230
         H            3.280200528491    -1.986685523435     0.478735397223     1.007825032230
         H            4.371444528491     0.238458476565    -0.036040602777     1.007825032230
         C           -1.504033471509     2.110989476565     0.299823397223    12.000000000000
         H           -0.806972471509     2.257802476565     1.124037397223     1.007825032230
         H           -1.086342471509     2.567461476565    -0.596385602777     1.007825032230
         H           -2.463829471509     2.567946476565     0.546353397223     1.007825032230

  Basis Set: AUG-CC-PVTZ
    Blend: AUG-CC-PVTZ
  Basis Set: (AUG-CC-PVTZ AUX)
    Blend: AUG-CC-PVTZ-JKFIT
	 Reference Energy          =    -525.5552549367967003 [Eh]
	 Singles Energy            =      -0.0000000000000000 [Eh]
	 Same-Spin Energy          =      -0.5785267069472005 [Eh]
	 Opposite-Spin Energy      =      -1.7395279072414853 [Eh]
	 Correlation Energy        =      -2.3180546141886857 [Eh]
	 Total Energy              =    -527.8733095509853683 [Eh]

	 ================> DF-SCS-MP2 Energies <==================
	-----------------------------------------------------------
	 SCS Same-Spin Scale       =       0.3333333333333333 [-]
	 SCS Opposite-Spin Scale   =       1.2000000000000000 [-]
	 SCS Same-Spin Energy      =      -0.1928422356490668 [Eh]
	 SCS Opposite-Spin Energy  =      -2.0874334886897823 [Eh]
	 SCS Correlation Energy    =      -2.2802757243388490 [Eh]
	 SCS Total Energy          =    -527.8355306611355218 [Eh]
	-----------------------------------------------------------

  Dipole Moment: [D]
     X:     1.3605      Y:     4.1648      Z:     0.4877     Total:     4.4084

*** Psi4 exiting successfully. Buy a developer a beer!
