                               Psi4 1.4a3.dev225

  ==> Input File <==

--------------------------------------------------------------------------
#psi4
#
memory 32 gb

molecule  {
0 1
  N       -1.7314010     0.6447010     0.0841650
  N       -1.4345640    -1.5648400    -0.1846490
  N        1.1113180     1.0210360    -0.2929590
  N        1.3650780    -1.3052570     0.2771500
  C       -0.8211750    -0.3840720    -0.0264870
  C        0.6302560    -0.2085840    -0.0077820
  C       -2.9774260     0.0775420    -0.0074450
  C       -2.7474328    -1.2824506    -0.1742223
  C        2.4478010     1.1517920    -0.2896530
  C        2.6936640    -1.1417610     0.2510410
  C        3.2993530     0.0833730    -0.0301630
  H       -3.8759520     0.6750340     0.0629310
  H       -3.5116600    -2.0553930    -0.2887470
  H        2.8330150     2.1453150    -0.5142540
  H        3.2873230    -2.0271970     0.4738100
  H        4.3785670     0.1979470    -0.0409660
  C       -1.4969110     2.0704780     0.2948980
  H       -0.7998500     2.2172910     1.1191120
  H       -1.0792200     2.5269500    -0.6013110
  H       -2.4567070     2.5274350     0.5414280
units angstrom
no_reorient  #important for SAPT in psi4, default
symmetry c1  #important for SAPT in psi4, default
}

set PROPERTIES_ORIGIN ["COM"]
properties('MP2/aug-cc-pvtz', properties = ['dipole'])
--------------------------------------------------------------------------

    Molecular point group: c1
  Charge       = 0
  Multiplicity = 1
  Basis Set: AUG-CC-PVTZ
    Blend: AUG-CC-PVTZ
  Basis Set: (AUG-CC-PVTZ AUX)
    Blend: AUG-CC-PVTZ-JKFIT

    Orbital Energies [Eh]
    ---------------------

    Doubly Occupied:

       1A    -15.627432     2A    -15.579509     3A    -15.574458
       4A    -15.545935     5A    -11.333058     6A    -11.305560
       7A    -11.302704     8A    -11.294859     9A    -11.273755
      10A    -11.259852    11A    -11.251365    12A    -11.240922
      13A     -1.346750    14A     -1.308090    15A     -1.198358
      16A     -1.181857    17A     -1.088696    18A     -1.006669
      19A     -0.970215    20A     -0.899004    21A     -0.892853
      22A     -0.801678    23A     -0.785004    24A     -0.727908
      25A     -0.702320    26A     -0.685548    27A     -0.646777
      28A     -0.639738    29A     -0.607747    30A     -0.592240
      31A     -0.587505    32A     -0.579437    33A     -0.570169
      34A     -0.555412    35A     -0.544544    36A     -0.480847
      37A     -0.436567    38A     -0.424009    39A     -0.412226
      40A     -0.396514    41A     -0.380946    42A     -0.296183

  @DF-RHF Final Energy:  -525.55740138038936

   => Energetics <=

    Nuclear Repulsion Energy =            654.4507382496474293
    One-Electron Energy =               -2011.3458406586403271
    Two-Electron Energy =                 831.3377010286035329
    Total Energy =                       -525.5574013803893649
  Basis Set: (AUG-CC-PVTZ AUX)
    Blend: AUG-CC-PVTZ-RI
    Molecular point group: c1

    Geometry (in Angstrom), charge = 0, multiplicity = 1:

       Center              X                  Y                   Z               Mass
    ------------   -----------------  -----------------  -----------------  -----------------
         N           -1.740443011388     0.683513946866     0.088839884413    14.003074004430
         N           -1.443606011388    -1.526027053134    -0.179974115587    14.003074004430
         N            1.102275988612     1.059848946866    -0.288284115587    14.003074004430
         N            1.356035988612    -1.266444053134     0.281824884413    14.003074004430
         C           -0.830217011388    -0.345259053134    -0.021812115587    12.000000000000
         C            0.621213988612    -0.169771053134    -0.003107115587    12.000000000000
         C           -2.986468011388     0.116354946866    -0.002770115587    12.000000000000
         C           -2.756474811388    -1.243637653134    -0.169547415587    12.000000000000
         C            2.438758988612     1.190604946866    -0.284978115587    12.000000000000
         C            2.684621988612    -1.102948053134     0.255715884413    12.000000000000
         C            3.290310988612     0.122185946866    -0.025488115587    12.000000000000
         H           -3.884994011388     0.713846946866     0.067605884413     1.007825032230
         H           -3.520702011388    -2.016580053134    -0.284072115587     1.007825032230
         H            2.823972988612     2.184127946866    -0.509579115587     1.007825032230
         H            3.278280988612    -1.988384053134     0.478484884413     1.007825032230
         H            4.369524988612     0.236759946866    -0.036291115587     1.007825032230
         C           -1.505953011388     2.109290946866     0.299572884413    12.000000000000
         H           -0.808892011388     2.256103946866     1.123786884413     1.007825032230
         H           -1.088262011388     2.565762946866    -0.596636115587     1.007825032230
         H           -2.465749011388     2.566247946866     0.546102884413     1.007825032230

  Basis Set: AUG-CC-PVTZ
    Blend: AUG-CC-PVTZ
  Basis Set: (AUG-CC-PVTZ AUX)
    Blend: AUG-CC-PVTZ-JKFIT
	 Reference Energy          =    -525.5574013803893649 [Eh]
	 Singles Energy            =      -0.0000000000000000 [Eh]
	 Same-Spin Energy          =      -0.5782165033262090 [Eh]
	 Opposite-Spin Energy      =      -1.7383287430053436 [Eh]
	 Correlation Energy        =      -2.3165452463315526 [Eh]
	 Total Energy              =    -527.8739466267209082 [Eh]

	 ================> DF-SCS-MP2 Energies <==================
	-----------------------------------------------------------
	 SCS Same-Spin Scale       =       0.3333333333333333 [-]
	 SCS Opposite-Spin Scale   =       1.2000000000000000 [-]
	 SCS Same-Spin Energy      =      -0.1927388344420697 [Eh]
	 SCS Opposite-Spin Energy  =      -2.0859944916064124 [Eh]
	 SCS Correlation Energy    =      -2.2787333260484819 [Eh]
	 SCS Total Energy          =    -527.8361347064378606 [Eh]
	-----------------------------------------------------------

  Dipole Moment: [D]
     X:     1.3657      Y:     4.1067      Z:     0.4793     Total:     4.3543

*** Psi4 exiting successfully. Buy a developer a beer!
