                               Psi4 1.3.2 release

  ==> Input File <==

--------------------------------------------------------------------------
#psi4
#
memory 32 gb

molecule  {
0 1
  N       -1.7314010     0.6447010     0.0841650
  N       -1.4345640    -1.5648400    -0.1846490
  N        1.1113180     1.0210360    -0.2929590
  N        1.3650780    -1.3052570     0.2771500
  C       -0.9532747    -0.2347677    -0.0104282
  C        0.6302560    -0.2085840    -0.0077820
  C       -2.9774260     0.0775420    -0.0074450
  C       -2.7669850    -1.2782450    -0.1740670
  C        2.4478010     1.1517920    -0.2896530
  C        2.6936640    -1.1417610     0.2510410
  C        3.2993530     0.0833730    -0.0301630
  H       -3.8759520     0.6750340     0.0629310
  H       -3.5116600    -2.0553930    -0.2887470
  H        2.8330150     2.1453150    -0.5142540
  H        3.2873230    -2.0271970     0.4738100
  H        4.3785670     0.1979470    -0.0409660
  C       -1.4969110     2.0704780     0.2948980
  H       -0.7998500     2.2172910     1.1191120
  H       -1.0792200     2.5269500    -0.6013110
  H       -2.4567070     2.5274350     0.5414280
units angstrom
no_reorient  #important for SAPT in psi4, default
symmetry c1  #important for SAPT in psi4, default
}

set PROPERTIES_ORIGIN ["COM"]
properties('MP2/aug-cc-pvtz', properties = ['dipole'])
--------------------------------------------------------------------------

    Molecular point group: c1
  Charge       = 0
  Multiplicity = 1
  Basis Set: AUG-CC-PVTZ
    Blend: AUG-CC-PVTZ
  Basis Set: (AUG-CC-PVTZ AUX)
    Blend: AUG-CC-PVTZ-JKFIT

    Orbital Energies [Eh]
    ---------------------

    Doubly Occupied:

       1A    -15.635721     2A    -15.579078     3A    -15.577817
       4A    -15.532772     5A    -11.340707     6A    -11.305146
       7A    -11.304573     8A    -11.293807     9A    -11.285910
      10A    -11.252645    11A    -11.242918    12A    -11.240412
      13A     -1.401165    14A     -1.309986    15A     -1.196873
      16A     -1.174265    17A     -1.081918    18A     -1.007353
      19A     -0.997713    20A     -0.898220    21A     -0.888447
      22A     -0.816330    23A     -0.769542    24A     -0.739326
      25A     -0.702530    26A     -0.685983    27A     -0.675812
      28A     -0.635444    29A     -0.607817    30A     -0.602210
      31A     -0.592767    32A     -0.579651    33A     -0.567268
      34A     -0.558524    35A     -0.526946    36A     -0.469648
      37A     -0.433533    38A     -0.424239    39A     -0.411974
      40A     -0.388513    41A     -0.386341    42A     -0.296269

  @DF-RHF Final Energy:  -525.50149133766001

   => Energetics <=

    Nuclear Repulsion Energy =            655.2767432005556429
    One-Electron Energy =               -2012.7202374449761919
    Two-Electron Energy =                 831.9420029067604219
    Total Energy =                       -525.5014913376600134
  Basis Set: (AUG-CC-PVTZ AUX)
    Blend: AUG-CC-PVTZ-RI
    Molecular point group: c1

    Geometry (in Angstrom), charge = 0, multiplicity = 1:

       Center              X                  Y                   Z               Mass
    ------------   -----------------  -----------------  -----------------  -----------------
         N           -1.729074440536     0.672006091213     0.087624395885    14.003074004430
         N           -1.432237440536    -1.537534908787    -0.181189604115    14.003074004430
         N            1.113644559464     1.048341091213    -0.289499604115    14.003074004430
         N            1.367404559464    -1.277951908787     0.280609395885    14.003074004430
         C           -0.950948140536    -0.207462608787    -0.006968804115    12.000000000000
         C            0.632582559464    -0.181278908787    -0.004322604115    12.000000000000
         C           -2.975099440536     0.104847091213    -0.003985604115    12.000000000000
         C           -2.764658440536    -1.250939908787    -0.170607604115    12.000000000000
         C            2.450127559464     1.179097091213    -0.286193604115    12.000000000000
         C            2.695990559464    -1.114455908787     0.254500395885    12.000000000000
         C            3.301679559464     0.110678091213    -0.026703604115    12.000000000000
         H           -3.873625440536     0.702339091213     0.066390395885     1.007825032230
         H           -3.509333440536    -2.028087908787    -0.285287604115     1.007825032230
         H            2.835341559464     2.172620091213    -0.510794604115     1.007825032230
         H            3.289649559464    -1.999891908787     0.477269395885     1.007825032230
         H            4.380893559464     0.225252091213    -0.037506604115     1.007825032230
         C           -1.494584440536     2.097783091213     0.298357395885    12.000000000000
         H           -0.797523440536     2.244596091213     1.122571395885     1.007825032230
         H           -1.076893440536     2.554255091213    -0.597851604115     1.007825032230
         H           -2.454380440536     2.554740091213     0.544887395885     1.007825032230

  Basis Set: AUG-CC-PVTZ
    Blend: AUG-CC-PVTZ
  Basis Set: (AUG-CC-PVTZ AUX)
    Blend: AUG-CC-PVTZ-JKFIT
	 Reference Energy          =    -525.5014913376600134 [Eh]
	 Singles Energy            =      -0.0000000000000000 [Eh]
	 Same-Spin Energy          =      -0.5769093555231968 [Eh]
	 Opposite-Spin Energy      =      -1.7369651105732684 [Eh]
	 Correlation Energy        =      -2.3138744660964652 [Eh]
	 Total Energy              =    -527.8153658037564355 [Eh]

	 ================> DF-SCS-MP2 Energies <==================
	-----------------------------------------------------------
	 SCS Same-Spin Scale       =       0.3333333333333333 [-]
	 SCS Opposite-Spin Scale   =       1.2000000000000000 [-]
	 SCS Same-Spin Energy      =      -0.1923031185077322 [Eh]
	 SCS Opposite-Spin Energy  =      -2.0843581326879219 [Eh]
	 SCS Correlation Energy    =      -2.2766612511956543 [Eh]
	 SCS Total Energy          =    -527.7781525888556189 [Eh]
	-----------------------------------------------------------

  Dipole Moment: [D]
     X:     1.6278      Y:     4.5009      Z:     0.5521     Total:     4.8180

*** Psi4 exiting successfully. Buy a developer a beer!
