                               Psi4 1.3.2 release

  ==> Input File <==

--------------------------------------------------------------------------
#psi4
#
memory 32 gb

molecule  {
0 1
  N       -1.7314010     0.6447010     0.0841650
  N       -1.4345640    -1.5648400    -0.1846490
  N        1.1113180     1.0210360    -0.2929590
  N        1.3650780    -1.3052570     0.2771500
  C       -0.8211750    -0.3840720    -0.0264870
  C        0.6302560    -0.2085840    -0.0077820
  C       -2.9872615     0.0991545    -0.0043410
  C       -2.7669850    -1.2782450    -0.1740670
  C        2.4478010     1.1517920    -0.2896530
  C        2.6936640    -1.1417610     0.2510410
  C        3.2993530     0.0833730    -0.0301630
  H       -3.8759520     0.6750340     0.0629310
  H       -3.5116600    -2.0553930    -0.2887470
  H        2.8330150     2.1453150    -0.5142540
  H        3.2873230    -2.0271970     0.4738100
  H        4.3785670     0.1979470    -0.0409660
  C       -1.4969110     2.0704780     0.2948980
  H       -0.7998500     2.2172910     1.1191120
  H       -1.0792200     2.5269500    -0.6013110
  H       -2.4567070     2.5274350     0.5414280
units angstrom
no_reorient  #important for SAPT in psi4, default
symmetry c1  #important for SAPT in psi4, default
}

set PROPERTIES_ORIGIN ["COM"]
properties('MP2/aug-cc-pvtz', properties = ['dipole'])
--------------------------------------------------------------------------

    Molecular point group: c1
  Charge       = 0
  Multiplicity = 1
  Basis Set: AUG-CC-PVTZ
    Blend: AUG-CC-PVTZ
  Basis Set: (AUG-CC-PVTZ AUX)
    Blend: AUG-CC-PVTZ-JKFIT

    Orbital Energies [Eh]
    ---------------------

    Doubly Occupied:

       1A    -15.627622     2A    -15.579812     3A    -15.574787
       4A    -15.547673     5A    -11.333469     6A    -11.305751
       7A    -11.302915     8A    -11.295428     9A    -11.273198
      10A    -11.261159    11A    -11.251642    12A    -11.243596
      13A     -1.344108    14A     -1.307828    15A     -1.197905
      16A     -1.178409    17A     -1.088590    18A     -1.006281
      19A     -0.968532    20A     -0.899203    21A     -0.893355
      22A     -0.803883    23A     -0.784598    24A     -0.726265
      25A     -0.702779    26A     -0.686863    27A     -0.646202
      28A     -0.642279    29A     -0.608976    30A     -0.592518
      31A     -0.586066    32A     -0.580479    33A     -0.569713
      34A     -0.555289    35A     -0.542334    36A     -0.481149
      37A     -0.436578    38A     -0.424191    39A     -0.412401
      40A     -0.396722    41A     -0.378103    42A     -0.295930

  @DF-RHF Final Energy:  -525.55614854588566

   => Energetics <=

    Nuclear Repulsion Energy =            653.7754133829427019
    One-Electron Energy =               -2009.9939560432667349
    Two-Electron Energy =                 830.6623941144384844
    Total Energy =                       -525.5561485458856623
  Basis Set: (AUG-CC-PVTZ AUX)
    Blend: AUG-CC-PVTZ-RI
    Molecular point group: c1

    Geometry (in Angstrom), charge = 0, multiplicity = 1:

       Center              X                  Y                   Z               Mass
    ------------   -----------------  -----------------  -----------------  -----------------
         N           -1.738239965138     0.681578495354     0.088595551286    14.003074004430
         N           -1.441402965138    -1.527962504646    -0.180218448714    14.003074004430
         N            1.104479034862     1.057913495354    -0.288528448714    14.003074004430
         N            1.358239034862    -1.268379504646     0.281580551286    14.003074004430
         C           -0.828013965138    -0.347194504646    -0.022056448714    12.000000000000
         C            0.623417034862    -0.171706504646    -0.003351448714    12.000000000000
         C           -2.994100465138     0.136031995354     0.000089551286    12.000000000000
         C           -2.773823965138    -1.241367504646    -0.169636448714    12.000000000000
         C            2.440962034862     1.188669495354    -0.285222448714    12.000000000000
         C            2.686825034862    -1.104883504646     0.255471551286    12.000000000000
         C            3.292514034862     0.120250495354    -0.025732448714    12.000000000000
         H           -3.882790965138     0.711911495354     0.067361551286     1.007825032230
         H           -3.518498965138    -2.018515504646    -0.284316448714     1.007825032230
         H            2.826176034862     2.182192495354    -0.509823448714     1.007825032230
         H            3.280484034862    -1.990319504646     0.478240551286     1.007825032230
         H            4.371728034862     0.234824495354    -0.036535448714     1.007825032230
         C           -1.503749965138     2.107355495354     0.299328551286    12.000000000000
         H           -0.806688965138     2.254168495354     1.123542551286     1.007825032230
         H           -1.086058965138     2.563827495354    -0.596880448714     1.007825032230
         H           -2.463545965138     2.564312495354     0.545858551286     1.007825032230

  Basis Set: AUG-CC-PVTZ
    Blend: AUG-CC-PVTZ
  Basis Set: (AUG-CC-PVTZ AUX)
    Blend: AUG-CC-PVTZ-JKFIT
	 Reference Energy          =    -525.5561485458856623 [Eh]
	 Singles Energy            =      -0.0000000000000000 [Eh]
	 Same-Spin Energy          =      -0.5783015619689089 [Eh]
	 Opposite-Spin Energy      =      -1.7389305817463465 [Eh]
	 Correlation Energy        =      -2.3172321437152554 [Eh]
	 Total Energy              =    -527.8733806896009355 [Eh]

	 ================> DF-SCS-MP2 Energies <==================
	-----------------------------------------------------------
	 SCS Same-Spin Scale       =       0.3333333333333333 [-]
	 SCS Opposite-Spin Scale   =       1.2000000000000000 [-]
	 SCS Same-Spin Energy      =      -0.1927671873229696 [Eh]
	 SCS Opposite-Spin Energy  =      -2.0867166980956156 [Eh]
	 SCS Correlation Energy    =      -2.2794838854185850 [Eh]
	 SCS Total Energy          =    -527.8356324313042478 [Eh]
	-----------------------------------------------------------

  Dipole Moment: [D]
     X:     1.3832      Y:     4.1122      Z:     0.4794     Total:     4.3650

*** Psi4 exiting successfully. Buy a developer a beer!
