                               Psi4 1.3.2 release

  ==> Input File <==

--------------------------------------------------------------------------
#psi4
#
memory 32 gb

molecule  {
0 1
  N       -1.7314010     0.6447010     0.0841650
  N       -1.4254102    -1.5185608    -0.1785142
  N        1.1113180     1.0210360    -0.2929590
  N        1.3650780    -1.3052570     0.2771500
  C       -0.8211750    -0.3840720    -0.0264870
  C        0.6302560    -0.2085840    -0.0077820
  C       -2.9774260     0.0775420    -0.0074450
  C       -2.7669850    -1.2782450    -0.1740670
  C        2.4478010     1.1517920    -0.2896530
  C        2.6936640    -1.1417610     0.2510410
  C        3.2993530     0.0833730    -0.0301630
  H       -3.8759520     0.6750340     0.0629310
  H       -3.5116600    -2.0553930    -0.2887470
  H        2.8330150     2.1453150    -0.5142540
  H        3.2873230    -2.0271970     0.4738100
  H        4.3785670     0.1979470    -0.0409660
  C       -1.4969110     2.0704780     0.2948980
  H       -0.7998500     2.2172910     1.1191120
  H       -1.0792200     2.5269500    -0.6013110
  H       -2.4567070     2.5274350     0.5414280
units angstrom
no_reorient  #important for SAPT in psi4, default
symmetry c1  #important for SAPT in psi4, default
}

set PROPERTIES_ORIGIN ["COM"]
properties('MP2/aug-cc-pvtz', properties = ['dipole'])
--------------------------------------------------------------------------

    Molecular point group: c1
  Charge       = 0
  Multiplicity = 1
  Basis Set: AUG-CC-PVTZ
    Blend: AUG-CC-PVTZ
  Basis Set: (AUG-CC-PVTZ AUX)
    Blend: AUG-CC-PVTZ-JKFIT

    Orbital Energies [Eh]
    ---------------------

    Doubly Occupied:

       1A    -15.619948     2A    -15.580024     3A    -15.575060
       4A    -15.539281     5A    -11.332875     6A    -11.305767
       7A    -11.303001     8A    -11.289609     9A    -11.270985
      10A    -11.260401    11A    -11.251992    12A    -11.239355
      13A     -1.349598    14A     -1.308526    15A     -1.198735
      16A     -1.181050    17A     -1.089074    18A     -1.010741
      19A     -0.964839    20A     -0.899469    21A     -0.894619
      22A     -0.805856    23A     -0.783939    24A     -0.725698
      25A     -0.702672    26A     -0.686559    27A     -0.646091
      28A     -0.640131    29A     -0.608174    30A     -0.592362
      31A     -0.586616    32A     -0.579013    33A     -0.573301
      34A     -0.558454    35A     -0.545289    36A     -0.481280
      37A     -0.431367    38A     -0.424016    39A     -0.411153
      40A     -0.397850    41A     -0.376738    42A     -0.301654

  @DF-RHF Final Energy:  -525.55995061865349

   => Energetics <=

    Nuclear Repulsion Energy =            655.4838395159561060
    One-Electron Energy =               -2013.4412628392130955
    Two-Electron Energy =                 832.3974727046035014
    Total Energy =                       -525.5599506186534882
  Basis Set: (AUG-CC-PVTZ AUX)
    Blend: AUG-CC-PVTZ-RI
    Molecular point group: c1

    Geometry (in Angstrom), charge = 0, multiplicity = 1:

       Center              X                  Y                   Z               Mass
    ------------   -----------------  -----------------  -----------------  -----------------
         N           -1.739778041030     0.679150250380     0.088291580710    14.003074004430
         N           -1.433787241030    -1.484111549620    -0.174387619290    14.003074004430
         N            1.102940958970     1.055485250380    -0.288832419290    14.003074004430
         N            1.356700958970    -1.270807749620     0.281276580710    14.003074004430
         C           -0.829552041030    -0.349622749620    -0.022360419290    12.000000000000
         C            0.621878958970    -0.174134749620    -0.003655419290    12.000000000000
         C           -2.985803041030     0.111991250380    -0.003318419290    12.000000000000
         C           -2.775362041030    -1.243795749620    -0.169940419290    12.000000000000
         C            2.439423958970     1.186241250380    -0.285526419290    12.000000000000
         C            2.685286958970    -1.107311749620     0.255167580710    12.000000000000
         C            3.290975958970     0.117822250380    -0.026036419290    12.000000000000
         H           -3.884329041030     0.709483250380     0.067057580710     1.007825032230
         H           -3.520037041030    -2.020943749620    -0.284620419290     1.007825032230
         H            2.824637958970     2.179764250380    -0.510127419290     1.007825032230
         H            3.278945958970    -1.992747749620     0.477936580710     1.007825032230
         H            4.370189958970     0.232396250380    -0.036839419290     1.007825032230
         C           -1.505288041030     2.104927250380     0.299024580710    12.000000000000
         H           -0.808227041030     2.251740250380     1.123238580710     1.007825032230
         H           -1.087597041030     2.561399250380    -0.597184419290     1.007825032230
         H           -2.465084041030     2.561884250380     0.545554580710     1.007825032230

  Basis Set: AUG-CC-PVTZ
    Blend: AUG-CC-PVTZ
  Basis Set: (AUG-CC-PVTZ AUX)
    Blend: AUG-CC-PVTZ-JKFIT
	 Reference Energy          =    -525.5599506186534882 [Eh]
	 Singles Energy            =      -0.0000000000000000 [Eh]
	 Same-Spin Energy          =      -0.5769240785714277 [Eh]
	 Opposite-Spin Energy      =      -1.7361155704654223 [Eh]
	 Correlation Energy        =      -2.3130396490368499 [Eh]
	 Total Energy              =    -527.8729902676902839 [Eh]

	 ================> DF-SCS-MP2 Energies <==================
	-----------------------------------------------------------
	 SCS Same-Spin Scale       =       0.3333333333333333 [-]
	 SCS Opposite-Spin Scale   =       1.2000000000000000 [-]
	 SCS Same-Spin Energy      =      -0.1923080261904759 [Eh]
	 SCS Opposite-Spin Energy  =      -2.0833386845585067 [Eh]
	 SCS Correlation Energy    =      -2.2756467107489824 [Eh]
	 SCS Total Energy          =    -527.8355973294025034 [Eh]
	-----------------------------------------------------------

  Dipole Moment: [D]
     X:     1.4555      Y:     3.9838      Z:     0.4618     Total:     4.2664

*** Psi4 exiting successfully. Buy a developer a beer!
