                               Psi4 1.3.2 release

  ==> Input File <==

--------------------------------------------------------------------------
#psi4
#
memory 32 gb

molecule  {
0 1
  N       -1.7314010     0.6447010     0.0841650
  N       -1.4345640    -1.5648400    -0.1846490
  N        1.1113180     1.0210360    -0.2929590
  N        1.3650780    -1.3052570     0.2771500
  C       -0.8211750    -0.3840720    -0.0264870
  C        0.6302560    -0.2085840    -0.0077820
  C       -2.9774260     0.0775420    -0.0074450
  C       -2.7669850    -1.2782450    -0.1740670
  C        2.4478010     1.1517920    -0.2896530
  C        2.6936640    -1.1417610     0.2510410
  C        3.2993530     0.0833730    -0.0301630
  H       -3.8759520     0.6750340     0.0629310
  H       -3.5116600    -2.0553930    -0.2887470
  H        2.8330150     2.1453150    -0.5142540
  H        3.2873230    -2.0271970     0.4738100
  H        4.3785670     0.1979470    -0.0409660
  C       -1.4647939     2.2657609     0.3237612
  H       -0.7998500     2.2172910     1.1191120
  H       -1.0792200     2.5269500    -0.6013110
  H       -2.4567070     2.5274350     0.5414280
units angstrom
no_reorient  #important for SAPT in psi4, default
symmetry c1  #important for SAPT in psi4, default
}

set PROPERTIES_ORIGIN ["COM"]
properties('MP2/aug-cc-pvtz', properties = ['dipole'])
--------------------------------------------------------------------------

    Molecular point group: c1
  Charge       = 0
  Multiplicity = 1
  Basis Set: AUG-CC-PVTZ
    Blend: AUG-CC-PVTZ
  Basis Set: (AUG-CC-PVTZ AUX)
    Blend: AUG-CC-PVTZ-JKFIT

    Orbital Energies [Eh]
    ---------------------

    Doubly Occupied:

       1A    -15.616311     2A    -15.578571     3A    -15.572340
       4A    -15.539635     5A    -11.330754     6A    -11.304875
       7A    -11.301459     8A    -11.287141     9A    -11.286887
      10A    -11.253537    11A    -11.249906    12A    -11.234052
      13A     -1.329962    14A     -1.302299    15A     -1.194805
      16A     -1.153691    17A     -1.086151    18A     -1.001397
      19A     -0.977897    20A     -0.897331    21A     -0.891436
      22A     -0.791302    23A     -0.779144    24A     -0.711391
      25A     -0.700176    26A     -0.678634    27A     -0.653250
      28A     -0.639285    29A     -0.620983    30A     -0.595939
      31A     -0.590652    32A     -0.577480    33A     -0.559104
      34A     -0.554488    35A     -0.535017    36A     -0.481250
      37A     -0.429912    38A     -0.423161    39A     -0.410246
      40A     -0.393434    41A     -0.374736    42A     -0.292599

  @DF-RHF Final Energy:  -525.53052318064260

   => Energetics <=

    Nuclear Repulsion Energy =            650.3751200906501708
    One-Electron Energy =               -2003.4460407716317150
    Two-Electron Energy =                 827.5403975003389405
    Total Energy =                       -525.5305231806426036
  Basis Set: (AUG-CC-PVTZ AUX)
    Blend: AUG-CC-PVTZ-RI
    Molecular point group: c1

    Geometry (in Angstrom), charge = 0, multiplicity = 1:

       Center              X                  Y                   Z               Mass
    ------------   -----------------  -----------------  -----------------  -----------------
         N           -1.741384937971     0.668559309658     0.086664515207    14.003074004430
         N           -1.444547937971    -1.540981690342    -0.182149484793    14.003074004430
         N            1.101334062029     1.044894309658    -0.290459484793    14.003074004430
         N            1.355094062029    -1.281398690342     0.279649515207    14.003074004430
         C           -0.831158937971    -0.360213690342    -0.023987484793    12.000000000000
         C            0.620272062029    -0.184725690342    -0.005282484793    12.000000000000
         C           -2.987409937971     0.101400309658    -0.004945484793    12.000000000000
         C           -2.776968937971    -1.254386690342    -0.171567484793    12.000000000000
         C            2.437817062029     1.175650309658    -0.287153484793    12.000000000000
         C            2.683680062029    -1.117902690342     0.253540515207    12.000000000000
         C            3.289369062029     0.107231309658    -0.027663484793    12.000000000000
         H           -3.885935937971     0.698892309658     0.065430515207     1.007825032230
         H           -3.521643937971    -2.031534690342    -0.286247484793     1.007825032230
         H            2.823031062029     2.169173309658    -0.511754484793     1.007825032230
         H            3.277339062029    -2.003338690342     0.476309515207     1.007825032230
         H            4.368583062029     0.221805309658    -0.038466484793     1.007825032230
         C           -1.474777837971     2.289619209658     0.326260715207    12.000000000000
         H           -0.809833937971     2.241149309658     1.121611515207     1.007825032230
         H           -1.089203937971     2.550808309658    -0.598811484793     1.007825032230
         H           -2.466690937971     2.551293309658     0.543927515207     1.007825032230

  Basis Set: AUG-CC-PVTZ
    Blend: AUG-CC-PVTZ
  Basis Set: (AUG-CC-PVTZ AUX)
    Blend: AUG-CC-PVTZ-JKFIT
	 Reference Energy          =    -525.5305231806426036 [Eh]
	 Singles Energy            =      -0.0000000000000000 [Eh]
	 Same-Spin Energy          =      -0.5780844397339517 [Eh]
	 Opposite-Spin Energy      =      -1.7399728671188648 [Eh]
	 Correlation Energy        =      -2.3180573068528165 [Eh]
	 Total Energy              =    -527.8485804874953828 [Eh]

	 ================> DF-SCS-MP2 Energies <==================
	-----------------------------------------------------------
	 SCS Same-Spin Scale       =       0.3333333333333333 [-]
	 SCS Opposite-Spin Scale   =       1.2000000000000000 [-]
	 SCS Same-Spin Energy      =      -0.1926948132446506 [Eh]
	 SCS Opposite-Spin Energy  =      -2.0879674405426378 [Eh]
	 SCS Correlation Energy    =      -2.2806622537872885 [Eh]
	 SCS Total Energy          =    -527.8111854344299445 [Eh]
	-----------------------------------------------------------

  Dipole Moment: [D]
     X:     1.3642      Y:     4.5937      Z:     0.5544     Total:     4.8239

*** Psi4 exiting successfully. Buy a developer a beer!
