                               Psi4 1.4a3.dev225

  ==> Input File <==

--------------------------------------------------------------------------
#psi4
#
memory 32 gb

molecule  {
0 1
  N       -1.7314010     0.6447010     0.0841650
  N       -1.4345640    -1.5648400    -0.1846490
  N        1.1113180     1.0210360    -0.2929590
  N        1.3650780    -1.3052570     0.2771500
  C       -0.8211750    -0.3840720    -0.0264870
  C        0.6302560    -0.2085840    -0.0077820
  C       -2.9774260     0.0775420    -0.0074450
  C       -2.7865372    -1.2740394    -0.1739117
  C        2.4478010     1.1517920    -0.2896530
  C        2.6936640    -1.1417610     0.2510410
  C        3.2993530     0.0833730    -0.0301630
  H       -3.8759520     0.6750340     0.0629310
  H       -3.5116600    -2.0553930    -0.2887470
  H        2.8330150     2.1453150    -0.5142540
  H        3.2873230    -2.0271970     0.4738100
  H        4.3785670     0.1979470    -0.0409660
  C       -1.4969110     2.0704780     0.2948980
  H       -0.7998500     2.2172910     1.1191120
  H       -1.0792200     2.5269500    -0.6013110
  H       -2.4567070     2.5274350     0.5414280
units angstrom
no_reorient  #important for SAPT in psi4, default
symmetry c1  #important for SAPT in psi4, default
}

set PROPERTIES_ORIGIN ["COM"]
properties('MP2/aug-cc-pvtz', properties = ['dipole'])
--------------------------------------------------------------------------

    Molecular point group: c1
  Charge       = 0
  Multiplicity = 1
  Basis Set: AUG-CC-PVTZ
    Blend: AUG-CC-PVTZ
  Basis Set: (AUG-CC-PVTZ AUX)
    Blend: AUG-CC-PVTZ-JKFIT

    Orbital Energies [Eh]
    ---------------------

    Doubly Occupied:

       1A    -15.624275     2A    -15.580443     3A    -15.575300
       4A    -15.547086     5A    -11.333686     6A    -11.306072
       7A    -11.303194     8A    -11.295963     9A    -11.273047
      10A    -11.260057    11A    -11.252247    12A    -11.239868
      13A     -1.343071    14A     -1.307997    15A     -1.197759
      16A     -1.173787    17A     -1.089151    18A     -1.009157
      19A     -0.966973    20A     -0.899591    21A     -0.894888
      22A     -0.803175    23A     -0.783828    24A     -0.726114
      25A     -0.703044    26A     -0.686036    27A     -0.645752
      28A     -0.639859    29A     -0.607125    30A     -0.593746
      31A     -0.586550    32A     -0.579445    33A     -0.569443
      34A     -0.556827    35A     -0.542048    36A     -0.481402
      37A     -0.435563    38A     -0.424404    39A     -0.412486
      40A     -0.396834    41A     -0.374836    42A     -0.300964

  @DF-RHF Final Energy:  -525.55759898681742

   => Energetics <=

    Nuclear Repulsion Energy =            653.7907473668528837
    One-Electron Energy =               -2010.0505066952578090
    Two-Electron Energy =                 830.7021603415875006
    Total Energy =                       -525.5575989868174247
  Basis Set: (AUG-CC-PVTZ AUX)
    Blend: AUG-CC-PVTZ-RI
    Molecular point group: c1

    Geometry (in Angstrom), charge = 0, multiplicity = 1:

       Center              X                  Y                   Z               Mass
    ------------   -----------------  -----------------  -----------------  -----------------
         N           -1.737511553609     0.682883402025     0.088816600312    14.003074004430
         N           -1.440674553609    -1.526657597975    -0.179997399688    14.003074004430
         N            1.105207446391     1.059218402025    -0.288307399688    14.003074004430
         N            1.358967446391    -1.267074597975     0.281801600312    14.003074004430
         C           -0.827285553609    -0.345889597975    -0.021835399688    12.000000000000
         C            0.624145446391    -0.170401597975    -0.003130399688    12.000000000000
         C           -2.983536553609     0.115724402025    -0.002793399688    12.000000000000
         C           -2.792647753609    -1.235856997975    -0.169260099688    12.000000000000
         C            2.441690446391     1.189974402025    -0.285001399688    12.000000000000
         C            2.687553446391    -1.103578597975     0.255692600312    12.000000000000
         C            3.293242446391     0.121555402025    -0.025511399688    12.000000000000
         H           -3.882062553609     0.713216402025     0.067582600312     1.007825032230
         H           -3.517770553609    -2.017210597975    -0.284095399688     1.007825032230
         H            2.826904446391     2.183497402025    -0.509602399688     1.007825032230
         H            3.281212446391    -1.989014597975     0.478461600312     1.007825032230
         H            4.372456446391     0.236129402025    -0.036314399688     1.007825032230
         C           -1.503021553609     2.108660402025     0.299549600312    12.000000000000
         H           -0.805960553609     2.255473402025     1.123763600312     1.007825032230
         H           -1.085330553609     2.565132402025    -0.596659399688     1.007825032230
         H           -2.462817553609     2.565617402025     0.546079600312     1.007825032230

  Basis Set: AUG-CC-PVTZ
    Blend: AUG-CC-PVTZ
  Basis Set: (AUG-CC-PVTZ AUX)
    Blend: AUG-CC-PVTZ-JKFIT
	 Reference Energy          =    -525.5575989868174247 [Eh]
	 Singles Energy            =      -0.0000000000000000 [Eh]
	 Same-Spin Energy          =      -0.5777313656363785 [Eh]
	 Opposite-Spin Energy      =      -1.7383738478832689 [Eh]
	 Correlation Energy        =      -2.3161052135196476 [Eh]
	 Total Energy              =    -527.8737042003371016 [Eh]

	 ================> DF-SCS-MP2 Energies <==================
	-----------------------------------------------------------
	 SCS Same-Spin Scale       =       0.3333333333333333 [-]
	 SCS Opposite-Spin Scale   =       1.2000000000000000 [-]
	 SCS Same-Spin Energy      =      -0.1925771218787928 [Eh]
	 SCS Opposite-Spin Energy  =      -2.0860486174599226 [Eh]
	 SCS Correlation Energy    =      -2.2786257393387155 [Eh]
	 SCS Total Energy          =    -527.8362247261561606 [Eh]
	-----------------------------------------------------------

  Dipole Moment: [D]
     X:     1.4196      Y:     4.1089      Z:     0.4800     Total:     4.3736

*** Psi4 exiting successfully. Buy a developer a beer!
