                               Psi4 1.3.2 release

  ==> Input File <==

--------------------------------------------------------------------------
#psi4
#
memory 32 gb

molecule  {
0 1
  N       -1.7669573     0.6124893     0.0807072
  N       -1.4345640    -1.5648400    -0.1846490
  N        1.1113180     1.0210360    -0.2929590
  N        1.3650780    -1.3052570     0.2771500
  C       -0.8211750    -0.3840720    -0.0264870
  C        0.6302560    -0.2085840    -0.0077820
  C       -2.9774260     0.0775420    -0.0074450
  C       -2.7669850    -1.2782450    -0.1740670
  C        2.4478010     1.1517920    -0.2896530
  C        2.6936640    -1.1417610     0.2510410
  C        3.2993530     0.0833730    -0.0301630
  H       -3.8759520     0.6750340     0.0629310
  H       -3.5116600    -2.0553930    -0.2887470
  H        2.8330150     2.1453150    -0.5142540
  H        3.2873230    -2.0271970     0.4738100
  H        4.3785670     0.1979470    -0.0409660
  C       -1.4969110     2.0704780     0.2948980
  H       -0.7998500     2.2172910     1.1191120
  H       -1.0792200     2.5269500    -0.6013110
  H       -2.4567070     2.5274350     0.5414280
units angstrom
no_reorient  #important for SAPT in psi4, default
symmetry c1  #important for SAPT in psi4, default
}

set PROPERTIES_ORIGIN ["COM"]
properties('MP2/aug-cc-pvtz', properties = ['dipole'])
--------------------------------------------------------------------------

    Molecular point group: c1
  Charge       = 0
  Multiplicity = 1
  Basis Set: AUG-CC-PVTZ
    Blend: AUG-CC-PVTZ
  Basis Set: (AUG-CC-PVTZ AUX)
    Blend: AUG-CC-PVTZ-JKFIT

    Orbital Energies [Eh]
    ---------------------

    Doubly Occupied:

       1A    -15.627141     2A    -15.579034     3A    -15.574104
       4A    -15.546089     5A    -11.333850     6A    -11.305312
       7A    -11.302523     8A    -11.290755     9A    -11.277748
      10A    -11.257633    11A    -11.250874    12A    -11.236391
      13A     -1.351307    14A     -1.308980    15A     -1.196817
      16A     -1.174870    17A     -1.088736    18A     -1.011516
      19A     -0.965911    20A     -0.898784    21A     -0.893762
      22A     -0.805341    23A     -0.783520    24A     -0.727196
      25A     -0.702085    26A     -0.687604    27A     -0.646347
      28A     -0.641983    29A     -0.606438    30A     -0.591570
      31A     -0.582955    32A     -0.578031    33A     -0.570948
      34A     -0.556611    35A     -0.548135    36A     -0.481160
      37A     -0.435071    38A     -0.423824    39A     -0.411735
      40A     -0.399558    41A     -0.377797    42A     -0.295812

  @DF-RHF Final Energy:  -525.55549194985497

   => Energetics <=

    Nuclear Repulsion Energy =            654.2760608201487003
    One-Electron Energy =               -2011.0113846656556689
    Two-Electron Energy =                 831.1798318956521143
    Total Energy =                       -525.5554919498549680
  Basis Set: (AUG-CC-PVTZ AUX)
    Blend: AUG-CC-PVTZ-RI
    Molecular point group: c1

    Geometry (in Angstrom), charge = 0, multiplicity = 1:

       Center              X                  Y                   Z               Mass
    ------------   -----------------  -----------------  -----------------  -----------------
         N           -1.771423179107     0.653804798036     0.085672924703    14.003074004430
         N           -1.439029879107    -1.523524501964    -0.179683275297    14.003074004430
         N            1.106852120893     1.062351498036    -0.287993275297    14.003074004430
         N            1.360612120893    -1.263941501964     0.282115724703    14.003074004430
         C           -0.825640879107    -0.342756501964    -0.021521275297    12.000000000000
         C            0.625790120893    -0.167268501964    -0.002816275297    12.000000000000
         C           -2.981891879107     0.118857498036    -0.002479275297    12.000000000000
         C           -2.771450879107    -1.236929501964    -0.169101275297    12.000000000000
         C            2.443335120893     1.193107498036    -0.284687275297    12.000000000000
         C            2.689198120893    -1.100445501964     0.256006724703    12.000000000000
         C            3.294887120893     0.124688498036    -0.025197275297    12.000000000000
         H           -3.880417879107     0.716349498036     0.067896724703     1.007825032230
         H           -3.516125879107    -2.014077501964    -0.283781275297     1.007825032230
         H            2.828549120893     2.186630498036    -0.509288275297     1.007825032230
         H            3.282857120893    -1.985881501964     0.478775724703     1.007825032230
         H            4.374101120893     0.239262498036    -0.036000275297     1.007825032230
         C           -1.501376879107     2.111793498036     0.299863724703    12.000000000000
         H           -0.804315879107     2.258606498036     1.124077724703     1.007825032230
         H           -1.083685879107     2.568265498036    -0.596345275297     1.007825032230
         H           -2.461172879107     2.568750498036     0.546393724703     1.007825032230

  Basis Set: AUG-CC-PVTZ
    Blend: AUG-CC-PVTZ
  Basis Set: (AUG-CC-PVTZ AUX)
    Blend: AUG-CC-PVTZ-JKFIT
	 Reference Energy          =    -525.5554919498549680 [Eh]
	 Singles Energy            =      -0.0000000000000000 [Eh]
	 Same-Spin Energy          =      -0.5780384523746072 [Eh]
	 Opposite-Spin Energy      =      -1.7378782592643869 [Eh]
	 Correlation Energy        =      -2.3159167116389940 [Eh]
	 Total Energy              =    -527.8714086614940015 [Eh]

	 ================> DF-SCS-MP2 Energies <==================
	-----------------------------------------------------------
	 SCS Same-Spin Scale       =       0.3333333333333333 [-]
	 SCS Opposite-Spin Scale   =       1.2000000000000000 [-]
	 SCS Same-Spin Energy      =      -0.1926794841248690 [Eh]
	 SCS Opposite-Spin Energy  =      -2.0854539111172641 [Eh]
	 SCS Correlation Energy    =      -2.2781333952421332 [Eh]
	 SCS Total Energy          =    -527.8336253450970617 [Eh]
	-----------------------------------------------------------

  Dipole Moment: [D]
     X:     1.3755      Y:     4.2388      Z:     0.4954     Total:     4.4838

*** Psi4 exiting successfully. Buy a developer a beer!
