                               Psi4 1.3.2 release

  ==> Input File <==

--------------------------------------------------------------------------
#psi4
#
memory 32 gb

molecule  {
0 1
  N       -1.7472314     0.6503632     0.0650120
  N       -1.4345640    -1.5648400    -0.1846490
  N        1.1113180     1.0210360    -0.2929590
  N        1.3650780    -1.3052570     0.2771500
  C       -0.8211750    -0.3840720    -0.0264870
  C        0.6302560    -0.2085840    -0.0077820
  C       -2.9774260     0.0775420    -0.0074450
  C       -2.7669850    -1.2782450    -0.1740670
  C        2.4478010     1.1517920    -0.2896530
  C        2.6936640    -1.1417610     0.2510410
  C        3.2993530     0.0833730    -0.0301630
  H       -3.8759520     0.6750340     0.0629310
  H       -3.5116600    -2.0553930    -0.2887470
  H        2.8330150     2.1453150    -0.5142540
  H        3.2873230    -2.0271970     0.4738100
  H        4.3785670     0.1979470    -0.0409660
  C       -1.4969110     2.0704780     0.2948980
  H       -0.7998500     2.2172910     1.1191120
  H       -1.0792200     2.5269500    -0.6013110
  H       -2.4567070     2.5274350     0.5414280
units angstrom
no_reorient  #important for SAPT in psi4, default
symmetry c1  #important for SAPT in psi4, default
}

set PROPERTIES_ORIGIN ["COM"]
properties('MP2/aug-cc-pvtz', properties = ['dipole'])
--------------------------------------------------------------------------

    Molecular point group: c1
  Charge       = 0
  Multiplicity = 1
  Basis Set: AUG-CC-PVTZ
    Blend: AUG-CC-PVTZ
  Basis Set: (AUG-CC-PVTZ AUX)
    Blend: AUG-CC-PVTZ-JKFIT

    Orbital Energies [Eh]
    ---------------------

    Doubly Occupied:

       1A    -15.626158     2A    -15.579492     3A    -15.574518
       4A    -15.548370     5A    -11.333461     6A    -11.305547
       7A    -11.302746     8A    -11.295326     9A    -11.273457
      10A    -11.260546    11A    -11.251349    12A    -11.239552
      13A     -1.344596    14A     -1.308034    15A     -1.197715
      16A     -1.178945    17A     -1.088665    18A     -1.008921
      19A     -0.967474    20A     -0.899043    21A     -0.893181
      22A     -0.802480    23A     -0.784565    24A     -0.727301
      25A     -0.702364    26A     -0.686050    27A     -0.646298
      28A     -0.640211    29A     -0.607107    30A     -0.592845
      31A     -0.585387    32A     -0.578468    33A     -0.571137
      34A     -0.557399    35A     -0.543169    36A     -0.480892
      37A     -0.436866    38A     -0.424034    39A     -0.412283
      40A     -0.397982    41A     -0.378030    42A     -0.297204

  @DF-RHF Final Energy:  -525.55731438523549

   => Energetics <=

    Nuclear Repulsion Energy =            653.9476476992572316
    One-Electron Energy =               -2010.3515876779249538
    Two-Electron Energy =                 830.8466255934322362
    Total Energy =                       -525.5573143852354860
  Basis Set: (AUG-CC-PVTZ AUX)
    Blend: AUG-CC-PVTZ-RI
    Molecular point group: c1

    Geometry (in Angstrom), charge = 0, multiplicity = 1:

       Center              X                  Y                   Z               Mass
    ------------   -----------------  -----------------  -----------------  -----------------
         N           -1.753422866591     0.688365555020     0.071350713549    14.003074004430
         N           -1.440755466591    -1.526837644980    -0.178310286451    14.003074004430
         N            1.105126533409     1.059038355020    -0.286620286451    14.003074004430
         N            1.358886533409    -1.267254644980     0.283488713549    14.003074004430
         C           -0.827366466591    -0.346069644980    -0.020148286451    12.000000000000
         C            0.624064533409    -0.170581644980    -0.001443286451    12.000000000000
         C           -2.983617466591     0.115544355020    -0.001106286451    12.000000000000
         C           -2.773176466591    -1.240242644980    -0.167728286451    12.000000000000
         C            2.441609533409     1.189794355020    -0.283314286451    12.000000000000
         C            2.687472533409    -1.103758644980     0.257379713549    12.000000000000
         C            3.293161533409     0.121375355020    -0.023824286451    12.000000000000
         H           -3.882143466591     0.713036355020     0.069269713549     1.007825032230
         H           -3.517851466591    -2.017390644980    -0.282408286451     1.007825032230
         H            2.826823533409     2.183317355020    -0.507915286451     1.007825032230
         H            3.281131533409    -1.989194644980     0.480148713549     1.007825032230
         H            4.372375533409     0.235949355020    -0.034627286451     1.007825032230
         C           -1.503102466591     2.108480355020     0.301236713549    12.000000000000
         H           -0.806041466591     2.255293355020     1.125450713549     1.007825032230
         H           -1.085411466591     2.564952355020    -0.594972286451     1.007825032230
         H           -2.462898466591     2.565437355020     0.547766713549     1.007825032230

  Basis Set: AUG-CC-PVTZ
    Blend: AUG-CC-PVTZ
  Basis Set: (AUG-CC-PVTZ AUX)
    Blend: AUG-CC-PVTZ-JKFIT
	 Reference Energy          =    -525.5573143852354860 [Eh]
	 Singles Energy            =      -0.0000000000000000 [Eh]
	 Same-Spin Energy          =      -0.5780931530804850 [Eh]
	 Opposite-Spin Energy      =      -1.7384261723334893 [Eh]
	 Correlation Energy        =      -2.3165193254139744 [Eh]
	 Total Energy              =    -527.8738337106494782 [Eh]

	 ================> DF-SCS-MP2 Energies <==================
	-----------------------------------------------------------
	 SCS Same-Spin Scale       =       0.3333333333333333 [-]
	 SCS Opposite-Spin Scale   =       1.2000000000000000 [-]
	 SCS Same-Spin Energy      =      -0.1926977176934950 [Eh]
	 SCS Opposite-Spin Energy  =      -2.0861114068001871 [Eh]
	 SCS Correlation Energy    =      -2.2788091244936823 [Eh]
	 SCS Total Energy          =    -527.8361235097291910 [Eh]
	-----------------------------------------------------------

  Dipole Moment: [D]
     X:     1.3730      Y:     4.1072      Z:     0.4886     Total:     4.3581

*** Psi4 exiting successfully. Buy a developer a beer!
