                               Psi4 1.4a3.dev225

  ==> Input File <==

--------------------------------------------------------------------------
#psi4
#
memory 32 gb

molecule  {
0 1
  N       -1.7314010     0.6447010     0.0841650
  N       -1.4345640    -1.5648400    -0.1846490
  N        1.1113180     1.0210360    -0.2929590
  N        1.3650780    -1.3052570     0.2771500
  C       -0.8211750    -0.3840720    -0.0264870
  C        0.6302560    -0.2085840    -0.0077820
  C       -2.9774260     0.0775420    -0.0074450
  C       -2.7669850    -1.2782450    -0.1740670
  C        2.4278961     1.1498446    -0.2897022
  C        2.6936640    -1.1417610     0.2510410
  C        3.2993530     0.0833730    -0.0301630
  H       -3.8759520     0.6750340     0.0629310
  H       -3.5116600    -2.0553930    -0.2887470
  H        2.8330150     2.1453150    -0.5142540
  H        3.2873230    -2.0271970     0.4738100
  H        4.3785670     0.1979470    -0.0409660
  C       -1.4969110     2.0704780     0.2948980
  H       -0.7998500     2.2172910     1.1191120
  H       -1.0792200     2.5269500    -0.6013110
  H       -2.4567070     2.5274350     0.5414280
units angstrom
no_reorient  #important for SAPT in psi4, default
symmetry c1  #important for SAPT in psi4, default
}

set PROPERTIES_ORIGIN ["COM"]
properties('MP2/aug-cc-pvtz', properties = ['dipole'])
--------------------------------------------------------------------------

    Molecular point group: c1
  Charge       = 0
  Multiplicity = 1
  Basis Set: AUG-CC-PVTZ
    Blend: AUG-CC-PVTZ
  Basis Set: (AUG-CC-PVTZ AUX)
    Blend: AUG-CC-PVTZ-JKFIT

    Orbital Energies [Eh]
    ---------------------

    Doubly Occupied:

       1A    -15.626196     2A    -15.579339     3A    -15.574657
       4A    -15.546835     5A    -11.333999     6A    -11.305931
       7A    -11.301782     8A    -11.295690     9A    -11.273832
      10A    -11.260279    11A    -11.251973    12A    -11.240685
      13A     -1.345506    14A     -1.310818    15A     -1.201491
      16A     -1.178527    17A     -1.087256    18A     -1.007916
      19A     -0.969026    20A     -0.898327    21A     -0.894632
      22A     -0.802528    23A     -0.784631    24A     -0.726934
      25A     -0.704042    26A     -0.685391    27A     -0.646715
      28A     -0.640162    29A     -0.606759    30A     -0.592558
      31A     -0.587319    32A     -0.580327    33A     -0.569254
      34A     -0.556845    35A     -0.543828    36A     -0.482253
      37A     -0.436316    38A     -0.427118    39A     -0.411639
      40A     -0.395311    41A     -0.377710    42A     -0.298430

  @DF-RHF Final Energy:  -525.55810491343539

   => Energetics <=

    Nuclear Repulsion Energy =            654.4432066367371590
    One-Electron Energy =               -2011.3210945581890883
    Two-Electron Energy =                 831.3197830080165431
    Total Energy =                       -525.5581049134353862
  Basis Set: (AUG-CC-PVTZ AUX)
    Blend: AUG-CC-PVTZ-RI
    Molecular point group: c1

    Geometry (in Angstrom), charge = 0, multiplicity = 1:

       Center              X                  Y                   Z               Mass
    ------------   -----------------  -----------------  -----------------  -----------------
         N           -1.737485113485     0.683344661109     0.088831930636    14.003074004430
         N           -1.440648113485    -1.526196338891    -0.179982069364    14.003074004430
         N            1.105233886515     1.059679661109    -0.288292069364    14.003074004430
         N            1.358993886515    -1.266613338891     0.281816930636    14.003074004430
         C           -0.827259113485    -0.345428338891    -0.021820069364    12.000000000000
         C            0.624171886515    -0.169940338891    -0.003115069364    12.000000000000
         C           -2.983510113485     0.116185661109    -0.002778069364    12.000000000000
         C           -2.773069113485    -1.239601338891    -0.169400069364    12.000000000000
         C            2.421811986515     1.188488261109    -0.285035269364    12.000000000000
         C            2.687579886515    -1.103117338891     0.255707930636    12.000000000000
         C            3.293268886515     0.122016661109    -0.025496069364    12.000000000000
         H           -3.882036113485     0.713677661109     0.067597930636     1.007825032230
         H           -3.517744113485    -2.016749338891    -0.284080069364     1.007825032230
         H            2.826930886515     2.183958661109    -0.509587069364     1.007825032230
         H            3.281238886515    -1.988553338891     0.478476930636     1.007825032230
         H            4.372482886515     0.236590661109    -0.036299069364     1.007825032230
         C           -1.502995113485     2.109121661109     0.299564930636    12.000000000000
         H           -0.805934113485     2.255934661109     1.123778930636     1.007825032230
         H           -1.085304113485     2.565593661109    -0.596644069364     1.007825032230
         H           -2.462791113485     2.566078661109     0.546094930636     1.007825032230

  Basis Set: AUG-CC-PVTZ
    Blend: AUG-CC-PVTZ
  Basis Set: (AUG-CC-PVTZ AUX)
    Blend: AUG-CC-PVTZ-JKFIT
	 Reference Energy          =    -525.5581049134353862 [Eh]
	 Singles Energy            =      -0.0000000000000000 [Eh]
	 Same-Spin Energy          =      -0.5778637295814030 [Eh]
	 Opposite-Spin Energy      =      -1.7379610078282564 [Eh]
	 Correlation Energy        =      -2.3158247374096592 [Eh]
	 Total Energy              =    -527.8739296508450707 [Eh]

	 ================> DF-SCS-MP2 Energies <==================
	-----------------------------------------------------------
	 SCS Same-Spin Scale       =       0.3333333333333333 [-]
	 SCS Opposite-Spin Scale   =       1.2000000000000000 [-]
	 SCS Same-Spin Energy      =      -0.1926212431938010 [Eh]
	 SCS Opposite-Spin Energy  =      -2.0855532093939075 [Eh]
	 SCS Correlation Energy    =      -2.2781744525877086 [Eh]
	 SCS Total Energy          =    -527.8362793660230636 [Eh]
	-----------------------------------------------------------

  Dipole Moment: [D]
     X:     1.3533      Y:     4.1131      Z:     0.4778     Total:     4.3562

*** Psi4 exiting successfully. Buy a developer a beer!
