                               Psi4 1.3.2 release

  ==> Input File <==

--------------------------------------------------------------------------
#psi4
#
memory 32 gb

molecule  {
0 1
  N       -1.7314010     0.6447010     0.0841650
  N       -1.4345640    -1.5648400    -0.1846490
  N        1.1113180     1.0210360    -0.2929590
  N        1.3650780    -1.3052570     0.2771500
  C       -0.8211750    -0.3840720    -0.0264870
  C        0.7647842    -0.2499465     0.0057543
  C       -2.9774260     0.0775420    -0.0074450
  C       -2.7669850    -1.2782450    -0.1740670
  C        2.4478010     1.1517920    -0.2896530
  C        2.6936640    -1.1417610     0.2510410
  C        3.2993530     0.0833730    -0.0301630
  H       -3.8759520     0.6750340     0.0629310
  H       -3.5116600    -2.0553930    -0.2887470
  H        2.8330150     2.1453150    -0.5142540
  H        3.2873230    -2.0271970     0.4738100
  H        4.3785670     0.1979470    -0.0409660
  C       -1.4969110     2.0704780     0.2948980
  H       -0.7998500     2.2172910     1.1191120
  H       -1.0792200     2.5269500    -0.6013110
  H       -2.4567070     2.5274350     0.5414280
units angstrom
no_reorient  #important for SAPT in psi4, default
symmetry c1  #important for SAPT in psi4, default
}

set PROPERTIES_ORIGIN ["COM"]
properties('MP2/aug-cc-pvtz', properties = ['dipole'])
--------------------------------------------------------------------------

    Molecular point group: c1
  Charge       = 0
  Multiplicity = 1
  Basis Set: AUG-CC-PVTZ
    Blend: AUG-CC-PVTZ
  Basis Set: (AUG-CC-PVTZ AUX)
    Blend: AUG-CC-PVTZ-JKFIT

    Orbital Energies [Eh]
    ---------------------

    Doubly Occupied:

       1A    -15.616727     2A    -15.586602     3A    -15.576109
       4A    -15.534374     5A    -11.332600     6A    -11.313458
       7A    -11.313177     8A    -11.291166     9A    -11.268822
      10A    -11.258086    11A    -11.249012    12A    -11.231431
      13A     -1.350529    14A     -1.324357    15A     -1.225031
      16A     -1.169989    17A     -1.089558    18A     -0.996061
      19A     -0.958214    20A     -0.917770    21A     -0.888075
      22A     -0.792553    23A     -0.774674    24A     -0.724214
      25A     -0.715765    26A     -0.681512    27A     -0.639907
      28A     -0.638632    29A     -0.610663    30A     -0.600993
      31A     -0.588732    32A     -0.577422    33A     -0.565032
      34A     -0.545483    35A     -0.537405    36A     -0.471514
      37A     -0.440084    38A     -0.439780    39A     -0.420227
      40A     -0.397369    41A     -0.372444    42A     -0.295394

  @DF-RHF Final Energy:  -525.53876458005152

   => Energetics <=

    Nuclear Repulsion Energy =            654.2474623232425301
    One-Electron Energy =               -2010.9305648682056926
    Two-Electron Energy =                 831.1443379649117560
    Total Energy =                       -525.5387645800515202
  Basis Set: (AUG-CC-PVTZ AUX)
    Blend: AUG-CC-PVTZ-RI
    Molecular point group: c1

    Geometry (in Angstrom), charge = 0, multiplicity = 1:

       Center              X                  Y                   Z               Mass
    ------------   -----------------  -----------------  -----------------  -----------------
         N           -1.749062176742     0.686299410486     0.087813494868    14.003074004430
         N           -1.452225176742    -1.523241589514    -0.181000505132    14.003074004430
         N            1.093656823258     1.062634410486    -0.289310505132    14.003074004430
         N            1.347416823258    -1.263658589514     0.280798494868    14.003074004430
         C           -0.838836176742    -0.342473589514    -0.022838505132    12.000000000000
         C            0.747123023258    -0.208348089514     0.009402794868    12.000000000000
         C           -2.995087176742     0.119140410486    -0.003796505132    12.000000000000
         C           -2.784646176742    -1.236646589514    -0.170418505132    12.000000000000
         C            2.430139823258     1.193390410486    -0.286004505132    12.000000000000
         C            2.676002823258    -1.100162589514     0.254689494868    12.000000000000
         C            3.281691823258     0.124971410486    -0.026514505132    12.000000000000
         H           -3.893613176742     0.716632410486     0.066579494868     1.007825032230
         H           -3.529321176742    -2.013794589514    -0.285098505132     1.007825032230
         H            2.815353823258     2.186913410486    -0.510605505132     1.007825032230
         H            3.269661823258    -1.985598589514     0.477458494868     1.007825032230
         H            4.360905823258     0.239545410486    -0.037317505132     1.007825032230
         C           -1.514572176742     2.112076410486     0.298546494868    12.000000000000
         H           -0.817511176742     2.258889410486     1.122760494868     1.007825032230
         H           -1.096881176742     2.568548410486    -0.597662505132     1.007825032230
         H           -2.474368176742     2.569033410486     0.545076494868     1.007825032230

  Basis Set: AUG-CC-PVTZ
    Blend: AUG-CC-PVTZ
  Basis Set: (AUG-CC-PVTZ AUX)
    Blend: AUG-CC-PVTZ-JKFIT
	 Reference Energy          =    -525.5387645800515202 [Eh]
	 Singles Energy            =      -0.0000000000000000 [Eh]
	 Same-Spin Energy          =      -0.5759140627591233 [Eh]
	 Opposite-Spin Energy      =      -1.7357306556727663 [Eh]
	 Correlation Energy        =      -2.3116447184318893 [Eh]
	 Total Energy              =    -527.8504092984834415 [Eh]

	 ================> DF-SCS-MP2 Energies <==================
	-----------------------------------------------------------
	 SCS Same-Spin Scale       =       0.3333333333333333 [-]
	 SCS Opposite-Spin Scale   =       1.2000000000000000 [-]
	 SCS Same-Spin Energy      =      -0.1919713542530411 [Eh]
	 SCS Opposite-Spin Energy  =      -2.0828767868073195 [Eh]
	 SCS Correlation Energy    =      -2.2748481410603607 [Eh]
	 SCS Total Energy          =    -527.8136127211118946 [Eh]
	-----------------------------------------------------------

  Dipole Moment: [D]
     X:     2.4316      Y:     4.1064      Z:     0.5095     Total:     4.7995

*** Psi4 exiting successfully. Buy a developer a beer!
