                               Psi4 1.3.2 release

  ==> Input File <==

--------------------------------------------------------------------------
#psi4
#
memory 32 gb

molecule  {
0 1
  N       -1.7154991     0.6394731     0.1033822
  N       -1.4345640    -1.5648400    -0.1846490
  N        1.1113180     1.0210360    -0.2929590
  N        1.3650780    -1.3052570     0.2771500
  C       -0.8211750    -0.3840720    -0.0264870
  C        0.6302560    -0.2085840    -0.0077820
  C       -2.9774260     0.0775420    -0.0074450
  C       -2.7669850    -1.2782450    -0.1740670
  C        2.4478010     1.1517920    -0.2896530
  C        2.6936640    -1.1417610     0.2510410
  C        3.2993530     0.0833730    -0.0301630
  H       -3.8759520     0.6750340     0.0629310
  H       -3.5116600    -2.0553930    -0.2887470
  H        2.8330150     2.1453150    -0.5142540
  H        3.2873230    -2.0271970     0.4738100
  H        4.3785670     0.1979470    -0.0409660
  C       -1.4969110     2.0704780     0.2948980
  H       -0.7998500     2.2172910     1.1191120
  H       -1.0792200     2.5269500    -0.6013110
  H       -2.4567070     2.5274350     0.5414280
units angstrom
no_reorient  #important for SAPT in psi4, default
symmetry c1  #important for SAPT in psi4, default
}

set PROPERTIES_ORIGIN ["COM"]
properties('MP2/aug-cc-pvtz', properties = ['dipole'])
--------------------------------------------------------------------------

    Molecular point group: c1
  Charge       = 0
  Multiplicity = 1
  Basis Set: AUG-CC-PVTZ
    Blend: AUG-CC-PVTZ
  Basis Set: (AUG-CC-PVTZ AUX)
    Blend: AUG-CC-PVTZ-JKFIT

    Orbital Energies [Eh]
    ---------------------

    Doubly Occupied:

       1A    -15.625438     2A    -15.580478     3A    -15.575257
       4A    -15.544773     5A    -11.333283     6A    -11.306095
       7A    -11.303162     8A    -11.295583     9A    -11.273342
      10A    -11.259367    11A    -11.252280    12A    -11.241241
      13A     -1.345045    14A     -1.308073    15A     -1.198143
      16A     -1.176867    17A     -1.089183    18A     -1.006975
      19A     -0.969541    20A     -0.899538    21A     -0.894558
      22A     -0.802139    23A     -0.784354    24A     -0.726582
      25A     -0.703024    26A     -0.685558    27A     -0.646201
      28A     -0.639337    29A     -0.607534    30A     -0.593331
      31A     -0.589030    32A     -0.579817    33A     -0.568474
      34A     -0.554927    35A     -0.543108    36A     -0.481330
      37A     -0.435601    38A     -0.424389    39A     -0.412498
      40A     -0.395419    41A     -0.377752    42A     -0.299837

  @DF-RHF Final Energy:  -525.55774334392959

   => Energetics <=

    Nuclear Repulsion Energy =            654.2734659626461280
    One-Electron Energy =               -2011.0054942575459336
    Two-Electron Energy =                 831.1742849509703319
    Total Energy =                       -525.5577433439295874
  Basis Set: (AUG-CC-PVTZ AUX)
    Blend: AUG-CC-PVTZ-RI
    Molecular point group: c1

    Geometry (in Angstrom), charge = 0, multiplicity = 1:

       Center              X                  Y                   Z               Mass
    ------------   -----------------  -----------------  -----------------  -----------------
         N           -1.724466453101     0.678428102061     0.106364355071    14.003074004430
         N           -1.443531353101    -1.525884997939    -0.181666844929    14.003074004430
         N            1.102350646899     1.059991002061    -0.289976844929    14.003074004430
         N            1.356110646899    -1.266301997939     0.280132155071    14.003074004430
         C           -0.830142353101    -0.345116997939    -0.023504844929    12.000000000000
         C            0.621288646899    -0.169628997939    -0.004799844929    12.000000000000
         C           -2.986393353101     0.116497002061    -0.004462844929    12.000000000000
         C           -2.775952353101    -1.239289997939    -0.171084844929    12.000000000000
         C            2.438833646899     1.190747002061    -0.286670844929    12.000000000000
         C            2.684696646899    -1.102805997939     0.254023155071    12.000000000000
         C            3.290385646899     0.122328002061    -0.027180844929    12.000000000000
         H           -3.884919353101     0.713989002061     0.065913155071     1.007825032230
         H           -3.520627353101    -2.016437997939    -0.285764844929     1.007825032230
         H            2.824047646899     2.184270002061    -0.511271844929     1.007825032230
         H            3.278355646899    -1.988241997939     0.476792155071     1.007825032230
         H            4.369599646899     0.236902002061    -0.037983844929     1.007825032230
         C           -1.505878353101     2.109433002061     0.297880155071    12.000000000000
         H           -0.808817353101     2.256246002061     1.122094155071     1.007825032230
         H           -1.088187353101     2.565905002061    -0.598328844929     1.007825032230
         H           -2.465674353101     2.566390002061     0.544410155071     1.007825032230

  Basis Set: AUG-CC-PVTZ
    Blend: AUG-CC-PVTZ
  Basis Set: (AUG-CC-PVTZ AUX)
    Blend: AUG-CC-PVTZ-JKFIT
	 Reference Energy          =    -525.5577433439295874 [Eh]
	 Singles Energy            =      -0.0000000000000000 [Eh]
	 Same-Spin Energy          =      -0.5778509020711671 [Eh]
	 Opposite-Spin Energy      =      -1.7382745662988595 [Eh]
	 Correlation Energy        =      -2.3161254683700268 [Eh]
	 Total Energy              =    -527.8738688122996336 [Eh]

	 ================> DF-SCS-MP2 Energies <==================
	-----------------------------------------------------------
	 SCS Same-Spin Scale       =       0.3333333333333333 [-]
	 SCS Opposite-Spin Scale   =       1.2000000000000000 [-]
	 SCS Same-Spin Energy      =      -0.1926169673570557 [Eh]
	 SCS Opposite-Spin Energy  =      -2.0859294795586312 [Eh]
	 SCS Correlation Energy    =      -2.2785464469156871 [Eh]
	 SCS Total Energy          =    -527.8362897908452851 [Eh]
	-----------------------------------------------------------

  Dipole Moment: [D]
     X:     1.4115      Y:     4.1072      Z:     0.4701     Total:     4.3683

*** Psi4 exiting successfully. Buy a developer a beer!
