                               Psi4 1.3.2 release

  ==> Input File <==

--------------------------------------------------------------------------
#psi4
#
memory 32 gb

molecule  {
0 1
  N       -1.7314010     0.6447010     0.0841650
  N       -1.4345640    -1.5648400    -0.1846490
  N        1.1113180     1.0210360    -0.2929590
  N        1.3650780    -1.3052570     0.2771500
  C       -0.8211750    -0.3840720    -0.0264870
  C        0.5009984    -0.1537495    -0.0244428
  C       -2.9774260     0.0775420    -0.0074450
  C       -2.7669850    -1.2782450    -0.1740670
  C        2.4478010     1.1517920    -0.2896530
  C        2.6936640    -1.1417610     0.2510410
  C        3.2993530     0.0833730    -0.0301630
  H       -3.8759520     0.6750340     0.0629310
  H       -3.5116600    -2.0553930    -0.2887470
  H        2.8330150     2.1453150    -0.5142540
  H        3.2873230    -2.0271970     0.4738100
  H        4.3785670     0.1979470    -0.0409660
  C       -1.4969110     2.0704780     0.2948980
  H       -0.7998500     2.2172910     1.1191120
  H       -1.0792200     2.5269500    -0.6013110
  H       -2.4567070     2.5274350     0.5414280
units angstrom
no_reorient  #important for SAPT in psi4, default
symmetry c1  #important for SAPT in psi4, default
}

set PROPERTIES_ORIGIN ["COM"]
properties('MP2/aug-cc-pvtz', properties = ['dipole'])
--------------------------------------------------------------------------

    Molecular point group: c1
  Charge       = 0
  Multiplicity = 1
  Basis Set: AUG-CC-PVTZ
    Blend: AUG-CC-PVTZ
  Basis Set: (AUG-CC-PVTZ AUX)
    Blend: AUG-CC-PVTZ-JKFIT

    Orbital Energies [Eh]
    ---------------------

    Doubly Occupied:

       1A    -15.634279     2A    -15.574585     3A    -15.572248
       4A    -15.559191     5A    -11.333825     6A    -11.298781
       7A    -11.293523     8A    -11.292340     9A    -11.278069
      10A    -11.271947    11A    -11.250268    12A    -11.245391
      13A     -1.354913    14A     -1.285260    15A     -1.192426
      16A     -1.167496    17A     -1.095497    18A     -1.017036
      19A     -0.979072    20A     -0.903046    21A     -0.881576
      22A     -0.812612    23A     -0.790981    24A     -0.733418
      25A     -0.694747    26A     -0.678658    27A     -0.654101
      28A     -0.644365    29A     -0.605023    30A     -0.598644
      31A     -0.584810    32A     -0.581081    33A     -0.569711
      34A     -0.565597    35A     -0.543420    36A     -0.475985
      37A     -0.443982    38A     -0.415950    39A     -0.398461
      40A     -0.387870    41A     -0.381717    42A     -0.295976

  @DF-RHF Final Energy:  -525.52372148885183

   => Energetics <=

    Nuclear Repulsion Energy =            654.3569709245930426
    One-Electron Energy =               -2011.0856238907329043
    Two-Electron Energy =                 831.2049314772880280
    Total Energy =                       -525.5237214888518338
  Basis Set: (AUG-CC-PVTZ AUX)
    Blend: AUG-CC-PVTZ-RI
    Molecular point group: c1

    Geometry (in Angstrom), charge = 0, multiplicity = 1:

       Center              X                  Y                   Z               Mass
    ------------   -----------------  -----------------  -----------------  -----------------
         N           -1.729287498303     0.679088011154     0.090077217715    14.003074004430
         N           -1.432450498303    -1.530452988846    -0.178736782285    14.003074004430
         N            1.113431501697     1.055423011154    -0.287046782285    14.003074004430
         N            1.367191501697    -1.270869988846     0.283062217715    14.003074004430
         C           -0.819061498303    -0.349684988846    -0.020574782285    12.000000000000
         C            0.503111901697    -0.119362488846    -0.018530582285    12.000000000000
         C           -2.975312498303     0.111929011154    -0.001532782285    12.000000000000
         C           -2.764871498303    -1.243857988846    -0.168154782285    12.000000000000
         C            2.449914501697     1.186179011154    -0.283740782285    12.000000000000
         C            2.695777501697    -1.107373988846     0.256953217715    12.000000000000
         C            3.301466501697     0.117760011154    -0.024250782285    12.000000000000
         H           -3.873838498303     0.709421011154     0.068843217715     1.007825032230
         H           -3.509546498303    -2.021005988846    -0.282834782285     1.007825032230
         H            2.835128501697     2.179702011154    -0.508341782285     1.007825032230
         H            3.289436501697    -1.992809988846     0.479722217715     1.007825032230
         H            4.380680501697     0.232334011154    -0.035053782285     1.007825032230
         C           -1.494797498303     2.104865011154     0.300810217715    12.000000000000
         H           -0.797736498303     2.251678011154     1.125024217715     1.007825032230
         H           -1.077106498303     2.561337011154    -0.595398782285     1.007825032230
         H           -2.454593498303     2.561822011154     0.547340217715     1.007825032230

  Basis Set: AUG-CC-PVTZ
    Blend: AUG-CC-PVTZ
  Basis Set: (AUG-CC-PVTZ AUX)
    Blend: AUG-CC-PVTZ-JKFIT
	 Reference Energy          =    -525.5237214888518338 [Eh]
	 Singles Energy            =      -0.0000000000000000 [Eh]
	 Same-Spin Energy          =      -0.5817628397059635 [Eh]
	 Opposite-Spin Energy      =      -1.7450675017374357 [Eh]
	 Correlation Energy        =      -2.3268303414433991 [Eh]
	 Total Energy              =    -527.8505518302952169 [Eh]

	 ================> DF-SCS-MP2 Energies <==================
	-----------------------------------------------------------
	 SCS Same-Spin Scale       =       0.3333333333333333 [-]
	 SCS Opposite-Spin Scale   =       1.2000000000000000 [-]
	 SCS Same-Spin Energy      =      -0.1939209465686545 [Eh]
	 SCS Opposite-Spin Energy  =      -2.0940810020849230 [Eh]
	 SCS Correlation Energy    =      -2.2880019486535774 [Eh]
	 SCS Total Energy          =    -527.8117234375054068 [Eh]
	-----------------------------------------------------------

  Dipole Moment: [D]
     X:     0.3468      Y:     4.1173      Z:     0.4474     Total:     4.1560

*** Psi4 exiting successfully. Buy a developer a beer!
