                               Psi4 1.3.2 release

  ==> Input File <==

--------------------------------------------------------------------------
#psi4
#
memory 32 gb

molecule  {
0 1
  N       -1.7314010     0.6447010     0.0841650
  N       -1.4345640    -1.5648400    -0.1846490
  N        1.1113180     1.0210360    -0.2929590
  N        1.3650780    -1.3052570     0.2771500
  C       -0.8211750    -0.3840720    -0.0264870
  C        0.6302560    -0.2085840    -0.0077820
  C       -2.9774260     0.0775420    -0.0074450
  C       -2.6722119    -1.2604172    -0.1715063
  C        2.4478010     1.1517920    -0.2896530
  C        2.6936640    -1.1417610     0.2510410
  C        3.2993530     0.0833730    -0.0301630
  H       -3.8759520     0.6750340     0.0629310
  H       -3.5116600    -2.0553930    -0.2887470
  H        2.8330150     2.1453150    -0.5142540
  H        3.2873230    -2.0271970     0.4738100
  H        4.3785670     0.1979470    -0.0409660
  C       -1.4969110     2.0704780     0.2948980
  H       -0.7998500     2.2172910     1.1191120
  H       -1.0792200     2.5269500    -0.6013110
  H       -2.4567070     2.5274350     0.5414280
units angstrom
no_reorient  #important for SAPT in psi4, default
symmetry c1  #important for SAPT in psi4, default
}

set PROPERTIES_ORIGIN ["COM"]
properties('MP2/aug-cc-pvtz', properties = ['dipole'])
--------------------------------------------------------------------------

    Molecular point group: c1
  Charge       = 0
  Multiplicity = 1
  Basis Set: AUG-CC-PVTZ
    Blend: AUG-CC-PVTZ
  Basis Set: (AUG-CC-PVTZ AUX)
    Blend: AUG-CC-PVTZ-JKFIT

    Orbital Energies [Eh]
    ---------------------

    Doubly Occupied:

       1A    -15.631174     2A    -15.578653     3A    -15.573891
       4A    -15.543020     5A    -11.332461     6A    -11.305221
       7A    -11.302474     8A    -11.294512     9A    -11.274496
      10A    -11.255842    11A    -11.250630    12A    -11.240796
      13A     -1.358053    14A     -1.309028    15A     -1.206531
      16A     -1.191083    17A     -1.088850    18A     -1.006944
      19A     -0.975286    20A     -0.898708    21A     -0.890793
      22A     -0.798093    23A     -0.787580    24A     -0.732739
      25A     -0.701335    26A     -0.684885    27A     -0.649645
      28A     -0.640010    29A     -0.609442    30A     -0.591811
      31A     -0.590503    32A     -0.580478    33A     -0.569735
      34A     -0.551444    35A     -0.541551    36A     -0.480402
      37A     -0.438071    38A     -0.423886    39A     -0.412459
      40A     -0.398846    41A     -0.389878    42A     -0.292461

  @DF-RHF Final Energy:  -525.54504173790451

   => Energetics <=

    Nuclear Repulsion Energy =            656.3656187402041269
    One-Electron Energy =               -2015.0739149493044806
    Two-Electron Energy =                 833.1632544711958417
    Total Energy =                       -525.5450417379045120
  Basis Set: (AUG-CC-PVTZ AUX)
    Blend: AUG-CC-PVTZ-RI
    Molecular point group: c1

    Geometry (in Angstrom), charge = 0, multiplicity = 1:

       Center              X                  Y                   Z               Mass
    ------------   -----------------  -----------------  -----------------  -----------------
         N           -1.746081939296     0.681862215045     0.088636279721    14.003074004430
         N           -1.449244939296    -1.527678784955    -0.180177720279    14.003074004430
         N            1.096637060704     1.058197215045    -0.288487720279    14.003074004430
         N            1.350397060704    -1.268095784955     0.281621279721    14.003074004430
         C           -0.835855939296    -0.346910784955    -0.022015720279    12.000000000000
         C            0.615575060704    -0.171422784955    -0.003310720279    12.000000000000
         C           -2.992106939296     0.114703215045    -0.002973720279    12.000000000000
         C           -2.686892839296    -1.223255984955    -0.167035020279    12.000000000000
         C            2.433120060704     1.188953215045    -0.285181720279    12.000000000000
         C            2.678983060704    -1.104599784955     0.255512279721    12.000000000000
         C            3.284672060704     0.120534215045    -0.025691720279    12.000000000000
         H           -3.890632939296     0.712195215045     0.067402279721     1.007825032230
         H           -3.526340939296    -2.018231784955    -0.284275720279     1.007825032230
         H            2.818334060704     2.182476215045    -0.509782720279     1.007825032230
         H            3.272642060704    -1.990035784955     0.478281279721     1.007825032230
         H            4.363886060704     0.235108215045    -0.036494720279     1.007825032230
         C           -1.511591939296     2.107639215045     0.299369279721    12.000000000000
         H           -0.814530939296     2.254452215045     1.123583279721     1.007825032230
         H           -1.093900939296     2.564111215045    -0.596839720279     1.007825032230
         H           -2.471387939296     2.564596215045     0.545899279721     1.007825032230

  Basis Set: AUG-CC-PVTZ
    Blend: AUG-CC-PVTZ
  Basis Set: (AUG-CC-PVTZ AUX)
    Blend: AUG-CC-PVTZ-JKFIT
	 Reference Energy          =    -525.5450417379045120 [Eh]
	 Singles Energy            =      -0.0000000000000000 [Eh]
	 Same-Spin Energy          =      -0.5788582659009128 [Eh]
	 Opposite-Spin Energy      =      -1.7382694076324408 [Eh]
	 Correlation Energy        =      -2.3171276735333537 [Eh]
	 Total Energy              =    -527.8621694114378897 [Eh]

	 ================> DF-SCS-MP2 Energies <==================
	-----------------------------------------------------------
	 SCS Same-Spin Scale       =       0.3333333333333333 [-]
	 SCS Opposite-Spin Scale   =       1.2000000000000000 [-]
	 SCS Same-Spin Energy      =      -0.1929527553003043 [Eh]
	 SCS Opposite-Spin Energy  =      -2.0859232891589290 [Eh]
	 SCS Correlation Energy    =      -2.2788760444592331 [Eh]
	 SCS Total Energy          =    -527.8239177823637647 [Eh]
	-----------------------------------------------------------

  Dipole Moment: [D]
     X:     1.3609      Y:     4.1467      Z:     0.4847     Total:     4.3911

*** Psi4 exiting successfully. Buy a developer a beer!
