                               Psi4 1.3.2 release

  ==> Input File <==

--------------------------------------------------------------------------
#psi4
#
memory 32 gb

molecule  {
0 1
  N       -1.7314010     0.6447010     0.0841650
  N       -1.4345640    -1.5648400    -0.1846490
  N        1.1113180     1.0210360    -0.2929590
  N        1.3650780    -1.3052570     0.2771500
  C       -0.8211750    -0.3840720    -0.0264870
  C        0.6302560    -0.2085840    -0.0077820
  C       -2.9774260     0.0775420    -0.0074450
  C       -2.8647461    -1.2572172    -0.1732906
  C        2.4478010     1.1517920    -0.2896530
  C        2.6936640    -1.1417610     0.2510410
  C        3.2993530     0.0833730    -0.0301630
  H       -3.8759520     0.6750340     0.0629310
  H       -3.5116600    -2.0553930    -0.2887470
  H        2.8330150     2.1453150    -0.5142540
  H        3.2873230    -2.0271970     0.4738100
  H        4.3785670     0.1979470    -0.0409660
  C       -1.4969110     2.0704780     0.2948980
  H       -0.7998500     2.2172910     1.1191120
  H       -1.0792200     2.5269500    -0.6013110
  H       -2.4567070     2.5274350     0.5414280
units angstrom
no_reorient  #important for SAPT in psi4, default
symmetry c1  #important for SAPT in psi4, default
}

set PROPERTIES_ORIGIN ["COM"]
properties('MP2/aug-cc-pvtz', properties = ['dipole'])
--------------------------------------------------------------------------

    Molecular point group: c1
  Charge       = 0
  Multiplicity = 1
  Basis Set: AUG-CC-PVTZ
    Blend: AUG-CC-PVTZ
  Basis Set: (AUG-CC-PVTZ AUX)
    Blend: AUG-CC-PVTZ-JKFIT

    Orbital Energies [Eh]
    ---------------------

    Doubly Occupied:

       1A    -15.618895     2A    -15.581994     3A    -15.576692
       4A    -15.548771     5A    -11.334763     6A    -11.306915
       7A    -11.303997     8A    -11.297914     9A    -11.271869
      10A    -11.261127    11A    -11.253705    12A    -11.238536
      13A     -1.337711    14A     -1.307431    15A     -1.198047
      16A     -1.158838    17A     -1.089758    18A     -1.014221
      19A     -0.961324    20A     -0.901192    21A     -0.898135
      22A     -0.807055    23A     -0.781344    24A     -0.724353
      25A     -0.704140    26A     -0.686694    27A     -0.644130
      28A     -0.640074    29A     -0.609216    30A     -0.597820
      31A     -0.586733    32A     -0.580473    33A     -0.567528
      34A     -0.552377    35A     -0.538013    36A     -0.482266
      37A     -0.431080    38A     -0.424929    39A     -0.411893
      40A     -0.398132    41A     -0.363787    42A     -0.310403

  @DF-RHF Final Energy:  -525.54818824640620

   => Energetics <=

    Nuclear Repulsion Energy =            652.5295001742197201
    One-Electron Energy =               -2007.5468230100896108
    Two-Electron Energy =                 829.4691345894636925
    Total Energy =                       -525.5481882464061982
  Basis Set: (AUG-CC-PVTZ AUX)
    Blend: AUG-CC-PVTZ-RI
    Molecular point group: c1

    Geometry (in Angstrom), charge = 0, multiplicity = 1:

       Center              X                  Y                   Z               Mass
    ------------   -----------------  -----------------  -----------------  -----------------
         N           -1.731648630553     0.681622327337     0.088770039607    14.003074004430
         N           -1.434811630553    -1.527918672663    -0.180043960393    14.003074004430
         N            1.111070369447     1.057957327337    -0.288353960393    14.003074004430
         N            1.364830369447    -1.268335672663     0.281755039607    14.003074004430
         C           -0.821422630553    -0.347150672663    -0.021881960393    12.000000000000
         C            0.630008369447    -0.171662672663    -0.003176960393    12.000000000000
         C           -2.977673630553     0.114463327337    -0.002839960393    12.000000000000
         C           -2.864993730553    -1.220295872663    -0.168685560393    12.000000000000
         C            2.447553369447     1.188713327337    -0.285047960393    12.000000000000
         C            2.693416369447    -1.104839672663     0.255646039607    12.000000000000
         C            3.299105369447     0.120294327337    -0.025557960393    12.000000000000
         H           -3.876199630553     0.711955327337     0.067536039607     1.007825032230
         H           -3.511907630553    -2.018471672663    -0.284141960393     1.007825032230
         H            2.832767369447     2.182236327337    -0.509648960393     1.007825032230
         H            3.287075369447    -1.990275672663     0.478415039607     1.007825032230
         H            4.378319369447     0.234868327337    -0.036360960393     1.007825032230
         C           -1.497158630553     2.107399327337     0.299503039607    12.000000000000
         H           -0.800097630553     2.254212327337     1.123717039607     1.007825032230
         H           -1.079467630553     2.563871327337    -0.596705960393     1.007825032230
         H           -2.456954630553     2.564356327337     0.546033039607     1.007825032230

  Basis Set: AUG-CC-PVTZ
    Blend: AUG-CC-PVTZ
  Basis Set: (AUG-CC-PVTZ AUX)
    Blend: AUG-CC-PVTZ-JKFIT
	 Reference Energy          =    -525.5481882464061982 [Eh]
	 Singles Energy            =      -0.0000000000000000 [Eh]
	 Same-Spin Energy          =      -0.5769366835526570 [Eh]
	 Opposite-Spin Energy      =      -1.7390186187696579 [Eh]
	 Correlation Energy        =      -2.3159553023223149 [Eh]
	 Total Energy              =    -527.8641435487285207 [Eh]

	 ================> DF-SCS-MP2 Energies <==================
	-----------------------------------------------------------
	 SCS Same-Spin Scale       =       0.3333333333333333 [-]
	 SCS Opposite-Spin Scale   =       1.2000000000000000 [-]
	 SCS Same-Spin Energy      =      -0.1923122278508857 [Eh]
	 SCS Opposite-Spin Energy  =      -2.0868223425235892 [Eh]
	 SCS Correlation Energy    =      -2.2791345703744748 [Eh]
	 SCS Total Energy          =    -527.8273228167806792 [Eh]
	-----------------------------------------------------------

  Dipole Moment: [D]
     X:     1.5380      Y:     4.0996      Z:     0.4802     Total:     4.4049

*** Psi4 exiting successfully. Buy a developer a beer!
