                               Psi4 1.3.2 release

  ==> Input File <==

--------------------------------------------------------------------------
#psi4
#
memory 32 gb

molecule  {
0 1
  N       -1.7314010     0.6447010     0.0841650
  N       -1.4345640    -1.5648400    -0.1846490
  N        1.1113180     1.0210360    -0.2929590
  N        1.3650780    -1.3052570     0.2771500
  C       -0.8211750    -0.3840720    -0.0264870
  C        0.6302560    -0.2085840    -0.0077820
  C       -2.9774260     0.0775420    -0.0074450
  C       -2.6253543    -1.2490523    -0.1699254
  C        2.4478010     1.1517920    -0.2896530
  C        2.6936640    -1.1417610     0.2510410
  C        3.2993530     0.0833730    -0.0301630
  H       -3.8759520     0.6750340     0.0629310
  H       -3.5116600    -2.0553930    -0.2887470
  H        2.8330150     2.1453150    -0.5142540
  H        3.2873230    -2.0271970     0.4738100
  H        4.3785670     0.1979470    -0.0409660
  C       -1.4969110     2.0704780     0.2948980
  H       -0.7998500     2.2172910     1.1191120
  H       -1.0792200     2.5269500    -0.6013110
  H       -2.4567070     2.5274350     0.5414280
units angstrom
no_reorient  #important for SAPT in psi4, default
symmetry c1  #important for SAPT in psi4, default
}

set PROPERTIES_ORIGIN ["COM"]
properties('MP2/aug-cc-pvtz', properties = ['dipole'])
--------------------------------------------------------------------------

    Molecular point group: c1
  Charge       = 0
  Multiplicity = 1
  Basis Set: AUG-CC-PVTZ
    Blend: AUG-CC-PVTZ
  Basis Set: (AUG-CC-PVTZ AUX)
    Blend: AUG-CC-PVTZ-JKFIT

    Orbital Energies [Eh]
    ---------------------

    Doubly Occupied:

       1A    -15.634404     2A    -15.578119     3A    -15.573534
       4A    -15.541383     5A    -11.332196     6A    -11.305051
       7A    -11.302368     8A    -11.294623     9A    -11.275298
      10A    -11.254617    11A    -11.250145    12A    -11.241560
      13A     -1.367570    14A     -1.309493    15A     -1.217165
      16A     -1.192566    17A     -1.088872    18A     -1.007168
      19A     -0.978911    20A     -0.898641    21A     -0.889516
      22A     -0.799454    23A     -0.786951    24A     -0.736359
      25A     -0.700842    26A     -0.684534    27A     -0.652168
      28A     -0.640252    29A     -0.612421    30A     -0.593552
      31A     -0.590072    32A     -0.581141    33A     -0.569982
      34A     -0.556457    35A     -0.535253    36A     -0.480208
      37A     -0.434756    38A     -0.423838    39A     -0.412333
      40A     -0.404381    41A     -0.392332    42A     -0.289877

  @DF-RHF Final Energy:  -525.52756635578692

   => Energetics <=

    Nuclear Repulsion Energy =            657.5736930644753784
    One-Electron Energy =               -2017.3817929357480807
    Two-Electron Energy =                 834.2805335154856721
    Total Energy =                       -525.5275663557869166
  Basis Set: (AUG-CC-PVTZ AUX)
    Blend: AUG-CC-PVTZ-RI
    Molecular point group: c1

    Geometry (in Angstrom), charge = 0, multiplicity = 1:

       Center              X                  Y                   Z               Mass
    ------------   -----------------  -----------------  -----------------  -----------------
         N           -1.749594615007     0.681010246353     0.088517767696    14.003074004430
         N           -1.452757615007    -1.528530753647    -0.180296232304    14.003074004430
         N            1.093124384993     1.057345246353    -0.288606232304    14.003074004430
         N            1.346884384993    -1.268947753647     0.281502767696    14.003074004430
         C           -0.839368615007    -0.347762753647    -0.022134232304    12.000000000000
         C            0.612062384993    -0.172274753647    -0.003429232304    12.000000000000
         C           -2.995619615007     0.113851246353    -0.003092232304    12.000000000000
         C           -2.643547915007    -1.212743053647    -0.165572632304    12.000000000000
         C            2.429607384993     1.188101246353    -0.285300232304    12.000000000000
         C            2.675470384993    -1.105451753647     0.255393767696    12.000000000000
         C            3.281159384993     0.119682246353    -0.025810232304    12.000000000000
         H           -3.894145615007     0.711343246353     0.067283767696     1.007825032230
         H           -3.529853615007    -2.019083753647    -0.284394232304     1.007825032230
         H            2.814821384993     2.181624246353    -0.509901232304     1.007825032230
         H            3.269129384993    -1.990887753647     0.478162767696     1.007825032230
         H            4.360373384993     0.234256246353    -0.036613232304     1.007825032230
         C           -1.515104615007     2.106787246353     0.299250767696    12.000000000000
         H           -0.818043615007     2.253600246353     1.123464767696     1.007825032230
         H           -1.097413615007     2.563259246353    -0.596958232304     1.007825032230
         H           -2.474900615007     2.563744246353     0.545780767696     1.007825032230

  Basis Set: AUG-CC-PVTZ
    Blend: AUG-CC-PVTZ
  Basis Set: (AUG-CC-PVTZ AUX)
    Blend: AUG-CC-PVTZ-JKFIT
	 Reference Energy          =    -525.5275663557869166 [Eh]
	 Singles Energy            =      -0.0000000000000000 [Eh]
	 Same-Spin Energy          =      -0.5793836917121747 [Eh]
	 Opposite-Spin Energy      =      -1.7387136985115184 [Eh]
	 Correlation Energy        =      -2.3180973902236932 [Eh]
	 Total Energy              =    -527.8456637460105867 [Eh]

	 ================> DF-SCS-MP2 Energies <==================
	-----------------------------------------------------------
	 SCS Same-Spin Scale       =       0.3333333333333333 [-]
	 SCS Opposite-Spin Scale   =       1.2000000000000000 [-]
	 SCS Same-Spin Energy      =      -0.1931278972373916 [Eh]
	 SCS Opposite-Spin Energy  =      -2.0864564382138218 [Eh]
	 SCS Correlation Energy    =      -2.2795843354512133 [Eh]
	 SCS Total Energy          =    -527.8071506912381210 [Eh]
	-----------------------------------------------------------

  Dipole Moment: [D]
     X:     1.3899      Y:     4.1855      Z:     0.4902     Total:     4.4374

*** Psi4 exiting successfully. Buy a developer a beer!
