                               Psi4 1.3.2 release

  ==> Input File <==

--------------------------------------------------------------------------
#psi4
#
memory 32 gb

molecule  {
0 1
  N       -1.8251443     0.6851236    -0.0295865
  N       -1.4345640    -1.5648400    -0.1846490
  N        1.1113180     1.0210360    -0.2929590
  N        1.3650780    -1.3052570     0.2771500
  C       -0.8211750    -0.3840720    -0.0264870
  C        0.6302560    -0.2085840    -0.0077820
  C       -2.9774260     0.0775420    -0.0074450
  C       -2.7669850    -1.2782450    -0.1740670
  C        2.4478010     1.1517920    -0.2896530
  C        2.6936640    -1.1417610     0.2510410
  C        3.2993530     0.0833730    -0.0301630
  H       -3.8759520     0.6750340     0.0629310
  H       -3.5116600    -2.0553930    -0.2887470
  H        2.8330150     2.1453150    -0.5142540
  H        3.2873230    -2.0271970     0.4738100
  H        4.3785670     0.1979470    -0.0409660
  C       -1.4969110     2.0704780     0.2948980
  H       -0.7998500     2.2172910     1.1191120
  H       -1.0792200     2.5269500    -0.6013110
  H       -2.4567070     2.5274350     0.5414280
units angstrom
no_reorient  #important for SAPT in psi4, default
symmetry c1  #important for SAPT in psi4, default
}

set PROPERTIES_ORIGIN ["COM"]
properties('MP2/aug-cc-pvtz', properties = ['dipole'])
--------------------------------------------------------------------------

    Molecular point group: c1
  Charge       = 0
  Multiplicity = 1
  Basis Set: AUG-CC-PVTZ
    Blend: AUG-CC-PVTZ
  Basis Set: (AUG-CC-PVTZ AUX)
    Blend: AUG-CC-PVTZ-JKFIT

    Orbital Energies [Eh]
    ---------------------

    Doubly Occupied:

       1A    -15.627232     2A    -15.577083     3A    -15.572724
       4A    -15.558309     5A    -11.333741     6A    -11.304219
       7A    -11.301744     8A    -11.295955     9A    -11.273961
      10A    -11.264198    11A    -11.249063    12A    -11.236450
      13A     -1.343675    14A     -1.307792    15A     -1.197722
      16A     -1.185048    17A     -1.087124    18A     -1.014307
      19A     -0.961513    20A     -0.897825    21A     -0.889391
      22A     -0.801278    23A     -0.785342    24A     -0.728972
      25A     -0.700862    26A     -0.687175    27A     -0.647155
      28A     -0.640876    29A     -0.606047    30A     -0.596068
      31A     -0.587347    32A     -0.578596    33A     -0.560689
      34A     -0.558638    35A     -0.540144    36A     -0.479169
      37A     -0.440715    38A     -0.423148    39A     -0.412377
      40A     -0.406496    41A     -0.378944    42A     -0.289662

  @DF-RHF Final Energy:  -525.54161431512443

   => Energetics <=

    Nuclear Repulsion Energy =            652.8780794204905078
    One-Electron Energy =               -2008.1818393525029478
    Two-Electron Energy =                 829.7621456168878922
    Total Energy =                       -525.5416143151244341
  Basis Set: (AUG-CC-PVTZ AUX)
    Blend: AUG-CC-PVTZ-RI
    Molecular point group: c1

    Geometry (in Angstrom), charge = 0, multiplicity = 1:

       Center              X                  Y                   Z               Mass
    ------------   -----------------  -----------------  -----------------  -----------------
         N           -1.824520081371     0.720085175579    -0.014972473913    14.003074004430
         N           -1.433939781371    -1.529878424421    -0.170034973913    14.003074004430
         N            1.111942218629     1.055997575579    -0.278344973913    14.003074004430
         N            1.365702218629    -1.270295424421     0.291764026087    14.003074004430
         C           -0.820550781371    -0.349110424421    -0.011872973913    12.000000000000
         C            0.630880218629    -0.173622424421     0.006832026087    12.000000000000
         C           -2.976801781371     0.112503575579     0.007169026087    12.000000000000
         C           -2.766360781371    -1.243283424421    -0.159452973913    12.000000000000
         C            2.448425218629     1.186753575579    -0.275038973913    12.000000000000
         C            2.694288218629    -1.106799424421     0.265655026087    12.000000000000
         C            3.299977218629     0.118334575579    -0.015548973913    12.000000000000
         H           -3.875327781371     0.709995575579     0.077545026087     1.007825032230
         H           -3.511035781371    -2.020431424421    -0.274132973913     1.007825032230
         H            2.833639218629     2.180276575579    -0.499639973913     1.007825032230
         H            3.287947218629    -1.992235424421     0.488424026087     1.007825032230
         H            4.379191218629     0.232908575579    -0.026351973913     1.007825032230
         C           -1.496286781371     2.105439575579     0.309512026087    12.000000000000
         H           -0.799225781371     2.252252575579     1.133726026087     1.007825032230
         H           -1.078595781371     2.561911575579    -0.586696973913     1.007825032230
         H           -2.456082781371     2.562396575579     0.556042026087     1.007825032230

  Basis Set: AUG-CC-PVTZ
    Blend: AUG-CC-PVTZ
  Basis Set: (AUG-CC-PVTZ AUX)
    Blend: AUG-CC-PVTZ-JKFIT
	 Reference Energy          =    -525.5416143151244341 [Eh]
	 Singles Energy            =      -0.0000000000000000 [Eh]
	 Same-Spin Energy          =      -0.5788199207408350 [Eh]
	 Opposite-Spin Energy      =      -1.7396375003450497 [Eh]
	 Correlation Energy        =      -2.3184574210858848 [Eh]
	 Total Energy              =    -527.8600717362103296 [Eh]

	 ================> DF-SCS-MP2 Energies <==================
	-----------------------------------------------------------
	 SCS Same-Spin Scale       =       0.3333333333333333 [-]
	 SCS Opposite-Spin Scale   =       1.2000000000000000 [-]
	 SCS Same-Spin Energy      =      -0.1929399735802783 [Eh]
	 SCS Opposite-Spin Energy  =      -2.0875650004140596 [Eh]
	 SCS Correlation Energy    =      -2.2805049739943377 [Eh]
	 SCS Total Energy          =    -527.8221192891187457 [Eh]
	-----------------------------------------------------------

  Dipole Moment: [D]
     X:     1.2954      Y:     4.0592      Z:     0.5232     Total:     4.2929

*** Psi4 exiting successfully. Buy a developer a beer!
