                               Psi4 1.3.2 release

  ==> Input File <==

--------------------------------------------------------------------------
#psi4
#
memory 32 gb

molecule  {
0 1
  N       -1.7314010     0.6447010     0.0841650
  N       -1.4345640    -1.5648400    -0.1846490
  N        1.1113180     1.0210360    -0.2929590
  N        1.3650780    -1.3052570     0.2771500
  C       -0.8211750    -0.3840720    -0.0264870
  C        0.6302560    -0.2085840    -0.0077820
  C       -2.9774260     0.0775420    -0.0074450
  C       -2.7669850    -1.2782450    -0.1740670
  C        2.4478010     1.1517920    -0.2896530
  C        2.6936640    -1.1417610     0.2510410
  C        3.3605857     0.0065460    -0.0115038
  H       -3.8759520     0.6750340     0.0629310
  H       -3.5116600    -2.0553930    -0.2887470
  H        2.8330150     2.1453150    -0.5142540
  H        3.2873230    -2.0271970     0.4738100
  H        4.3785670     0.1979470    -0.0409660
  C       -1.4969110     2.0704780     0.2948980
  H       -0.7998500     2.2172910     1.1191120
  H       -1.0792200     2.5269500    -0.6013110
  H       -2.4567070     2.5274350     0.5414280
units angstrom
no_reorient  #important for SAPT in psi4, default
symmetry c1  #important for SAPT in psi4, default
}

set PROPERTIES_ORIGIN ["COM"]
properties('MP2/aug-cc-pvtz', properties = ['dipole'])
--------------------------------------------------------------------------

    Molecular point group: c1
  Charge       = 0
  Multiplicity = 1
  Basis Set: AUG-CC-PVTZ
    Blend: AUG-CC-PVTZ
  Basis Set: (AUG-CC-PVTZ AUX)
    Blend: AUG-CC-PVTZ-JKFIT

    Orbital Energies [Eh]
    ---------------------

    Doubly Occupied:

       1A    -15.626662     2A    -15.583628     3A    -15.572221
       4A    -15.547107     5A    -11.334413     6A    -11.320362
       7A    -11.295857     8A    -11.293415     9A    -11.274383
      10A    -11.260635    11A    -11.253016    12A    -11.240976
      13A     -1.345303    14A     -1.306310    15A     -1.197594
      16A     -1.178397    17A     -1.085275    18A     -1.008885
      19A     -0.969758    20A     -0.903594    21A     -0.887181
      22A     -0.802898    23A     -0.783721    24A     -0.726622
      25A     -0.704544    26A     -0.687765    27A     -0.650565
      28A     -0.646693    29A     -0.610204    30A     -0.588737
      31A     -0.580733    32A     -0.577392    33A     -0.568095
      34A     -0.557064    35A     -0.543354    36A     -0.483900
      37A     -0.436104    38A     -0.426513    39A     -0.410221
      40A     -0.393034    41A     -0.377105    42A     -0.298628

  @DF-RHF Final Energy:  -525.54588760964702

   => Energetics <=

    Nuclear Repulsion Energy =            652.9731351918733253
    One-Electron Energy =               -2008.3603135806797582
    Two-Electron Energy =                 829.8412907791594080
    Total Energy =                       -525.5458876096470249
  Basis Set: (AUG-CC-PVTZ AUX)
    Blend: AUG-CC-PVTZ-RI
    Molecular point group: c1

    Geometry (in Angstrom), charge = 0, multiplicity = 1:

       Center              X                  Y                   Z               Mass
    ------------   -----------------  -----------------  -----------------  -----------------
         N           -1.743567586269     0.688958003494     0.087429457136    14.003074004430
         N           -1.446730586269    -1.520582996506    -0.181384542864    14.003074004430
         N            1.099151413731     1.065293003494    -0.289694542864    14.003074004430
         N            1.352911413731    -1.260999996506     0.280414457136    14.003074004430
         C           -0.833341586269    -0.339814996506    -0.023222542864    12.000000000000
         C            0.618089413731    -0.164326996506    -0.004517542864    12.000000000000
         C           -2.989592586269     0.121799003494    -0.004180542864    12.000000000000
         C           -2.779151586269    -1.233987996506    -0.170802542864    12.000000000000
         C            2.435634413731     1.196049003494    -0.286388542864    12.000000000000
         C            2.681497413731    -1.097503996506     0.254305457136    12.000000000000
         C            3.348419113731     0.050803003494    -0.008239342864    12.000000000000
         H           -3.888118586269     0.719291003494     0.066195457136     1.007825032230
         H           -3.523826586269    -2.011135996506    -0.285482542864     1.007825032230
         H            2.820848413731     2.189572003494    -0.510989542864     1.007825032230
         H            3.275156413731    -1.982939996506     0.477074457136     1.007825032230
         H            4.366400413731     0.242204003494    -0.037701542864     1.007825032230
         C           -1.509077586269     2.114735003494     0.298162457136    12.000000000000
         H           -0.812016586269     2.261548003494     1.122376457136     1.007825032230
         H           -1.091386586269     2.571207003494    -0.598046542864     1.007825032230
         H           -2.468873586269     2.571692003494     0.544692457136     1.007825032230

  Basis Set: AUG-CC-PVTZ
    Blend: AUG-CC-PVTZ
  Basis Set: (AUG-CC-PVTZ AUX)
    Blend: AUG-CC-PVTZ-JKFIT
	 Reference Energy          =    -525.5458876096470249 [Eh]
	 Singles Energy            =      -0.0000000000000000 [Eh]
	 Same-Spin Energy          =      -0.5778867043327448 [Eh]
	 Opposite-Spin Energy      =      -1.7390377840732811 [Eh]
	 Correlation Energy        =      -2.3169244884060261 [Eh]
	 Total Energy              =    -527.8628120980530412 [Eh]

	 ================> DF-SCS-MP2 Energies <==================
	-----------------------------------------------------------
	 SCS Same-Spin Scale       =       0.3333333333333333 [-]
	 SCS Opposite-Spin Scale   =       1.2000000000000000 [-]
	 SCS Same-Spin Energy      =      -0.1926289014442483 [Eh]
	 SCS Opposite-Spin Energy  =      -2.0868453408879373 [Eh]
	 SCS Correlation Energy    =      -2.2794742423321854 [Eh]
	 SCS Total Energy          =    -527.8253618519792099 [Eh]
	-----------------------------------------------------------

  Dipole Moment: [D]
     X:     1.3381      Y:     4.2587      Z:     0.4433     Total:     4.4859

*** Psi4 exiting successfully. Buy a developer a beer!
