                               Psi4 1.3.2 release

  ==> Input File <==

--------------------------------------------------------------------------
#psi4
#
memory 32 gb

molecule  {
0 1
  N       -1.7314010     0.6447010     0.0841650
  N       -1.4345640    -1.5648400    -0.1846490
  N        1.1113180     1.0210360    -0.2929590
  N        1.3650780    -1.3052570     0.2771500
  C       -0.8211750    -0.3840720    -0.0264870
  C        0.6302560    -0.2085840    -0.0077820
  C       -2.9774260     0.0775420    -0.0074450
  C       -2.7822112    -1.1801490    -0.1620113
  C        2.4478010     1.1517920    -0.2896530
  C        2.6936640    -1.1417610     0.2510410
  C        3.2993530     0.0833730    -0.0301630
  H       -3.8759520     0.6750340     0.0629310
  H       -3.5116600    -2.0553930    -0.2887470
  H        2.8330150     2.1453150    -0.5142540
  H        3.2873230    -2.0271970     0.4738100
  H        4.3785670     0.1979470    -0.0409660
  C       -1.4969110     2.0704780     0.2948980
  H       -0.7998500     2.2172910     1.1191120
  H       -1.0792200     2.5269500    -0.6013110
  H       -2.4567070     2.5274350     0.5414280
units angstrom
no_reorient  #important for SAPT in psi4, default
symmetry c1  #important for SAPT in psi4, default
}

set PROPERTIES_ORIGIN ["COM"]
properties('MP2/aug-cc-pvtz', properties = ['dipole'])
--------------------------------------------------------------------------

    Molecular point group: c1
  Charge       = 0
  Multiplicity = 1
  Basis Set: AUG-CC-PVTZ
    Blend: AUG-CC-PVTZ
  Basis Set: (AUG-CC-PVTZ AUX)
    Blend: AUG-CC-PVTZ-JKFIT

    Orbital Energies [Eh]
    ---------------------

    Doubly Occupied:

       1A    -15.616441     2A    -15.582471     3A    -15.577598
       4A    -15.545888     5A    -11.334715     6A    -11.307350
       7A    -11.304642     8A    -11.299234     9A    -11.270664
      10A    -11.254393    11A    -11.246603    12A    -11.232362
      13A     -1.346636    14A     -1.310282    15A     -1.199109
      16A     -1.169409    17A     -1.092288    18A     -1.023423
      19A     -0.962587    20A     -0.900976    21A     -0.899620
      22A     -0.797669    23A     -0.784686    24A     -0.724683
      25A     -0.703777    26A     -0.687039    27A     -0.646344
      28A     -0.641057    29A     -0.604512    30A     -0.593241
      31A     -0.590685    32A     -0.581554    33A     -0.567472
      34A     -0.545039    35A     -0.527875    36A     -0.482465
      37A     -0.442841    38A     -0.425720    39A     -0.415151
      40A     -0.399660    41A     -0.370219    42A     -0.315455

  @DF-RHF Final Energy:  -525.54551852648888

   => Energetics <=

    Nuclear Repulsion Energy =            655.3558767972450596
    One-Electron Energy =               -2013.1551278117790389
    Two-Electron Energy =                 832.2537324880452161
    Total Energy =                       -525.5455185264888769
  Basis Set: (AUG-CC-PVTZ AUX)
    Blend: AUG-CC-PVTZ-RI
    Molecular point group: c1

    Geometry (in Angstrom), charge = 0, multiplicity = 1:

       Center              X                  Y                   Z               Mass
    ------------   -----------------  -----------------  -----------------  -----------------
         N           -1.737835851804     0.675844916752     0.087924487912    14.003074004430
         N           -1.440998851804    -1.533696083248    -0.180889512088    14.003074004430
         N            1.104883148196     1.052179916752    -0.289199512088    14.003074004430
         N            1.358643148196    -1.274113083248     0.280909487912    14.003074004430
         C           -0.827609851804    -0.352928083248    -0.022727512088    12.000000000000
         C            0.623821148196    -0.177440083248    -0.004022512088    12.000000000000
         C           -2.983860851804     0.108685916752    -0.003685512088    12.000000000000
         C           -2.788646051804    -1.149005083248    -0.158251812088    12.000000000000
         C            2.441366148196     1.182935916752    -0.285893512088    12.000000000000
         C            2.687229148196    -1.110617083248     0.254800487912    12.000000000000
         C            3.292918148196     0.114516916752    -0.026403512088    12.000000000000
         H           -3.882386851804     0.706177916752     0.066690487912     1.007825032230
         H           -3.518094851804    -2.024249083248    -0.284987512088     1.007825032230
         H            2.826580148196     2.176458916752    -0.510494512088     1.007825032230
         H            3.280888148196    -1.996053083248     0.477569487912     1.007825032230
         H            4.372132148196     0.229090916752    -0.037206512088     1.007825032230
         C           -1.503345851804     2.101621916752     0.298657487912    12.000000000000
         H           -0.806284851804     2.248434916752     1.122871487912     1.007825032230
         H           -1.085654851804     2.558093916752    -0.597551512088     1.007825032230
         H           -2.463141851804     2.558578916752     0.545187487912     1.007825032230

  Basis Set: AUG-CC-PVTZ
    Blend: AUG-CC-PVTZ
  Basis Set: (AUG-CC-PVTZ AUX)
    Blend: AUG-CC-PVTZ-JKFIT
	 Reference Energy          =    -525.5455185264888769 [Eh]
	 Singles Energy            =      -0.0000000000000000 [Eh]
	 Same-Spin Energy          =      -0.5767328533728124 [Eh]
	 Opposite-Spin Energy      =      -1.7372419766272529 [Eh]
	 Correlation Energy        =      -2.3139748300000651 [Eh]
	 Total Energy              =    -527.8594933564889971 [Eh]

	 ================> DF-SCS-MP2 Energies <==================
	-----------------------------------------------------------
	 SCS Same-Spin Scale       =       0.3333333333333333 [-]
	 SCS Opposite-Spin Scale   =       1.2000000000000000 [-]
	 SCS Same-Spin Energy      =      -0.1922442844576041 [Eh]
	 SCS Opposite-Spin Energy  =      -2.0846903719527035 [Eh]
	 SCS Correlation Energy    =      -2.2769346564103077 [Eh]
	 SCS Total Energy          =    -527.8224531828991530 [Eh]
	-----------------------------------------------------------

  Dipole Moment: [D]
     X:     1.5734      Y:     4.1575      Z:     0.4864     Total:     4.4718

*** Psi4 exiting successfully. Buy a developer a beer!
