                               Psi4 1.4a3.dev225

  ==> Input File <==

--------------------------------------------------------------------------
#psi4
#
memory 32 gb

molecule  {
0 1
  N       -1.7314010     0.6447010     0.0841650
  N       -1.4345640    -1.5648400    -0.1846490
  N        1.1113180     1.0210360    -0.2929590
  N        1.3650780    -1.3052570     0.2771500
  C       -0.8440635    -0.4281320    -0.0323888
  C        0.6302560    -0.2085840    -0.0077820
  C       -2.9774260     0.0775420    -0.0074450
  C       -2.7669850    -1.2782450    -0.1740670
  C        2.4478010     1.1517920    -0.2896530
  C        2.6936640    -1.1417610     0.2510410
  C        3.2993530     0.0833730    -0.0301630
  H       -3.8759520     0.6750340     0.0629310
  H       -3.5116600    -2.0553930    -0.2887470
  H        2.8330150     2.1453150    -0.5142540
  H        3.2873230    -2.0271970     0.4738100
  H        4.3785670     0.1979470    -0.0409660
  C       -1.4969110     2.0704780     0.2948980
  H       -0.7998500     2.2172910     1.1191120
  H       -1.0792200     2.5269500    -0.6013110
  H       -2.4567070     2.5274350     0.5414280
units angstrom
no_reorient  #important for SAPT in psi4, default
symmetry c1  #important for SAPT in psi4, default
}

set PROPERTIES_ORIGIN ["COM"]
properties('MP2/aug-cc-pvtz', properties = ['dipole'])
--------------------------------------------------------------------------

    Molecular point group: c1
  Charge       = 0
  Multiplicity = 1
  Basis Set: AUG-CC-PVTZ
    Blend: AUG-CC-PVTZ
  Basis Set: (AUG-CC-PVTZ AUX)
    Blend: AUG-CC-PVTZ-JKFIT

    Orbital Energies [Eh]
    ---------------------

    Doubly Occupied:

       1A    -15.619510     2A    -15.580988     3A    -15.574913
       4A    -15.544241     5A    -11.334471     6A    -11.306383
       7A    -11.302974     8A    -11.295353     9A    -11.272335
      10A    -11.260037    11A    -11.252310    12A    -11.238700
      13A     -1.346141    14A     -1.308133    15A     -1.199974
      16A     -1.185299    17A     -1.086753    18A     -1.008026
      19A     -0.965246    20A     -0.899138    21A     -0.891147
      22A     -0.804267    23A     -0.782187    24A     -0.726115
      25A     -0.702659    26A     -0.685750    27A     -0.644243
      28A     -0.638344    29A     -0.607252    30A     -0.592800
      31A     -0.588837    32A     -0.578157    33A     -0.567745
      34A     -0.555650    35A     -0.546021    36A     -0.479731
      37A     -0.438866    38A     -0.424367    39A     -0.413207
      40A     -0.398114    41A     -0.378844    42A     -0.300873

  @DF-RHF Final Energy:  -525.55808074123968

   => Energetics <=

    Nuclear Repulsion Energy =            654.0743507999501389
    One-Electron Energy =               -2010.6126590048745584
    Two-Electron Energy =                 830.9802274636846278
    Total Energy =                       -525.5580807412396780
  Basis Set: (AUG-CC-PVTZ AUX)
    Blend: AUG-CC-PVTZ-RI
    Molecular point group: c1

    Geometry (in Angstrom), charge = 0, multiplicity = 1:

       Center              X                  Y                   Z               Mass
    ------------   -----------------  -----------------  -----------------  -----------------
         N           -1.737261448183     0.686501628327     0.089270670261    14.003074004430
         N           -1.440424448183    -1.523039371673    -0.179543329739    14.003074004430
         N            1.105457551817     1.062836628327    -0.287853329739    14.003074004430
         N            1.359217551817    -1.263456371673     0.282255670261    14.003074004430
         C           -0.849923948183    -0.386331371673    -0.027283129739    12.000000000000
         C            0.624395551817    -0.166783371673    -0.002676329739    12.000000000000
         C           -2.983286448183     0.119342628327    -0.002339329739    12.000000000000
         C           -2.772845448183    -1.236444371673    -0.168961329739    12.000000000000
         C            2.441940551817     1.193592628327    -0.284547329739    12.000000000000
         C            2.687803551817    -1.099960371673     0.256146670261    12.000000000000
         C            3.293492551817     0.125173628327    -0.025057329739    12.000000000000
         H           -3.881812448183     0.716834628327     0.068036670261     1.007825032230
         H           -3.517520448183    -2.013592371673    -0.283641329739     1.007825032230
         H            2.827154551817     2.187115628327    -0.509148329739     1.007825032230
         H            3.281462551817    -1.985396371673     0.478915670261     1.007825032230
         H            4.372706551817     0.239747628327    -0.035860329739     1.007825032230
         C           -1.502771448183     2.112278628327     0.300003670261    12.000000000000
         H           -0.805710448183     2.259091628327     1.124217670261     1.007825032230
         H           -1.085080448183     2.568750628327    -0.596205329739     1.007825032230
         H           -2.462567448183     2.569235628327     0.546533670261     1.007825032230

  Basis Set: AUG-CC-PVTZ
    Blend: AUG-CC-PVTZ
  Basis Set: (AUG-CC-PVTZ AUX)
    Blend: AUG-CC-PVTZ-JKFIT
	 Reference Energy          =    -525.5580807412396780 [Eh]
	 Singles Energy            =      -0.0000000000000000 [Eh]
	 Same-Spin Energy          =      -0.5766551611935932 [Eh]
	 Opposite-Spin Energy      =      -1.7363353398963952 [Eh]
	 Correlation Energy        =      -2.3129905010899883 [Eh]
	 Total Energy              =    -527.8710712423296627 [Eh]

	 ================> DF-SCS-MP2 Energies <==================
	-----------------------------------------------------------
	 SCS Same-Spin Scale       =       0.3333333333333333 [-]
	 SCS Opposite-Spin Scale   =       1.2000000000000000 [-]
	 SCS Same-Spin Energy      =      -0.1922183870645310 [Eh]
	 SCS Opposite-Spin Energy  =      -2.0836024078756741 [Eh]
	 SCS Correlation Energy    =      -2.2758207949402052 [Eh]
	 SCS Total Energy          =    -527.8339015361798374 [Eh]
	-----------------------------------------------------------

  Dipole Moment: [D]
     X:     1.5270      Y:     4.0283      Z:     0.4661     Total:     4.3332

*** Psi4 exiting successfully. Buy a developer a beer!
