                               Psi4 1.3.2 release

  ==> Input File <==

--------------------------------------------------------------------------
#psi4
#
memory 32 gb

molecule  {
0 1
  N       -1.7314010     0.6447010     0.0841650
  N       -1.4345640    -1.5648400    -0.1846490
  N        1.1113180     1.0210360    -0.2929590
  N        1.3650780    -1.3052570     0.2771500
  C       -0.8211750    -0.3840720    -0.0264870
  C        0.6302560    -0.2085840    -0.0077820
  C       -2.9535601     0.0809145    -0.0064902
  C       -2.7669850    -1.2782450    -0.1740670
  C        2.4478010     1.1517920    -0.2896530
  C        2.6936640    -1.1417610     0.2510410
  C        3.2993530     0.0833730    -0.0301630
  H       -3.8759520     0.6750340     0.0629310
  H       -3.5116600    -2.0553930    -0.2887470
  H        2.8330150     2.1453150    -0.5142540
  H        3.2873230    -2.0271970     0.4738100
  H        4.3785670     0.1979470    -0.0409660
  C       -1.4969110     2.0704780     0.2948980
  H       -0.7998500     2.2172910     1.1191120
  H       -1.0792200     2.5269500    -0.6013110
  H       -2.4567070     2.5274350     0.5414280
units angstrom
no_reorient  #important for SAPT in psi4, default
symmetry c1  #important for SAPT in psi4, default
}

set PROPERTIES_ORIGIN ["COM"]
properties('MP2/aug-cc-pvtz', properties = ['dipole'])
--------------------------------------------------------------------------

    Molecular point group: c1
  Charge       = 0
  Multiplicity = 1
  Basis Set: AUG-CC-PVTZ
    Blend: AUG-CC-PVTZ
  Basis Set: (AUG-CC-PVTZ AUX)
    Blend: AUG-CC-PVTZ-JKFIT

    Orbital Energies [Eh]
    ---------------------

    Doubly Occupied:

       1A    -15.627028     2A    -15.579165     3A    -15.573973
       4A    -15.547181     5A    -11.332768     6A    -11.305325
       7A    -11.302405     8A    -11.293514     9A    -11.274739
      10A    -11.260422    11A    -11.250986    12A    -11.238852
      13A     -1.349616    14A     -1.308370    15A     -1.197616
      16A     -1.179933    17A     -1.088505    18A     -1.008312
      19A     -0.970393    20A     -0.898807    21A     -0.892746
      22A     -0.803976    23A     -0.783306    24A     -0.728696
      25A     -0.701956    26A     -0.685444    27A     -0.648907
      28A     -0.639359    29A     -0.606330    30A     -0.593477
      31A     -0.585317    32A     -0.577003    33A     -0.571111
      34A     -0.558967    35A     -0.544996    36A     -0.480581
      37A     -0.435844    38A     -0.423744    39A     -0.411817
      40A     -0.397647    41A     -0.378772    42A     -0.296912

  @DF-RHF Final Energy:  -525.55772518395895

   => Energetics <=

    Nuclear Repulsion Energy =            654.6895662403956067
    One-Electron Energy =               -2011.8249442663709488
    Two-Electron Energy =                 831.5776528420163913
    Total Energy =                       -525.5577251839589508
  Basis Set: (AUG-CC-PVTZ AUX)
    Blend: AUG-CC-PVTZ-RI
    Molecular point group: c1

    Geometry (in Angstrom), charge = 0, multiplicity = 1:

       Center              X                  Y                   Z               Mass
    ------------   -----------------  -----------------  -----------------  -----------------
         N           -1.740766387515     0.682945855291     0.088756665868    14.003074004430
         N           -1.443929387515    -1.526595144709    -0.180057334132    14.003074004430
         N            1.101952612485     1.059280855291    -0.288367334132    14.003074004430
         N            1.355712612485    -1.267012144709     0.281741665868    14.003074004430
         C           -0.830540387515    -0.345827144709    -0.021895334132    12.000000000000
         C            0.620890612485    -0.170339144709    -0.003190334132    12.000000000000
         C           -2.962925487515     0.119159355291    -0.001898534132    12.000000000000
         C           -2.776350387515    -1.240000144709    -0.169475334132    12.000000000000
         C            2.438435612485     1.190036855291    -0.285061334132    12.000000000000
         C            2.684298612485    -1.103516144709     0.255632665868    12.000000000000
         C            3.289987612485     0.121617855291    -0.025571334132    12.000000000000
         H           -3.885317387515     0.713278855291     0.067522665868     1.007825032230
         H           -3.521025387515    -2.017148144709    -0.284155334132     1.007825032230
         H            2.823649612485     2.183559855291    -0.509662334132     1.007825032230
         H            3.277957612485    -1.988952144709     0.478401665868     1.007825032230
         H            4.369201612485     0.236191855291    -0.036374334132     1.007825032230
         C           -1.506276387515     2.108722855291     0.299489665868    12.000000000000
         H           -0.809215387515     2.255535855291     1.123703665868     1.007825032230
         H           -1.088585387515     2.565194855291    -0.596719334132     1.007825032230
         H           -2.466072387515     2.565679855291     0.546019665868     1.007825032230

  Basis Set: AUG-CC-PVTZ
    Blend: AUG-CC-PVTZ
  Basis Set: (AUG-CC-PVTZ AUX)
    Blend: AUG-CC-PVTZ-JKFIT
	 Reference Energy          =    -525.5577251839589508 [Eh]
	 Singles Energy            =      -0.0000000000000000 [Eh]
	 Same-Spin Energy          =      -0.5780341967303784 [Eh]
	 Opposite-Spin Energy      =      -1.7380385077101301 [Eh]
	 Correlation Energy        =      -2.3160727044405087 [Eh]
	 Total Energy              =    -527.8737978883995083 [Eh]

	 ================> DF-SCS-MP2 Energies <==================
	-----------------------------------------------------------
	 SCS Same-Spin Scale       =       0.3333333333333333 [-]
	 SCS Opposite-Spin Scale   =       1.2000000000000000 [-]
	 SCS Same-Spin Energy      =      -0.1926780655767928 [Eh]
	 SCS Opposite-Spin Energy  =      -2.0856462092521562 [Eh]
	 SCS Correlation Energy    =      -2.2783242748289489 [Eh]
	 SCS Total Energy          =    -527.8360494587878975 [Eh]
	-----------------------------------------------------------

  Dipole Moment: [D]
     X:     1.3601      Y:     4.1327      Z:     0.4833     Total:     4.3776

*** Psi4 exiting successfully. Buy a developer a beer!
