                               Psi4 1.3.2 release

  ==> Input File <==

--------------------------------------------------------------------------
#psi4
#
memory 32 gb

molecule  {
0 1
  N       -1.7314010     0.6447010     0.0841650
  N       -1.4345640    -1.5648400    -0.1846490
  N        1.1113180     1.0210360    -0.2929590
  N        1.3650780    -1.3052570     0.2771500
  C       -0.8211750    -0.3840720    -0.0264870
  C        0.5590308    -0.3906395     0.0344408
  C       -2.9774260     0.0775420    -0.0074450
  C       -2.7669850    -1.2782450    -0.1740670
  C        2.4478010     1.1517920    -0.2896530
  C        2.6936640    -1.1417610     0.2510410
  C        3.2993530     0.0833730    -0.0301630
  H       -3.8759520     0.6750340     0.0629310
  H       -3.5116600    -2.0553930    -0.2887470
  H        2.8330150     2.1453150    -0.5142540
  H        3.2873230    -2.0271970     0.4738100
  H        4.3785670     0.1979470    -0.0409660
  C       -1.4969110     2.0704780     0.2948980
  H       -0.7998500     2.2172910     1.1191120
  H       -1.0792200     2.5269500    -0.6013110
  H       -2.4567070     2.5274350     0.5414280
units angstrom
no_reorient  #important for SAPT in psi4, default
symmetry c1  #important for SAPT in psi4, default
}

set PROPERTIES_ORIGIN ["COM"]
properties('MP2/aug-cc-pvtz', properties = ['dipole'])
--------------------------------------------------------------------------

    Molecular point group: c1
  Charge       = 0
  Multiplicity = 1
  Basis Set: AUG-CC-PVTZ
    Blend: AUG-CC-PVTZ
  Basis Set: (AUG-CC-PVTZ AUX)
    Blend: AUG-CC-PVTZ-JKFIT

    Orbital Energies [Eh]
    ---------------------

    Doubly Occupied:

       1A    -15.634703     2A    -15.575994     3A    -15.564717
       4A    -15.552574     5A    -11.331023     6A    -11.301524
       7A    -11.296028     8A    -11.294919     9A    -11.274288
      10A    -11.268662    11A    -11.247909    12A    -11.245243
      13A     -1.351178    14A     -1.305162    15A     -1.189985
      16A     -1.173058    17A     -1.089044    18A     -1.015751
      19A     -0.972812    20A     -0.909555    21A     -0.880528
      22A     -0.810240    23A     -0.789192    24A     -0.731029
      25A     -0.704111    26A     -0.673461    27A     -0.649977
      28A     -0.644502    29A     -0.611145    30A     -0.592576
      31A     -0.588590    32A     -0.580706    33A     -0.567786
      34A     -0.555173    35A     -0.543300    36A     -0.479894
      37A     -0.440974    38A     -0.429783    39A     -0.392940
      40A     -0.385067    41A     -0.375807    42A     -0.298804

  @DF-RHF Final Energy:  -525.51407347778741

   => Energetics <=

    Nuclear Repulsion Energy =            653.9362964517586079
    One-Electron Energy =               -2010.2613085711841450
    Two-Electron Energy =                 830.8109386416381312
    Total Energy =                       -525.5140734777874059
  Basis Set: (AUG-CC-PVTZ AUX)
    Blend: AUG-CC-PVTZ-RI
    Molecular point group: c1

    Geometry (in Angstrom), charge = 0, multiplicity = 1:

       Center              X                  Y                   Z               Mass
    ------------   -----------------  -----------------  -----------------  -----------------
         N           -1.733637891876     0.696846448399     0.085663014011    14.003074004430
         N           -1.436800891876    -1.512694551601    -0.183150985989    14.003074004430
         N            1.109081108124     1.073181448399    -0.291460985989    14.003074004430
         N            1.362841108124    -1.253111551601     0.278648014011    14.003074004430
         C           -0.823411891876    -0.331926551601    -0.024988985989    12.000000000000
         C            0.556793908124    -0.338494051601     0.035938814011    12.000000000000
         C           -2.979662891876     0.129687448399    -0.005946985989    12.000000000000
         C           -2.769221891876    -1.226099551601    -0.172568985989    12.000000000000
         C            2.445564108124     1.203937448399    -0.288154985989    12.000000000000
         C            2.691427108124    -1.089615551601     0.252539014011    12.000000000000
         C            3.297116108124     0.135518448399    -0.028664985989    12.000000000000
         H           -3.878188891876     0.727179448399     0.064429014011     1.007825032230
         H           -3.513896891876    -2.003247551601    -0.287248985989     1.007825032230
         H            2.830778108124     2.197460448399    -0.512755985989     1.007825032230
         H            3.285086108124    -1.975051551601     0.475308014011     1.007825032230
         H            4.376330108124     0.250092448399    -0.039467985989     1.007825032230
         C           -1.499147891876     2.122623448399     0.296396014011    12.000000000000
         H           -0.802086891876     2.269436448399     1.120610014011     1.007825032230
         H           -1.081456891876     2.579095448399    -0.599812985989     1.007825032230
         H           -2.458943891876     2.579580448399     0.542926014011     1.007825032230

  Basis Set: AUG-CC-PVTZ
    Blend: AUG-CC-PVTZ
  Basis Set: (AUG-CC-PVTZ AUX)
    Blend: AUG-CC-PVTZ-JKFIT
	 Reference Energy          =    -525.5140734777874059 [Eh]
	 Singles Energy            =      -0.0000000000000000 [Eh]
	 Same-Spin Energy          =      -0.5800240972258854 [Eh]
	 Opposite-Spin Energy      =      -1.7440106108176330 [Eh]
	 Correlation Energy        =      -2.3240347080435182 [Eh]
	 Total Energy              =    -527.8381081858309471 [Eh]

	 ================> DF-SCS-MP2 Energies <==================
	-----------------------------------------------------------
	 SCS Same-Spin Scale       =       0.3333333333333333 [-]
	 SCS Opposite-Spin Scale   =       1.2000000000000000 [-]
	 SCS Same-Spin Energy      =      -0.1933413657419618 [Eh]
	 SCS Opposite-Spin Energy  =      -2.0928127329811597 [Eh]
	 SCS Correlation Energy    =      -2.2861540987231215 [Eh]
	 SCS Total Energy          =    -527.8002275765105651 [Eh]
	-----------------------------------------------------------

  Dipole Moment: [D]
     X:     0.6641      Y:     3.8573      Z:     0.5500     Total:     3.9525

*** Psi4 exiting successfully. Buy a developer a beer!
