                               Psi4 1.4a3.dev225

  ==> Input File <==

--------------------------------------------------------------------------
#psi4
#
memory 32 gb

molecule  {
0 1
  N       -1.7314010     0.6447010     0.0841650
  N       -1.4345640    -1.5648400    -0.1846490
  N        1.1113180     1.0210360    -0.2929590
  N        1.3650780    -1.3052570     0.2771500
  C       -0.8211750    -0.3840720    -0.0264870
  C        0.6302560    -0.2085840    -0.0077820
  C       -2.9774260     0.0775420    -0.0074450
  C       -2.7669850    -1.2782450    -0.1740670
  C        2.3980387     1.1469235    -0.2897761
  C        2.6936640    -1.1417610     0.2510410
  C        3.2993530     0.0833730    -0.0301630
  H       -3.8759520     0.6750340     0.0629310
  H       -3.5116600    -2.0553930    -0.2887470
  H        2.8330150     2.1453150    -0.5142540
  H        3.2873230    -2.0271970     0.4738100
  H        4.3785670     0.1979470    -0.0409660
  C       -1.4969110     2.0704780     0.2948980
  H       -0.7998500     2.2172910     1.1191120
  H       -1.0792200     2.5269500    -0.6013110
  H       -2.4567070     2.5274350     0.5414280
units angstrom
no_reorient  #important for SAPT in psi4, default
symmetry c1  #important for SAPT in psi4, default
}

set PROPERTIES_ORIGIN ["COM"]
properties('MP2/aug-cc-pvtz', properties = ['dipole'])
--------------------------------------------------------------------------

    Molecular point group: c1
  Charge       = 0
  Multiplicity = 1
  Basis Set: AUG-CC-PVTZ
    Blend: AUG-CC-PVTZ
  Basis Set: (AUG-CC-PVTZ AUX)
    Blend: AUG-CC-PVTZ-JKFIT

    Orbital Energies [Eh]
    ---------------------

    Doubly Occupied:

       1A    -15.626792     2A    -15.578220     3A    -15.574392
       4A    -15.547306     5A    -11.334966     6A    -11.305924
       7A    -11.299992     8A    -11.296126     9A    -11.274529
      10A    -11.260829    11A    -11.252198    12A    -11.241184
      13A     -1.346776    14A     -1.315524    15A     -1.207004
      16A     -1.179415    17A     -1.084850    18A     -1.007861
      19A     -0.969751    20A     -0.900183    21A     -0.892485
      22A     -0.802778    23A     -0.785078    24A     -0.726993
      25A     -0.706062    26A     -0.684801    27A     -0.647473
      28A     -0.640582    29A     -0.606372    30A     -0.592309
      31A     -0.588123    32A     -0.581853    33A     -0.567732
      34A     -0.557600    35A     -0.544758    36A     -0.483436
      37A     -0.436729    38A     -0.431483    39A     -0.410234
      40A     -0.393621    41A     -0.377354    42A     -0.298190

  @DF-RHF Final Energy:  -525.55633362224444

   => Energetics <=

    Nuclear Repulsion Energy =            654.9466607317774560
    One-Electron Energy =               -2012.2862531498019507
    Two-Electron Energy =                 831.7832587957800570
    Total Energy =                       -525.5563336222444377
  Basis Set: (AUG-CC-PVTZ AUX)
    Blend: AUG-CC-PVTZ-RI
    Molecular point group: c1

    Geometry (in Angstrom), charge = 0, multiplicity = 1:

       Center              X                  Y                   Z               Mass
    ------------   -----------------  -----------------  -----------------  -----------------
         N           -1.735246856217     0.683563641104     0.088837470543    14.003074004430
         N           -1.438409856217    -1.525977358896    -0.179976529457    14.003074004430
         N            1.107472143783     1.059898641104    -0.288286529457    14.003074004430
         N            1.361232143783    -1.266394358896     0.281822470543    14.003074004430
         C           -0.825020856217    -0.345209358896    -0.021814529457    12.000000000000
         C            0.626410143783    -0.169721358896    -0.003109529457    12.000000000000
         C           -2.981271856217     0.116404641104    -0.002772529457    12.000000000000
         C           -2.770830856217    -1.239382358896    -0.169394529457    12.000000000000
         C            2.394192843783     1.185786141104    -0.285103629457    12.000000000000
         C            2.689818143783    -1.102898358896     0.255713470543    12.000000000000
         C            3.295507143783     0.122235641104    -0.025490529457    12.000000000000
         H           -3.879797856217     0.713896641104     0.067603470543     1.007825032230
         H           -3.515505856217    -2.016530358896    -0.284074529457     1.007825032230
         H            2.829169143783     2.184177641104    -0.509581529457     1.007825032230
         H            3.283477143783    -1.988334358896     0.478482470543     1.007825032230
         H            4.374721143783     0.236809641104    -0.036293529457     1.007825032230
         C           -1.500756856217     2.109340641104     0.299570470543    12.000000000000
         H           -0.803695856217     2.256153641104     1.123784470543     1.007825032230
         H           -1.083065856217     2.565812641104    -0.596638529457     1.007825032230
         H           -2.460552856217     2.566297641104     0.546100470543     1.007825032230

  Basis Set: AUG-CC-PVTZ
    Blend: AUG-CC-PVTZ
  Basis Set: (AUG-CC-PVTZ AUX)
    Blend: AUG-CC-PVTZ-JKFIT
	 Reference Energy          =    -525.5563336222444377 [Eh]
	 Singles Energy            =      -0.0000000000000000 [Eh]
	 Same-Spin Energy          =      -0.5776847254801361 [Eh]
	 Opposite-Spin Energy      =      -1.7374969955900812 [Eh]
	 Correlation Energy        =      -2.3151817210702172 [Eh]
	 Total Energy              =    -527.8715153433146270 [Eh]

	 ================> DF-SCS-MP2 Energies <==================
	-----------------------------------------------------------
	 SCS Same-Spin Scale       =       0.3333333333333333 [-]
	 SCS Opposite-Spin Scale   =       1.2000000000000000 [-]
	 SCS Same-Spin Energy      =      -0.1925615751600454 [Eh]
	 SCS Opposite-Spin Energy  =      -2.0849963947080972 [Eh]
	 SCS Correlation Energy    =      -2.2775579698681425 [Eh]
	 SCS Total Energy          =    -527.8338915921125363 [Eh]
	-----------------------------------------------------------

  Dipole Moment: [D]
     X:     1.2887      Y:     4.1192      Z:     0.4751     Total:     4.3421

*** Psi4 exiting successfully. Buy a developer a beer!
