                               Psi4 1.3.2 release

  ==> Input File <==

--------------------------------------------------------------------------
#psi4
#
memory 32 gb

molecule  {
0 1
  N       -1.7314010     0.6447010     0.0841650
  N       -1.4345640    -1.5648400    -0.1846490
  N        1.1113180     1.0210360    -0.2929590
  N        1.3650780    -1.3052570     0.2771500
  C       -0.8211750    -0.3840720    -0.0264870
  C        0.6302560    -0.2085840    -0.0077820
  C       -2.9566194     0.0348419    -0.0135683
  C       -2.7669850    -1.2782450    -0.1740670
  C        2.4478010     1.1517920    -0.2896530
  C        2.6936640    -1.1417610     0.2510410
  C        3.2993530     0.0833730    -0.0301630
  H       -3.8759520     0.6750340     0.0629310
  H       -3.5116600    -2.0553930    -0.2887470
  H        2.8330150     2.1453150    -0.5142540
  H        3.2873230    -2.0271970     0.4738100
  H        4.3785670     0.1979470    -0.0409660
  C       -1.4969110     2.0704780     0.2948980
  H       -0.7998500     2.2172910     1.1191120
  H       -1.0792200     2.5269500    -0.6013110
  H       -2.4567070     2.5274350     0.5414280
units angstrom
no_reorient  #important for SAPT in psi4, default
symmetry c1  #important for SAPT in psi4, default
}

set PROPERTIES_ORIGIN ["COM"]
properties('MP2/aug-cc-pvtz', properties = ['dipole'])
--------------------------------------------------------------------------

    Molecular point group: c1
  Charge       = 0
  Multiplicity = 1
  Basis Set: AUG-CC-PVTZ
    Blend: AUG-CC-PVTZ
  Basis Set: (AUG-CC-PVTZ AUX)
    Blend: AUG-CC-PVTZ-JKFIT

    Orbital Energies [Eh]
    ---------------------

    Doubly Occupied:

       1A    -15.622419     2A    -15.580366     3A    -15.575126
       4A    -15.544424     5A    -11.333236     6A    -11.305991
       7A    -11.303063     8A    -11.295520     9A    -11.273824
      10A    -11.257485    11A    -11.252192    12A    -11.233721
      13A     -1.346572    14A     -1.308594    15A     -1.198011
      16A     -1.177065    17A     -1.089727    18A     -1.011553
      19A     -0.968729    20A     -0.899688    21A     -0.895355
      22A     -0.800486    23A     -0.783332    24A     -0.728226
      25A     -0.702644    26A     -0.684265    27A     -0.646566
      28A     -0.636162    29A     -0.604281    30A     -0.595948
      31A     -0.587432    32A     -0.577358    33A     -0.569407
      34A     -0.555108    35A     -0.545365    36A     -0.481102
      37A     -0.435232    38A     -0.424284    39A     -0.412335
      40A     -0.396672    41A     -0.377600    42A     -0.303985

  @DF-RHF Final Energy:  -525.55612476272233

   => Energetics <=

    Nuclear Repulsion Energy =            654.8458398985317217
    One-Electron Energy =               -2012.1630295763000049
    Two-Electron Energy =                 831.7610649150459494
    Total Energy =                       -525.5561247627223338
  Basis Set: (AUG-CC-PVTZ AUX)
    Blend: AUG-CC-PVTZ-RI
    Molecular point group: c1

    Geometry (in Angstrom), charge = 0, multiplicity = 1:

       Center              X                  Y                   Z               Mass
    ------------   -----------------  -----------------  -----------------  -----------------
         N           -1.740537047370     0.686399683548     0.089287274989    14.003074004430
         N           -1.443700047370    -1.523141316452    -0.179526725011    14.003074004430
         N            1.102181952630     1.062734683548    -0.287836725011    14.003074004430
         N            1.355941952630    -1.263558316452     0.282272274989    14.003074004430
         C           -0.830311047370    -0.342373316452    -0.021364725011    12.000000000000
         C            0.621119952630    -0.166885316452    -0.002659725011    12.000000000000
         C           -2.965755447370     0.076540583548    -0.008446025011    12.000000000000
         C           -2.776121047370    -1.236546316452    -0.168944725011    12.000000000000
         C            2.438664952630     1.193490683548    -0.284530725011    12.000000000000
         C            2.684527952630    -1.100062316452     0.256163274989    12.000000000000
         C            3.290216952630     0.125071683548    -0.025040725011    12.000000000000
         H           -3.885088047370     0.716732683548     0.068053274989     1.007825032230
         H           -3.520796047370    -2.013694316452    -0.283624725011     1.007825032230
         H            2.823878952630     2.187013683548    -0.509131725011     1.007825032230
         H            3.278186952630    -1.985498316452     0.478932274989     1.007825032230
         H            4.369430952630     0.239645683548    -0.035843725011     1.007825032230
         C           -1.506047047370     2.112176683548     0.300020274989    12.000000000000
         H           -0.808986047370     2.258989683548     1.124234274989     1.007825032230
         H           -1.088356047370     2.568648683548    -0.596188725011     1.007825032230
         H           -2.465843047370     2.569133683548     0.546550274989     1.007825032230

  Basis Set: AUG-CC-PVTZ
    Blend: AUG-CC-PVTZ
  Basis Set: (AUG-CC-PVTZ AUX)
    Blend: AUG-CC-PVTZ-JKFIT
	 Reference Energy          =    -525.5561247627223338 [Eh]
	 Singles Energy            =      -0.0000000000000000 [Eh]
	 Same-Spin Energy          =      -0.5774113946033783 [Eh]
	 Opposite-Spin Energy      =      -1.7374178485872791 [Eh]
	 Correlation Energy        =      -2.3148292431906574 [Eh]
	 Total Energy              =    -527.8709540059129495 [Eh]

	 ================> DF-SCS-MP2 Energies <==================
	-----------------------------------------------------------
	 SCS Same-Spin Scale       =       0.3333333333333333 [-]
	 SCS Opposite-Spin Scale   =       1.2000000000000000 [-]
	 SCS Same-Spin Energy      =      -0.1924704648677928 [Eh]
	 SCS Opposite-Spin Energy  =      -2.0849014183047347 [Eh]
	 SCS Correlation Energy    =      -2.2773718831725276 [Eh]
	 SCS Total Energy          =    -527.8334966458949111 [Eh]
	-----------------------------------------------------------

  Dipole Moment: [D]
     X:     1.4209      Y:     4.0908      Z:     0.4791     Total:     4.3570

*** Psi4 exiting successfully. Buy a developer a beer!
