                               Psi4 1.3.2 release

  ==> Input File <==

--------------------------------------------------------------------------
#psi4
#
memory 32 gb

molecule  {
0 1
  N       -1.7314010     0.6447010     0.0841650
  N       -1.4345640    -1.5648400    -0.1846490
  N        1.1113180     1.0210360    -0.2929590
  N        1.3650780    -1.3052570     0.2771500
  C       -0.8211750    -0.3840720    -0.0264870
  C        0.6302560    -0.2085840    -0.0077820
  C       -2.9774260     0.0775420    -0.0074450
  C       -2.7669850    -1.2782450    -0.1740670
  C        2.4478010     1.1517920    -0.2896530
  C        2.6936640    -1.1417610     0.2510410
  C        3.2993530     0.0833730    -0.0301630
  H       -3.8759520     0.6750340     0.0629310
  H       -3.5116600    -2.0553930    -0.2887470
  H        2.8330150     2.1453150    -0.5142540
  H        3.2873230    -2.0271970     0.4738100
  H        4.3785670     0.1979470    -0.0409660
  C       -1.4969110     2.0704780     0.2948980
  H       -0.7998500     2.2172910     1.1191120
  H       -1.0792200     2.5269500    -0.6013110
  H       -2.4567070     2.5274350     0.5414280
units angstrom
no_reorient  #important for SAPT in psi4, default
symmetry c1  #important for SAPT in psi4, default
}

set PROPERTIES_ORIGIN ["COM"]
properties('MP2/aug-cc-pvtz', properties = ['dipole'])
--------------------------------------------------------------------------

    Molecular point group: c1
  Charge       = 0
  Multiplicity = 1
  Basis Set: AUG-CC-PVTZ
    Blend: AUG-CC-PVTZ
  Basis Set: (AUG-CC-PVTZ AUX)
    Blend: AUG-CC-PVTZ-JKFIT

    Orbital Energies [Eh]
    ---------------------

    Doubly Occupied:

       1A    -15.625815     2A    -15.579989     3A    -15.574891
       4A    -15.546535     5A    -11.333379     6A    -11.305823
       7A    -11.302956     8A    -11.295419     9A    -11.273391
      10A    -11.259929    11A    -11.251819    12A    -11.240369
      13A     -1.344812    14A     -1.308060    15A     -1.197915
      16A     -1.177854    17A     -1.088935    18A     -1.007907
      19A     -0.968561    20A     -0.899294    21A     -0.893889
      22A     -0.802359    23A     -0.784454    24A     -0.726946
      25A     -0.702694    26A     -0.685803    27A     -0.646244
      28A     -0.639802    29A     -0.607321    30A     -0.592926
      31A     -0.586915    32A     -0.579387    33A     -0.569909
      34A     -0.556340    35A     -0.543252    36A     -0.481134
      37A     -0.436205    38A     -0.424215    39A     -0.412390
      40A     -0.396615    41A     -0.377870    42A     -0.298573

  @DF-RHF Final Energy:  -525.55796000292594

   => Energetics <=

    Nuclear Repulsion Energy =            654.1179306853043727
    One-Electron Energy =               -2010.6939934014089886
    Two-Electron Energy =                 831.0181027131786777
    Total Energy =                       -525.5579600029259382
  Basis Set: (AUG-CC-PVTZ AUX)
    Blend: AUG-CC-PVTZ-RI
    Molecular point group: c1

    Geometry (in Angstrom), charge = 0, multiplicity = 1:

       Center              X                  Y                   Z               Mass
    ------------   -----------------  -----------------  -----------------  -----------------
         N           -1.738977282498     0.683198674446     0.088828242363    14.003074004430
         N           -1.442140282498    -1.526342325554    -0.179985757637    14.003074004430
         N            1.103741717502     1.059533674446    -0.288295757637    14.003074004430
         N            1.357501717502    -1.266759325554     0.281813242363    14.003074004430
         C           -0.828751282498    -0.345574325554    -0.021823757637    12.000000000000
         C            0.622679717502    -0.170086325554    -0.003118757637    12.000000000000
         C           -2.985002282498     0.116039674446    -0.002781757637    12.000000000000
         C           -2.774561282498    -1.239747325554    -0.169403757637    12.000000000000
         C            2.440224717502     1.190289674446    -0.284989757637    12.000000000000
         C            2.686087717502    -1.103263325554     0.255704242363    12.000000000000
         C            3.291776717502     0.121870674446    -0.025499757637    12.000000000000
         H           -3.883528282498     0.713531674446     0.067594242363     1.007825032230
         H           -3.519236282498    -2.016895325554    -0.284083757637     1.007825032230
         H            2.825438717502     2.183812674446    -0.509590757637     1.007825032230
         H            3.279746717502    -1.988699325554     0.478473242363     1.007825032230
         H            4.370990717502     0.236444674446    -0.036302757637     1.007825032230
         C           -1.504487282498     2.108975674446     0.299561242363    12.000000000000
         H           -0.807426282498     2.255788674446     1.123775242363     1.007825032230
         H           -1.086796282498     2.565447674446    -0.596647757637     1.007825032230
         H           -2.464283282498     2.565932674446     0.546091242363     1.007825032230

  Basis Set: AUG-CC-PVTZ
    Blend: AUG-CC-PVTZ
  Basis Set: (AUG-CC-PVTZ AUX)
    Blend: AUG-CC-PVTZ-JKFIT
	 Reference Energy          =    -525.5579600029259382 [Eh]
	 Singles Energy            =      -0.0000000000000000 [Eh]
	 Same-Spin Energy          =      -0.5779691580700932 [Eh]
	 Opposite-Spin Energy      =      -1.7383287349704273 [Eh]
	 Correlation Energy        =      -2.3162978930405203 [Eh]
	 Total Energy              =    -527.8742578959664797 [Eh]

	 ================> DF-SCS-MP2 Energies <==================
	-----------------------------------------------------------
	 SCS Same-Spin Scale       =       0.3333333333333333 [-]
	 SCS Opposite-Spin Scale   =       1.2000000000000000 [-]
	 SCS Same-Spin Energy      =      -0.1926563860233644 [Eh]
	 SCS Opposite-Spin Energy  =      -2.0859944819645126 [Eh]
	 SCS Correlation Energy    =      -2.2786508679878770 [Eh]
	 SCS Total Energy          =    -527.8366108709137734 [Eh]
	-----------------------------------------------------------

  Dipole Moment: [D]
     X:     1.3920      Y:     4.1084      Z:     0.4797     Total:     4.3643

*** Psi4 exiting successfully. Buy a developer a beer!
