                               Psi4 1.3.2 release

  ==> Input File <==

--------------------------------------------------------------------------
#psi4
#
memory 32 gb

molecule  {
0 1
  N       -1.6995307     0.6346812     0.1226577
  N       -1.4345640    -1.5648400    -0.1846490
  N        1.1113180     1.0210360    -0.2929590
  N        1.3650780    -1.3052570     0.2771500
  C       -0.8211750    -0.3840720    -0.0264870
  C        0.6302560    -0.2085840    -0.0077820
  C       -2.9774260     0.0775420    -0.0074450
  C       -2.7669850    -1.2782450    -0.1740670
  C        2.4478010     1.1517920    -0.2896530
  C        2.6936640    -1.1417610     0.2510410
  C        3.2993530     0.0833730    -0.0301630
  H       -3.8759520     0.6750340     0.0629310
  H       -3.5116600    -2.0553930    -0.2887470
  H        2.8330150     2.1453150    -0.5142540
  H        3.2873230    -2.0271970     0.4738100
  H        4.3785670     0.1979470    -0.0409660
  C       -1.4969110     2.0704780     0.2948980
  H       -0.7998500     2.2172910     1.1191120
  H       -1.0792200     2.5269500    -0.6013110
  H       -2.4567070     2.5274350     0.5414280
units angstrom
no_reorient  #important for SAPT in psi4, default
symmetry c1  #important for SAPT in psi4, default
}

set PROPERTIES_ORIGIN ["COM"]
properties('MP2/aug-cc-pvtz', properties = ['dipole'])
--------------------------------------------------------------------------

    Molecular point group: c1
  Charge       = 0
  Multiplicity = 1
  Basis Set: AUG-CC-PVTZ
    Blend: AUG-CC-PVTZ
  Basis Set: (AUG-CC-PVTZ AUX)
    Blend: AUG-CC-PVTZ-JKFIT

    Orbital Energies [Eh]
    ---------------------

    Doubly Occupied:

       1A    -15.625032     2A    -15.580954     3A    -15.575610
       4A    -15.543094     5A    -11.333171     6A    -11.306360
       7A    -11.303361     8A    -11.295817     9A    -11.273311
      10A    -11.258866    11A    -11.252728    12A    -11.242164
      13A     -1.345293    14A     -1.308070    15A     -1.198389
      16A     -1.175999    17A     -1.089403    18A     -1.006154
      19A     -0.970381    20A     -0.899772    21A     -0.895183
      22A     -0.801832    23A     -0.784263    24A     -0.726209
      25A     -0.703348    26A     -0.685317    27A     -0.646155
      28A     -0.638833    29A     -0.607744    30A     -0.594547
      31A     -0.590761    32A     -0.579928    33A     -0.567239
      34A     -0.553177    35A     -0.542629    36A     -0.481473
      37A     -0.435059    38A     -0.424555    39A     -0.412604
      40A     -0.394393    41A     -0.377697    42A     -0.300976

  @DF-RHF Final Energy:  -525.55666731447036

   => Energetics <=

    Nuclear Repulsion Energy =            654.4141185149212561
    One-Electron Energy =               -2011.2858718350175877
    Two-Electron Energy =                 831.3150860056259717
    Total Energy =                       -525.5566673144703600
  Basis Set: (AUG-CC-PVTZ AUX)
    Blend: AUG-CC-PVTZ-RI
    Molecular point group: c1

    Geometry (in Angstrom), charge = 0, multiplicity = 1:

       Center              X                  Y                   Z               Mass
    ------------   -----------------  -----------------  -----------------  -----------------
         N           -1.709894941009     0.674055389153     0.123953667797    14.003074004430
         N           -1.444928241009    -1.525465810847    -0.183353032203    14.003074004430
         N            1.100953758991     1.060410189153    -0.291663032203    14.003074004430
         N            1.354713758991    -1.265882810847     0.278445967797    14.003074004430
         C           -0.831539241009    -0.344697810847    -0.025191032203    12.000000000000
         C            0.619891758991    -0.169209810847    -0.006486032203    12.000000000000
         C           -2.987790241009     0.116916189153    -0.006149032203    12.000000000000
         C           -2.777349241009    -1.238870810847    -0.172771032203    12.000000000000
         C            2.437436758991     1.191166189153    -0.288357032203    12.000000000000
         C            2.683299758991    -1.102386810847     0.252336967797    12.000000000000
         C            3.288988758991     0.122747189153    -0.028867032203    12.000000000000
         H           -3.886316241009     0.714408189153     0.064226967797     1.007825032230
         H           -3.522024241009    -2.016018810847    -0.287451032203     1.007825032230
         H            2.822650758991     2.184689189153    -0.512958032203     1.007825032230
         H            3.276958758991    -1.987822810847     0.475105967797     1.007825032230
         H            4.368202758991     0.237321189153    -0.039670032203     1.007825032230
         C           -1.507275241009     2.109852189153     0.296193967797    12.000000000000
         H           -0.810214241009     2.256665189153     1.120407967797     1.007825032230
         H           -1.089584241009     2.566324189153    -0.600015032203     1.007825032230
         H           -2.467071241009     2.566809189153     0.542723967797     1.007825032230

  Basis Set: AUG-CC-PVTZ
    Blend: AUG-CC-PVTZ
  Basis Set: (AUG-CC-PVTZ AUX)
    Blend: AUG-CC-PVTZ-JKFIT
	 Reference Energy          =    -525.5566673144703600 [Eh]
	 Singles Energy            =      -0.0000000000000000 [Eh]
	 Same-Spin Energy          =      -0.5777392822024128 [Eh]
	 Opposite-Spin Energy      =      -1.7382633731505928 [Eh]
	 Correlation Energy        =      -2.3160026553530058 [Eh]
	 Total Energy              =    -527.8726699698233915 [Eh]

	 ================> DF-SCS-MP2 Energies <==================
	-----------------------------------------------------------
	 SCS Same-Spin Scale       =       0.3333333333333333 [-]
	 SCS Opposite-Spin Scale   =       1.2000000000000000 [-]
	 SCS Same-Spin Energy      =      -0.1925797607341376 [Eh]
	 SCS Opposite-Spin Energy  =      -2.0859160477807110 [Eh]
	 SCS Correlation Energy    =      -2.2784958085148488 [Eh]
	 SCS Total Energy          =    -527.8351631229852501 [Eh]
	-----------------------------------------------------------

  Dipole Moment: [D]
     X:     1.4311      Y:     4.1036      Z:     0.4597     Total:     4.3702

*** Psi4 exiting successfully. Buy a developer a beer!
