                               Psi4 1.3.2 release

  ==> Input File <==

--------------------------------------------------------------------------
#psi4
#
memory 32 gb

molecule  {
0 1
  N       -1.7314010     0.6447010     0.0841650
  N       -1.4345640    -1.5648400    -0.1846490
  N        1.1332659     1.0128187    -0.2903919
  N        1.3650780    -1.3052570     0.2771500
  C       -0.8211750    -0.3840720    -0.0264870
  C        0.6302560    -0.2085840    -0.0077820
  C       -2.9774260     0.0775420    -0.0074450
  C       -2.7669850    -1.2782450    -0.1740670
  C        2.4478010     1.1517920    -0.2896530
  C        2.6936640    -1.1417610     0.2510410
  C        3.2993530     0.0833730    -0.0301630
  H       -3.8759520     0.6750340     0.0629310
  H       -3.5116600    -2.0553930    -0.2887470
  H        2.8330150     2.1453150    -0.5142540
  H        3.2873230    -2.0271970     0.4738100
  H        4.3785670     0.1979470    -0.0409660
  C       -1.4969110     2.0704780     0.2948980
  H       -0.7998500     2.2172910     1.1191120
  H       -1.0792200     2.5269500    -0.6013110
  H       -2.4567070     2.5274350     0.5414280
units angstrom
no_reorient  #important for SAPT in psi4, default
symmetry c1  #important for SAPT in psi4, default
}

set PROPERTIES_ORIGIN ["COM"]
properties('MP2/aug-cc-pvtz', properties = ['dipole'])
--------------------------------------------------------------------------

    Molecular point group: c1
  Charge       = 0
  Multiplicity = 1
  Basis Set: AUG-CC-PVTZ
    Blend: AUG-CC-PVTZ
  Basis Set: (AUG-CC-PVTZ AUX)
    Blend: AUG-CC-PVTZ-JKFIT

    Orbital Energies [Eh]
    ---------------------

    Doubly Occupied:

       1A    -15.626442     2A    -15.577161     3A    -15.574440
       4A    -15.547218     5A    -11.333635     6A    -11.302901
       7A    -11.301358     8A    -11.296406     9A    -11.274098
      10A    -11.260494    11A    -11.250585    12A    -11.240944
      13A     -1.345519    14A     -1.310649    15A     -1.200112
      16A     -1.178654    17A     -1.088392    18A     -1.008341
      19A     -0.969205    20A     -0.898832    21A     -0.894946
      22A     -0.802909    23A     -0.785869    24A     -0.727542
      25A     -0.704468    26A     -0.685994    27A     -0.646837
      28A     -0.639214    29A     -0.608384    30A     -0.593266
      31A     -0.587949    32A     -0.580208    33A     -0.570647
      34A     -0.557303    35A     -0.544081    36A     -0.480452
      37A     -0.436331    38A     -0.426018    39A     -0.409964
      40A     -0.395894    41A     -0.378055    42A     -0.298685

  @DF-RHF Final Energy:  -525.55871023604493

   => Energetics <=

    Nuclear Repulsion Energy =            654.3442821575977177
    One-Electron Energy =               -2011.1251809834393498
    Two-Electron Energy =                 831.2221885897967013
    Total Energy =                       -525.5587102360449308
  Basis Set: (AUG-CC-PVTZ AUX)
    Blend: AUG-CC-PVTZ-RI
    Molecular point group: c1

    Geometry (in Angstrom), charge = 0, multiplicity = 1:

       Center              X                  Y                   Z               Mass
    ------------   -----------------  -----------------  -----------------  -----------------
         N           -1.740897246684     0.683917509583     0.088603676911    14.003074004430
         N           -1.444060246684    -1.525623490417    -0.180210323089    14.003074004430
         N            1.123769653316     1.052035209583    -0.285953223089    14.003074004430
         N            1.355581753316    -1.266040490417     0.281588676911    14.003074004430
         C           -0.830671246684    -0.344855490417    -0.022048323089    12.000000000000
         C            0.620759753316    -0.169367490417    -0.003343323089    12.000000000000
         C           -2.986922246684     0.116758509583    -0.003006323089    12.000000000000
         C           -2.776481246684    -1.239028490417    -0.169628323089    12.000000000000
         C            2.438304753316     1.191008509583    -0.285214323089    12.000000000000
         C            2.684167753316    -1.102544490417     0.255479676911    12.000000000000
         C            3.289856753316     0.122589509583    -0.025724323089    12.000000000000
         H           -3.885448246684     0.714250509583     0.067369676911     1.007825032230
         H           -3.521156246684    -2.016176490417    -0.284308323089     1.007825032230
         H            2.823518753316     2.184531509583    -0.509815323089     1.007825032230
         H            3.277826753316    -1.987980490417     0.478248676911     1.007825032230
         H            4.369070753316     0.237163509583    -0.036527323089     1.007825032230
         C           -1.506407246684     2.109694509583     0.299336676911    12.000000000000
         H           -0.809346246684     2.256507509583     1.123550676911     1.007825032230
         H           -1.088716246684     2.566166509583    -0.596872323089     1.007825032230
         H           -2.466203246684     2.566651509583     0.545866676911     1.007825032230

  Basis Set: AUG-CC-PVTZ
    Blend: AUG-CC-PVTZ
  Basis Set: (AUG-CC-PVTZ AUX)
    Blend: AUG-CC-PVTZ-JKFIT
	 Reference Energy          =    -525.5587102360449308 [Eh]
	 Singles Energy            =      -0.0000000000000000 [Eh]
	 Same-Spin Energy          =      -0.5778092895865605 [Eh]
	 Opposite-Spin Energy      =      -1.7376651216653722 [Eh]
	 Correlation Energy        =      -2.3154744112519330 [Eh]
	 Total Energy              =    -527.8741846472968291 [Eh]

	 ================> DF-SCS-MP2 Energies <==================
	-----------------------------------------------------------
	 SCS Same-Spin Scale       =       0.3333333333333333 [-]
	 SCS Opposite-Spin Scale   =       1.2000000000000000 [-]
	 SCS Same-Spin Energy      =      -0.1926030965288535 [Eh]
	 SCS Opposite-Spin Energy  =      -2.0851981459984468 [Eh]
	 SCS Correlation Energy    =      -2.2778012425273002 [Eh]
	 SCS Total Energy          =    -527.8365114785722199 [Eh]
	-----------------------------------------------------------

  Dipole Moment: [D]
     X:     1.3124      Y:     4.1319      Z:     0.4737     Total:     4.3611

*** Psi4 exiting successfully. Buy a developer a beer!
