                               Psi4 1.3.2 release

  ==> Input File <==

--------------------------------------------------------------------------
#psi4
#
memory 32 gb

molecule  {
0 1
  N       -1.7314010     0.6447010     0.0841650
  N       -1.3066786    -1.6218470    -0.1928409
  N        1.1113180     1.0210360    -0.2929590
  N        1.3650780    -1.3052570     0.2771500
  C       -0.8211750    -0.3840720    -0.0264870
  C        0.6302560    -0.2085840    -0.0077820
  C       -2.9774260     0.0775420    -0.0074450
  C       -2.7669850    -1.2782450    -0.1740670
  C        2.4478010     1.1517920    -0.2896530
  C        2.6936640    -1.1417610     0.2510410
  C        3.2993530     0.0833730    -0.0301630
  H       -3.8759520     0.6750340     0.0629310
  H       -3.5116600    -2.0553930    -0.2887470
  H        2.8330150     2.1453150    -0.5142540
  H        3.2873230    -2.0271970     0.4738100
  H        4.3785670     0.1979470    -0.0409660
  C       -1.4969110     2.0704780     0.2948980
  H       -0.7998500     2.2172910     1.1191120
  H       -1.0792200     2.5269500    -0.6013110
  H       -2.4567070     2.5274350     0.5414280
units angstrom
no_reorient  #important for SAPT in psi4, default
symmetry c1  #important for SAPT in psi4, default
}

set PROPERTIES_ORIGIN ["COM"]
properties('MP2/aug-cc-pvtz', properties = ['dipole'])
--------------------------------------------------------------------------

    Molecular point group: c1
  Charge       = 0
  Multiplicity = 1
  Basis Set: AUG-CC-PVTZ
    Blend: AUG-CC-PVTZ
  Basis Set: (AUG-CC-PVTZ AUX)
    Blend: AUG-CC-PVTZ-JKFIT

    Orbital Energies [Eh]
    ---------------------

    Doubly Occupied:

       1A    -15.621755     2A    -15.579955     3A    -15.574721
       4A    -15.561928     5A    -11.330949     6A    -11.305320
       7A    -11.302673     8A    -11.301915     9A    -11.274221
      10A    -11.266163    11A    -11.252236    12A    -11.250706
      13A     -1.337119    14A     -1.305399    15A     -1.197038
      16A     -1.163728    17A     -1.086676    18A     -1.012097
      19A     -0.961346    20A     -0.898832    21A     -0.893561
      22A     -0.806817    23A     -0.778605    24A     -0.718294
      25A     -0.702620    26A     -0.684947    27A     -0.645564
      28A     -0.639205    29A     -0.605395    30A     -0.592456
      31A     -0.585533    32A     -0.580046    33A     -0.564380
      34A     -0.537706    35A     -0.536705    36A     -0.479535
      37A     -0.450066    38A     -0.423720    39A     -0.412683
      40A     -0.398835    41A     -0.364179    42A     -0.307035

  @DF-RHF Final Energy:  -525.53836303526714

   => Energetics <=

    Nuclear Repulsion Energy =            652.5539772480715328
    One-Electron Energy =               -2007.5993551278588711
    Two-Electron Energy =                 829.5070148445201994
    Total Energy =                       -525.5383630352671389
  Basis Set: (AUG-CC-PVTZ AUX)
    Blend: AUG-CC-PVTZ-RI
    Molecular point group: c1

    Geometry (in Angstrom), charge = 0, multiplicity = 1:

       Center              X                  Y                   Z               Mass
    ------------   -----------------  -----------------  -----------------  -----------------
         N           -1.750164475256     0.688185547830     0.089544855552    14.003074004430
         N           -1.325442075256    -1.578362452170    -0.187461044448    14.003074004430
         N            1.092554524744     1.064520547830    -0.287579144448    14.003074004430
         N            1.346314524744    -1.261772452170     0.282529855552    14.003074004430
         C           -0.839938475256    -0.340587452170    -0.021107144448    12.000000000000
         C            0.611492524744    -0.165099452170    -0.002402144448    12.000000000000
         C           -2.996189475256     0.121026547830    -0.002065144448    12.000000000000
         C           -2.785748475256    -1.234760452170    -0.168687144448    12.000000000000
         C            2.429037524744     1.195276547830    -0.284273144448    12.000000000000
         C            2.674900524744    -1.098276452170     0.256420855552    12.000000000000
         C            3.280589524744     0.126857547830    -0.024783144448    12.000000000000
         H           -3.894715475256     0.718518547830     0.068310855552     1.007825032230
         H           -3.530423475256    -2.011908452170    -0.283367144448     1.007825032230
         H            2.814251524744     2.188799547830    -0.508874144448     1.007825032230
         H            3.268559524744    -1.983712452170     0.479189855552     1.007825032230
         H            4.359803524744     0.241431547830    -0.035586144448     1.007825032230
         C           -1.515674475256     2.113962547830     0.300277855552    12.000000000000
         H           -0.818613475256     2.260775547830     1.124491855552     1.007825032230
         H           -1.097983475256     2.570434547830    -0.595931144448     1.007825032230
         H           -2.475470475256     2.570919547830     0.546807855552     1.007825032230

  Basis Set: AUG-CC-PVTZ
    Blend: AUG-CC-PVTZ
  Basis Set: (AUG-CC-PVTZ AUX)
    Blend: AUG-CC-PVTZ-JKFIT
	 Reference Energy          =    -525.5383630352671389 [Eh]
	 Singles Energy            =      -0.0000000000000000 [Eh]
	 Same-Spin Energy          =      -0.5778521173491979 [Eh]
	 Opposite-Spin Energy      =      -1.7421021106587442 [Eh]
	 Correlation Energy        =      -2.3199542280079424 [Eh]
	 Total Energy              =    -527.8583172632751257 [Eh]

	 ================> DF-SCS-MP2 Energies <==================
	-----------------------------------------------------------
	 SCS Same-Spin Scale       =       0.3333333333333333 [-]
	 SCS Opposite-Spin Scale   =       1.2000000000000000 [-]
	 SCS Same-Spin Energy      =      -0.1926173724497326 [Eh]
	 SCS Opposite-Spin Energy  =      -2.0905225327904930 [Eh]
	 SCS Correlation Energy    =      -2.2831399052402257 [Eh]
	 SCS Total Energy          =    -527.8215029405073437 [Eh]
	-----------------------------------------------------------

  Dipole Moment: [D]
     X:     1.3511      Y:     4.2111      Z:     0.5046     Total:     4.4513

*** Psi4 exiting successfully. Buy a developer a beer!
