                               Psi4 1.3.2 release

  ==> Input File <==

--------------------------------------------------------------------------
#psi4
#
memory 32 gb

molecule  {
0 1
  N       -1.8013390     0.5793397     0.0747337
  N       -1.4345640    -1.5648400    -0.1846490
  N        1.1113180     1.0210360    -0.2929590
  N        1.3650780    -1.3052570     0.2771500
  C       -0.8211750    -0.3840720    -0.0264870
  C        0.6302560    -0.2085840    -0.0077820
  C       -2.9774260     0.0775420    -0.0074450
  C       -2.7669850    -1.2782450    -0.1740670
  C        2.4478010     1.1517920    -0.2896530
  C        2.6936640    -1.1417610     0.2510410
  C        3.2993530     0.0833730    -0.0301630
  H       -3.8759520     0.6750340     0.0629310
  H       -3.5116600    -2.0553930    -0.2887470
  H        2.8330150     2.1453150    -0.5142540
  H        3.2873230    -2.0271970     0.4738100
  H        4.3785670     0.1979470    -0.0409660
  C       -1.4969110     2.0704780     0.2948980
  H       -0.7998500     2.2172910     1.1191120
  H       -1.0792200     2.5269500    -0.6013110
  H       -2.4567070     2.5274350     0.5414280
units angstrom
no_reorient  #important for SAPT in psi4, default
symmetry c1  #important for SAPT in psi4, default
}

set PROPERTIES_ORIGIN ["COM"]
properties('MP2/aug-cc-pvtz', properties = ['dipole'])
--------------------------------------------------------------------------

    Molecular point group: c1
  Charge       = 0
  Multiplicity = 1
  Basis Set: AUG-CC-PVTZ
    Blend: AUG-CC-PVTZ
  Basis Set: (AUG-CC-PVTZ AUX)
    Blend: AUG-CC-PVTZ-JKFIT

    Orbital Energies [Eh]
    ---------------------

    Doubly Occupied:

       1A    -15.628320     2A    -15.577954     3A    -15.573189
       4A    -15.545620     5A    -11.334252     6A    -11.304724
       7A    -11.302009     8A    -11.286221     9A    -11.282149
      10A    -11.255288    11A    -11.249804    12A    -11.232524
      13A     -1.360022    14A     -1.309486    15A     -1.195813
      16A     -1.173154    17A     -1.088349    18A     -1.014881
      19A     -0.963436    20A     -0.898171    21A     -0.893622
      22A     -0.808832    23A     -0.782456    24A     -0.727335
      25A     -0.701295    26A     -0.690121    27A     -0.647466
      28A     -0.644658    29A     -0.605647    30A     -0.591934
      31A     -0.586206    32A     -0.578213    33A     -0.562267
      34A     -0.554159    35A     -0.552556    36A     -0.480932
      37A     -0.433878    38A     -0.423366    39A     -0.411107
      40A     -0.402791    41A     -0.377290    42A     -0.292814

  @DF-RHF Final Energy:  -525.54580076835020

   => Energetics <=

    Nuclear Repulsion Energy =            654.5031796280563867
    One-Electron Energy =               -2011.4493355655738469
    Two-Electron Energy =                 831.4003551691672556
    Total Energy =                       -525.5458007683502046
  Basis Set: (AUG-CC-PVTZ AUX)
    Blend: AUG-CC-PVTZ-RI
    Molecular point group: c1

    Geometry (in Angstrom), charge = 0, multiplicity = 1:

       Center              X                  Y                   Z               Mass
    ------------   -----------------  -----------------  -----------------  -----------------
         N           -1.802797227685     0.623555067490     0.080221976112    14.003074004430
         N           -1.436022227685    -1.520624632510    -0.179160723888    14.003074004430
         N            1.109859772315     1.065251367490    -0.287470723888    14.003074004430
         N            1.363619772315    -1.261041632510     0.282638276112    14.003074004430
         C           -0.822633227685    -0.339856632510    -0.020998723888    12.000000000000
         C            0.628797772315    -0.164368632510    -0.002293723888    12.000000000000
         C           -2.978884227685     0.121757367490    -0.001956723888    12.000000000000
         C           -2.768443227685    -1.234029632510    -0.168578723888    12.000000000000
         C            2.446342772315     1.196007367490    -0.284164723888    12.000000000000
         C            2.692205772315    -1.097545632510     0.256529276112    12.000000000000
         C            3.297894772315     0.127588367490    -0.024674723888    12.000000000000
         H           -3.877410227685     0.719249367490     0.068419276112     1.007825032230
         H           -3.513118227685    -2.011177632510    -0.283258723888     1.007825032230
         H            2.831556772315     2.189530367490    -0.508765723888     1.007825032230
         H            3.285864772315    -1.982981632510     0.479298276112     1.007825032230
         H            4.377108772315     0.242162367490    -0.035477723888     1.007825032230
         C           -1.498369227685     2.114693367490     0.300386276112    12.000000000000
         H           -0.801308227685     2.261506367490     1.124600276112     1.007825032230
         H           -1.080678227685     2.571165367490    -0.595822723888     1.007825032230
         H           -2.458165227685     2.571650367490     0.546916276112     1.007825032230

  Basis Set: AUG-CC-PVTZ
    Blend: AUG-CC-PVTZ
  Basis Set: (AUG-CC-PVTZ AUX)
    Blend: AUG-CC-PVTZ-JKFIT
	 Reference Energy          =    -525.5458007683502046 [Eh]
	 Singles Energy            =      -0.0000000000000000 [Eh]
	 Same-Spin Energy          =      -0.5782526930596471 [Eh]
	 Opposite-Spin Energy      =      -1.7377582128421776 [Eh]
	 Correlation Energy        =      -2.3160109059018246 [Eh]
	 Total Energy              =    -527.8618116742520670 [Eh]

	 ================> DF-SCS-MP2 Energies <==================
	-----------------------------------------------------------
	 SCS Same-Spin Scale       =       0.3333333333333333 [-]
	 SCS Opposite-Spin Scale   =       1.2000000000000000 [-]
	 SCS Same-Spin Energy      =      -0.1927508976865490 [Eh]
	 SCS Opposite-Spin Energy  =      -2.0853098554106131 [Eh]
	 SCS Correlation Energy    =      -2.2780607530971619 [Eh]
	 SCS Total Energy          =    -527.8238615214473839 [Eh]
	-----------------------------------------------------------

  Dipole Moment: [D]
     X:     1.3443      Y:     4.3701      Z:     0.5122     Total:     4.6008

*** Psi4 exiting successfully. Buy a developer a beer!
