                               Psi4 1.3.2 release

  ==> Input File <==

--------------------------------------------------------------------------
#psi4
#
memory 32 gb

molecule  {
0 1
  N       -1.7314010     0.6447010     0.0841650
  N       -1.4345640    -1.5648400    -0.1846490
  N        1.1981638     0.9859451    -0.2821774
  N        1.3650780    -1.3052570     0.2771500
  C       -0.8211750    -0.3840720    -0.0264870
  C        0.6302560    -0.2085840    -0.0077820
  C       -2.9774260     0.0775420    -0.0074450
  C       -2.7669850    -1.2782450    -0.1740670
  C        2.4478010     1.1517920    -0.2896530
  C        2.6936640    -1.1417610     0.2510410
  C        3.2993530     0.0833730    -0.0301630
  H       -3.8759520     0.6750340     0.0629310
  H       -3.5116600    -2.0553930    -0.2887470
  H        2.8330150     2.1453150    -0.5142540
  H        3.2873230    -2.0271970     0.4738100
  H        4.3785670     0.1979470    -0.0409660
  C       -1.4969110     2.0704780     0.2948980
  H       -0.7998500     2.2172910     1.1191120
  H       -1.0792200     2.5269500    -0.6013110
  H       -2.4567070     2.5274350     0.5414280
units angstrom
no_reorient  #important for SAPT in psi4, default
symmetry c1  #important for SAPT in psi4, default
}

set PROPERTIES_ORIGIN ["COM"]
properties('MP2/aug-cc-pvtz', properties = ['dipole'])
--------------------------------------------------------------------------

    Molecular point group: c1
  Charge       = 0
  Multiplicity = 1
  Basis Set: AUG-CC-PVTZ
    Blend: AUG-CC-PVTZ
  Basis Set: (AUG-CC-PVTZ AUX)
    Blend: AUG-CC-PVTZ-JKFIT

    Orbital Energies [Eh]
    ---------------------

    Doubly Occupied:

       1A    -15.628267     2A    -15.573226     3A    -15.568307
       4A    -15.549167     5A    -11.334615     6A    -11.299403
       7A    -11.296497     8A    -11.293728     9A    -11.276279
      10A    -11.262120    11A    -11.246897    12A    -11.242623
      13A     -1.347973    14A     -1.319695    15A     -1.207050
      16A     -1.180906    17A     -1.086607    18A     -1.009400
      19A     -0.971121    20A     -0.903675    21A     -0.891838
      22A     -0.804575    23A     -0.790406    24A     -0.729490
      25A     -0.709961    26A     -0.686597    27A     -0.648716
      28A     -0.637471    29A     -0.611454    30A     -0.594301
      31A     -0.591629    32A     -0.582974    33A     -0.573156
      34A     -0.559756    35A     -0.546666    36A     -0.477452
      37A     -0.437333    38A     -0.431676    39A     -0.401208
      40A     -0.393941    41A     -0.378269    42A     -0.298843

  @DF-RHF Final Energy:  -525.55385967011330

   => Energetics <=

    Nuclear Repulsion Energy =            655.1089207672046086
    One-Electron Energy =               -2012.5750295129330425
    Two-Electron Energy =                 831.9122490756151365
    Total Energy =                       -525.5538596701132974
  Basis Set: (AUG-CC-PVTZ AUX)
    Blend: AUG-CC-PVTZ-RI
    Molecular point group: c1

    Geometry (in Angstrom), charge = 0, multiplicity = 1:

       Center              X                  Y                   Z               Mass
    ------------   -----------------  -----------------  -----------------  -----------------
         N           -1.746574402301     0.686268365453     0.087885086713    14.003074004430
         N           -1.449737402301    -1.523272634547    -0.180928913287    14.003074004430
         N            1.182990397699     1.027512465453    -0.278457313287    14.003074004430
         N            1.349904597699    -1.263689634547     0.280870086713    14.003074004430
         C           -0.836348402301    -0.342504634547    -0.022766913287    12.000000000000
         C            0.615082597699    -0.167016634547    -0.004061913287    12.000000000000
         C           -2.992599402301     0.119109365453    -0.003724913287    12.000000000000
         C           -2.782158402301    -1.236677634547    -0.170346913287    12.000000000000
         C            2.432627597699     1.193359365453    -0.285932913287    12.000000000000
         C            2.678490597699    -1.100193634547     0.254761086713    12.000000000000
         C            3.284179597699     0.124940365453    -0.026442913287    12.000000000000
         H           -3.891125402301     0.716601365453     0.066651086713     1.007825032230
         H           -3.526833402301    -2.013825634547    -0.285026913287     1.007825032230
         H            2.817841597699     2.186882365453    -0.510533913287     1.007825032230
         H            3.272149597699    -1.985629634547     0.477530086713     1.007825032230
         H            4.363393597699     0.239514365453    -0.037245913287     1.007825032230
         C           -1.512084402301     2.112045365453     0.298618086713    12.000000000000
         H           -0.815023402301     2.258858365453     1.122832086713     1.007825032230
         H           -1.094393402301     2.568517365453    -0.597590913287     1.007825032230
         H           -2.471880402301     2.569002365453     0.545148086713     1.007825032230

  Basis Set: AUG-CC-PVTZ
    Blend: AUG-CC-PVTZ
  Basis Set: (AUG-CC-PVTZ AUX)
    Blend: AUG-CC-PVTZ-JKFIT
	 Reference Energy          =    -525.5538596701132974 [Eh]
	 Singles Energy            =      -0.0000000000000000 [Eh]
	 Same-Spin Energy          =      -0.5774355539819112 [Eh]
	 Opposite-Spin Energy      =      -1.7361074708561350 [Eh]
	 Correlation Energy        =      -2.3135430248380464 [Eh]
	 Total Energy              =    -527.8674026949513518 [Eh]

	 ================> DF-SCS-MP2 Energies <==================
	-----------------------------------------------------------
	 SCS Same-Spin Scale       =       0.3333333333333333 [-]
	 SCS Opposite-Spin Scale   =       1.2000000000000000 [-]
	 SCS Same-Spin Energy      =      -0.1924785179939704 [Eh]
	 SCS Opposite-Spin Energy  =      -2.0833289650273619 [Eh]
	 SCS Correlation Energy    =      -2.2758074830213322 [Eh]
	 SCS Total Energy          =    -527.8296671531346647 [Eh]
	-----------------------------------------------------------

  Dipole Moment: [D]
     X:     1.0555      Y:     4.2056      Z:     0.4544     Total:     4.3598

*** Psi4 exiting successfully. Buy a developer a beer!
