                               Psi4 1.4a3.dev225

  ==> Input File <==

--------------------------------------------------------------------------
#psi4
#
memory 32 gb

molecule  {
0 1
  N       -1.7314010     0.6447010     0.0841650
  N       -1.4345640    -1.5648400    -0.1846490
  N        1.1113180     1.0210360    -0.2929590
  N        1.3650780    -1.3052570     0.2771500
  C       -0.8211750    -0.3840720    -0.0264870
  C        0.6302560    -0.2085840    -0.0077820
  C       -2.9774260     0.0775420    -0.0074450
  C       -2.7669850    -1.2782450    -0.1740670
  C        2.4478010     1.1517920    -0.2896530
  C        2.6936640    -1.1417610     0.2510410
  C        3.2993530     0.0833730    -0.0301630
  H       -3.8759520     0.6750340     0.0629310
  H       -3.4772617    -2.0194946    -0.2834497
  H        2.8330150     2.1453150    -0.5142540
  H        3.2873230    -2.0271970     0.4738100
  H        4.3785670     0.1979470    -0.0409660
  C       -1.4969110     2.0704780     0.2948980
  H       -0.7998500     2.2172910     1.1191120
  H       -1.0792200     2.5269500    -0.6013110
  H       -2.4567070     2.5274350     0.5414280
units angstrom
no_reorient  #important for SAPT in psi4, default
symmetry c1  #important for SAPT in psi4, default
}

set PROPERTIES_ORIGIN ["COM"]
properties('MP2/aug-cc-pvtz', properties = ['dipole'])
--------------------------------------------------------------------------

    Molecular point group: c1
  Charge       = 0
  Multiplicity = 1
  Basis Set: AUG-CC-PVTZ
    Blend: AUG-CC-PVTZ
  Basis Set: (AUG-CC-PVTZ AUX)
    Blend: AUG-CC-PVTZ-JKFIT

    Orbital Energies [Eh]
    ---------------------

    Doubly Occupied:

       1A    -15.625590     2A    -15.579871     3A    -15.574780
       4A    -15.546119     5A    -11.333229     6A    -11.305728
       7A    -11.302864     8A    -11.295087     9A    -11.273254
      10A    -11.259617    11A    -11.251723    12A    -11.234595
      13A     -1.344544    14A     -1.307926    15A     -1.197804
      16A     -1.177769    17A     -1.088905    18A     -1.008432
      19A     -0.968850    20A     -0.899354    21A     -0.894626
      22A     -0.806796    23A     -0.784305    24A     -0.728331
      25A     -0.702992    26A     -0.686661    27A     -0.646086
      28A     -0.639694    29A     -0.609614    30A     -0.593864
      31A     -0.586869    32A     -0.579322    33A     -0.570551
      34A     -0.560728    35A     -0.543039    36A     -0.481044
      37A     -0.436285    38A     -0.424118    39A     -0.412303
      40A     -0.396468    41A     -0.377656    42A     -0.298430

  @DF-RHF Final Energy:  -525.55713148757638

   => Energetics <=

    Nuclear Repulsion Energy =            654.3976702083037935
    One-Electron Energy =               -2011.2379562152759718
    Two-Electron Energy =                 831.2831545193959073
    Total Energy =                       -525.5571314875763846
  Basis Set: (AUG-CC-PVTZ AUX)
    Blend: AUG-CC-PVTZ-RI
    Molecular point group: c1

    Geometry (in Angstrom), charge = 0, multiplicity = 1:

       Center              X                  Y                   Z               Mass
    ------------   -----------------  -----------------  -----------------  -----------------
         N           -1.739193852795     0.682972659580     0.088794890777    14.003074004430
         N           -1.442356852795    -1.526568340420    -0.180019109223    14.003074004430
         N            1.103525147205     1.059307659580    -0.288329109223    14.003074004430
         N            1.357285147205    -1.266985340420     0.281779890777    14.003074004430
         C           -0.828967852795    -0.345800340420    -0.021857109223    12.000000000000
         C            0.622463147205    -0.170312340420    -0.003152109223    12.000000000000
         C           -2.985218852795     0.115813659580    -0.002815109223    12.000000000000
         C           -2.774777852795    -1.239973340420    -0.169437109223    12.000000000000
         C            2.440008147205     1.190063659580    -0.285023109223    12.000000000000
         C            2.685871147205    -1.103489340420     0.255670890777    12.000000000000
         C            3.291560147205     0.121644659580    -0.025533109223    12.000000000000
         H           -3.883744852795     0.713305659580     0.067560890777     1.007825032230
         H           -3.485054552795    -1.981222940420    -0.278819809223     1.007825032230
         H            2.825222147205     2.183586659580    -0.509624109223     1.007825032230
         H            3.279530147205    -1.988925340420     0.478439890777     1.007825032230
         H            4.370774147205     0.236218659580    -0.036336109223     1.007825032230
         C           -1.504703852795     2.108749659580     0.299527890777    12.000000000000
         H           -0.807642852795     2.255562659580     1.123741890777     1.007825032230
         H           -1.087012852795     2.565221659580    -0.596681109223     1.007825032230
         H           -2.464499852795     2.565706659580     0.546057890777     1.007825032230

  Basis Set: AUG-CC-PVTZ
    Blend: AUG-CC-PVTZ
  Basis Set: (AUG-CC-PVTZ AUX)
    Blend: AUG-CC-PVTZ-JKFIT
	 Reference Energy          =    -525.5571314875763846 [Eh]
	 Singles Energy            =      -0.0000000000000000 [Eh]
	 Same-Spin Energy          =      -0.5778799686321689 [Eh]
	 Opposite-Spin Energy      =      -1.7380310038323725 [Eh]
	 Correlation Energy        =      -2.3159109724645415 [Eh]
	 Total Energy              =    -527.8730424600408924 [Eh]

	 ================> DF-SCS-MP2 Energies <==================
	-----------------------------------------------------------
	 SCS Same-Spin Scale       =       0.3333333333333333 [-]
	 SCS Opposite-Spin Scale   =       1.2000000000000000 [-]
	 SCS Same-Spin Energy      =      -0.1926266562107230 [Eh]
	 SCS Opposite-Spin Energy  =      -2.0856372045988469 [Eh]
	 SCS Correlation Energy    =      -2.2782638608095698 [Eh]
	 SCS Total Energy          =    -527.8353953483859868 [Eh]
	-----------------------------------------------------------

  Dipole Moment: [D]
     X:     1.3796      Y:     4.1077      Z:     0.4794     Total:     4.3597

*** Psi4 exiting successfully. Buy a developer a beer!
