                               Psi4 1.3.2 release

  ==> Input File <==

--------------------------------------------------------------------------
#psi4
#
memory 32 gb

molecule  {
0 1
  N       -1.7314010     0.6447010     0.0841650
  N       -1.4345640    -1.5648400    -0.1846490
  N        1.1113180     1.0210360    -0.2929590
  N        1.3650780    -1.3052570     0.2771500
  C       -0.8211750    -0.3840720    -0.0264870
  C        0.6302560    -0.2085840    -0.0077820
  C       -2.9105551    -0.0482781    -0.0254503
  C       -2.7669850    -1.2782450    -0.1740670
  C        2.4478010     1.1517920    -0.2896530
  C        2.6936640    -1.1417610     0.2510410
  C        3.2993530     0.0833730    -0.0301630
  H       -3.8759520     0.6750340     0.0629310
  H       -3.5116600    -2.0553930    -0.2887470
  H        2.8330150     2.1453150    -0.5142540
  H        3.2873230    -2.0271970     0.4738100
  H        4.3785670     0.1979470    -0.0409660
  C       -1.4969110     2.0704780     0.2948980
  H       -0.7998500     2.2172910     1.1191120
  H       -1.0792200     2.5269500    -0.6013110
  H       -2.4567070     2.5274350     0.5414280
units angstrom
no_reorient  #important for SAPT in psi4, default
symmetry c1  #important for SAPT in psi4, default
}

set PROPERTIES_ORIGIN ["COM"]
properties('MP2/aug-cc-pvtz', properties = ['dipole'])
--------------------------------------------------------------------------

    Molecular point group: c1
  Charge       = 0
  Multiplicity = 1
  Basis Set: AUG-CC-PVTZ
    Blend: AUG-CC-PVTZ
  Basis Set: (AUG-CC-PVTZ AUX)
    Blend: AUG-CC-PVTZ-JKFIT

    Orbital Energies [Eh]
    ---------------------

    Doubly Occupied:

       1A    -15.616660     2A    -15.581265     3A    -15.575767
       4A    -15.541193     5A    -11.333155     6A    -11.306467
       7A    -11.303428     8A    -11.296346     9A    -11.274874
      10A    -11.253061    11A    -11.252902    12A    -11.220122
      13A     -1.351831    14A     -1.309963    15A     -1.198563
      16A     -1.177273    17A     -1.091765    18A     -1.020140
      19A     -0.969614    20A     -0.902769    21A     -0.898003
      22A     -0.800922    23A     -0.777918    24A     -0.730403
      25A     -0.702907    26A     -0.682911    27A     -0.648115
      28A     -0.633851    29A     -0.608202    30A     -0.599601
      31A     -0.586439    32A     -0.576576    33A     -0.568963
      34A     -0.551025    35A     -0.534987    36A     -0.480970
      37A     -0.432588    38A     -0.424549    39A     -0.412053
      40A     -0.398074    41A     -0.378237    42A     -0.314861

  @DF-RHF Final Energy:  -525.52861031308430

   => Energetics <=

    Nuclear Repulsion Energy =            656.4784230321820360
    One-Electron Energy =               -2015.3754459599235815
    Two-Electron Energy =                 833.3684126146572453
    Total Energy =                       -525.5286103130843003
  Basis Set: (AUG-CC-PVTZ AUX)
    Blend: AUG-CC-PVTZ-RI
    Molecular point group: c1

    Geometry (in Angstrom), charge = 0, multiplicity = 1:

       Center              X                  Y                   Z               Mass
    ------------   -----------------  -----------------  -----------------  -----------------
         N           -1.743990253418     0.692630766767     0.090178008035    14.003074004430
         N           -1.447153253418    -1.516910233233    -0.178635991965    14.003074004430
         N            1.098728746582     1.068965766767    -0.286945991965    14.003074004430
         N            1.352488746582    -1.257327233233     0.283163008035    14.003074004430
         C           -0.833764253418    -0.336142233233    -0.020473991965    12.000000000000
         C            0.617666746582    -0.160654233233    -0.001768991965    12.000000000000
         C           -2.923144353418    -0.000348333233    -0.019437291965    12.000000000000
         C           -2.779574253418    -1.230315233233    -0.168053991965    12.000000000000
         C            2.435211746582     1.199721766767    -0.283639991965    12.000000000000
         C            2.681074746582    -1.093831233233     0.257054008035    12.000000000000
         C            3.286763746582     0.131302766767    -0.024149991965    12.000000000000
         H           -3.888541253418     0.722963766767     0.068944008035     1.007825032230
         H           -3.524249253418    -2.007463233233    -0.282733991965     1.007825032230
         H            2.820425746582     2.193244766767    -0.508240991965     1.007825032230
         H            3.274733746582    -1.979267233233     0.479823008035     1.007825032230
         H            4.365977746582     0.245876766767    -0.034952991965     1.007825032230
         C           -1.509500253418     2.118407766767     0.300911008035    12.000000000000
         H           -0.812439253418     2.265220766767     1.125125008035     1.007825032230
         H           -1.091809253418     2.574879766767    -0.595297991965     1.007825032230
         H           -2.469296253418     2.575364766767     0.547441008035     1.007825032230

  Basis Set: AUG-CC-PVTZ
    Blend: AUG-CC-PVTZ
  Basis Set: (AUG-CC-PVTZ AUX)
    Blend: AUG-CC-PVTZ-JKFIT
	 Reference Energy          =    -525.5286103130843003 [Eh]
	 Singles Energy            =      -0.0000000000000000 [Eh]
	 Same-Spin Energy          =      -0.5767648170179955 [Eh]
	 Opposite-Spin Energy      =      -1.7367316163164146 [Eh]
	 Correlation Energy        =      -2.3134964333344099 [Eh]
	 Total Energy              =    -527.8421067464187217 [Eh]

	 ================> DF-SCS-MP2 Energies <==================
	-----------------------------------------------------------
	 SCS Same-Spin Scale       =       0.3333333333333333 [-]
	 SCS Opposite-Spin Scale   =       1.2000000000000000 [-]
	 SCS Same-Spin Energy      =      -0.1922549390059985 [Eh]
	 SCS Opposite-Spin Energy  =      -2.0840779395796973 [Eh]
	 SCS Correlation Energy    =      -2.2763328785856958 [Eh]
	 SCS Total Energy          =    -527.8049431916699632 [Eh]
	-----------------------------------------------------------

  Dipole Moment: [D]
     X:     1.5345      Y:     4.0075      Z:     0.4718     Total:     4.3171

*** Psi4 exiting successfully. Buy a developer a beer!
