                               Psi4 1.3.2 release

  ==> Input File <==

--------------------------------------------------------------------------
#psi4
#
memory 32 gb

molecule  {
0 1
  N       -1.7314010     0.6447010     0.0841650
  N       -1.4345640    -1.5648400    -0.1846490
  N        1.1113180     1.0210360    -0.2929590
  N        1.3650780    -1.3052570     0.2771500
  C       -0.9490341    -0.3266157    -0.0217513
  C        0.6302560    -0.2085840    -0.0077820
  C       -2.9774260     0.0775420    -0.0074450
  C       -2.7669850    -1.2782450    -0.1740670
  C        2.4478010     1.1517920    -0.2896530
  C        2.6936640    -1.1417610     0.2510410
  C        3.2993530     0.0833730    -0.0301630
  H       -3.8759520     0.6750340     0.0629310
  H       -3.5116600    -2.0553930    -0.2887470
  H        2.8330150     2.1453150    -0.5142540
  H        3.2873230    -2.0271970     0.4738100
  H        4.3785670     0.1979470    -0.0409660
  C       -1.4969110     2.0704780     0.2948980
  H       -0.7998500     2.2172910     1.1191120
  H       -1.0792200     2.5269500    -0.6013110
  H       -2.4567070     2.5274350     0.5414280
units angstrom
no_reorient  #important for SAPT in psi4, default
symmetry c1  #important for SAPT in psi4, default
}

set PROPERTIES_ORIGIN ["COM"]
properties('MP2/aug-cc-pvtz', properties = ['dipole'])
--------------------------------------------------------------------------

    Molecular point group: c1
  Charge       = 0
  Multiplicity = 1
  Basis Set: AUG-CC-PVTZ
    Blend: AUG-CC-PVTZ
  Basis Set: (AUG-CC-PVTZ AUX)
    Blend: AUG-CC-PVTZ-JKFIT

    Orbital Energies [Eh]
    ---------------------

    Doubly Occupied:

       1A    -15.628623     2A    -15.578930     3A    -15.575536
       4A    -15.536075     5A    -11.337207     6A    -11.304898
       7A    -11.303080     8A    -11.295240     9A    -11.282173
      10A    -11.251640    11A    -11.248078    12A    -11.241248
      13A     -1.379625    14A     -1.308240    15A     -1.198709
      16A     -1.186474    17A     -1.080714    18A     -1.003783
      19A     -0.989307    20A     -0.897073    21A     -0.885822
      22A     -0.815198    23A     -0.771887    24A     -0.734453
      25A     -0.701089    26A     -0.686245    27A     -0.663790
      28A     -0.634313    29A     -0.606003    30A     -0.601279
      31A     -0.590948    32A     -0.577954    33A     -0.564512
      34A     -0.555797    35A     -0.539128    36A     -0.469966
      37A     -0.442213    38A     -0.423368    39A     -0.412634
      40A     -0.389902    41A     -0.383490    42A     -0.303338

  @DF-RHF Final Energy:  -525.53696416279195

   => Energetics <=

    Nuclear Repulsion Energy =            654.8231632831726756
    One-Electron Energy =               -2011.9602861858234064
    Two-Electron Energy =                 831.6001587398588981
    Total Energy =                       -525.5369641627919464
  Basis Set: (AUG-CC-PVTZ AUX)
    Blend: AUG-CC-PVTZ-RI
    Molecular point group: c1

    Geometry (in Angstrom), charge = 0, multiplicity = 1:

       Center              X                  Y                   Z               Mass
    ------------   -----------------  -----------------  -----------------  -----------------
         N           -1.729392336728     0.678891468156     0.088473231044    14.003074004430
         N           -1.432555336728    -1.530649531844    -0.180340768956    14.003074004430
         N            1.113326663272     1.055226468156    -0.288650768956    14.003074004430
         N            1.367086663272    -1.271066531844     0.281458231044    14.003074004430
         C           -0.947025436728    -0.292425231844    -0.017443068956    12.000000000000
         C            0.632264663272    -0.174393531844    -0.003473768956    12.000000000000
         C           -2.975417336728     0.111732468156    -0.003136768956    12.000000000000
         C           -2.764976336728    -1.244054531844    -0.169758768956    12.000000000000
         C            2.449809663272     1.185982468156    -0.285344768956    12.000000000000
         C            2.695672663272    -1.107570531844     0.255349231044    12.000000000000
         C            3.301361663272     0.117563468156    -0.025854768956    12.000000000000
         H           -3.873943336728     0.709224468156     0.067239231044     1.007825032230
         H           -3.509651336728    -2.021202531844    -0.284438768956     1.007825032230
         H            2.835023663272     2.179505468156    -0.509945768956     1.007825032230
         H            3.289331663272    -1.993006531844     0.478118231044     1.007825032230
         H            4.380575663272     0.232137468156    -0.036657768956     1.007825032230
         C           -1.494902336728     2.104668468156     0.299206231044    12.000000000000
         H           -0.797841336728     2.251481468156     1.123420231044     1.007825032230
         H           -1.077211336728     2.561140468156    -0.597002768956     1.007825032230
         H           -2.454698336728     2.561625468156     0.545736231044     1.007825032230

  Basis Set: AUG-CC-PVTZ
    Blend: AUG-CC-PVTZ
  Basis Set: (AUG-CC-PVTZ AUX)
    Blend: AUG-CC-PVTZ-JKFIT
	 Reference Energy          =    -525.5369641627919464 [Eh]
	 Singles Energy            =      -0.0000000000000000 [Eh]
	 Same-Spin Energy          =      -0.5759795208931535 [Eh]
	 Opposite-Spin Energy      =      -1.7352705498679275 [Eh]
	 Correlation Energy        =      -2.3112500707610808 [Eh]
	 Total Energy              =    -527.8482142335529943 [Eh]

	 ================> DF-SCS-MP2 Energies <==================
	-----------------------------------------------------------
	 SCS Same-Spin Scale       =       0.3333333333333333 [-]
	 SCS Opposite-Spin Scale   =       1.2000000000000000 [-]
	 SCS Same-Spin Energy      =      -0.1919931736310512 [Eh]
	 SCS Opposite-Spin Energy  =      -2.0823246598415128 [Eh]
	 SCS Correlation Energy    =      -2.2743178334725638 [Eh]
	 SCS Total Energy          =    -527.8112819962644835 [Eh]
	-----------------------------------------------------------

  Dipole Moment: [D]
     X:     1.5702      Y:     4.3314      Z:     0.5204     Total:     4.6365

*** Psi4 exiting successfully. Buy a developer a beer!
