                               Psi4 1.3.2 release

  ==> Input File <==

--------------------------------------------------------------------------
#psi4
#
memory 32 gb

molecule  {
0 1
  N       -1.7314010     0.6447010     0.0841650
  N       -1.4178858    -1.4719551    -0.1726388
  N        1.1113180     1.0210360    -0.2929590
  N        1.3650780    -1.3052570     0.2771500
  C       -0.8211750    -0.3840720    -0.0264870
  C        0.6302560    -0.2085840    -0.0077820
  C       -2.9774260     0.0775420    -0.0074450
  C       -2.7669850    -1.2782450    -0.1740670
  C        2.4478010     1.1517920    -0.2896530
  C        2.6936640    -1.1417610     0.2510410
  C        3.2993530     0.0833730    -0.0301630
  H       -3.8759520     0.6750340     0.0629310
  H       -3.5116600    -2.0553930    -0.2887470
  H        2.8330150     2.1453150    -0.5142540
  H        3.2873230    -2.0271970     0.4738100
  H        4.3785670     0.1979470    -0.0409660
  C       -1.4969110     2.0704780     0.2948980
  H       -0.7998500     2.2172910     1.1191120
  H       -1.0792200     2.5269500    -0.6013110
  H       -2.4567070     2.5274350     0.5414280
units angstrom
no_reorient  #important for SAPT in psi4, default
symmetry c1  #important for SAPT in psi4, default
}

set PROPERTIES_ORIGIN ["COM"]
properties('MP2/aug-cc-pvtz', properties = ['dipole'])
--------------------------------------------------------------------------

    Molecular point group: c1
  Charge       = 0
  Multiplicity = 1
  Basis Set: AUG-CC-PVTZ
    Blend: AUG-CC-PVTZ
  Basis Set: (AUG-CC-PVTZ AUX)
    Blend: AUG-CC-PVTZ-JKFIT

    Orbital Energies [Eh]
    ---------------------

    Doubly Occupied:

       1A    -15.613945     2A    -15.580038     3A    -15.575248
       4A    -15.531676     5A    -11.332231     6A    -11.305694
       7A    -11.303048     8A    -11.283341     9A    -11.268436
      10A    -11.260868    11A    -11.252168    12A    -11.238518
      13A     -1.355856    14A     -1.309009    15A     -1.199753
      16A     -1.183700    17A     -1.089215    18A     -1.013878
      19A     -0.960975    20A     -0.899673    21A     -0.895485
      22A     -0.809593    23A     -0.783169    24A     -0.724410
      25A     -0.702600    26A     -0.687402    27A     -0.646304
      28A     -0.640741    29A     -0.609267    30A     -0.592010
      31A     -0.587048    32A     -0.578915    33A     -0.576286
      34A     -0.558491    35A     -0.547666    36A     -0.481579
      37A     -0.426923    38A     -0.423534    39A     -0.408997
      40A     -0.399173    41A     -0.375816    42A     -0.304534

  @DF-RHF Final Energy:  -525.55644379853595

   => Energetics <=

    Nuclear Repulsion Energy =            656.8892909889054863
    One-Electron Energy =               -2016.2570452123907216
    Two-Electron Energy =                 833.8113104249492835
    Total Energy =                       -525.5564437985359518
  Basis Set: (AUG-CC-PVTZ AUX)
    Blend: AUG-CC-PVTZ-RI
    Molecular point group: c1

    Geometry (in Angstrom), charge = 0, multiplicity = 1:

       Center              X                  Y                   Z               Mass
    ------------   -----------------  -----------------  -----------------  -----------------
         N           -1.740436262478     0.675073264660     0.087777610919    14.003074004430
         N           -1.426921062478    -1.441582835340    -0.169026189081    14.003074004430
         N            1.102282737522     1.051408264660    -0.289346389081    14.003074004430
         N            1.356042737522    -1.274884735340     0.280762610919    14.003074004430
         C           -0.830210262478    -0.353699735340    -0.022874389081    12.000000000000
         C            0.621220737522    -0.178211735340    -0.004169389081    12.000000000000
         C           -2.986461262478     0.107914264660    -0.003832389081    12.000000000000
         C           -2.776020262478    -1.247872735340    -0.170454389081    12.000000000000
         C            2.438765737522     1.182164264660    -0.286040389081    12.000000000000
         C            2.684628737522    -1.111388735340     0.254653610919    12.000000000000
         C            3.290317737522     0.113745264660    -0.026550389081    12.000000000000
         H           -3.884987262478     0.705406264660     0.066543610919     1.007825032230
         H           -3.520695262478    -2.025020735340    -0.285134389081     1.007825032230
         H            2.823979737522     2.175687264660    -0.510641389081     1.007825032230
         H            3.278287737522    -1.996824735340     0.477422610919     1.007825032230
         H            4.369531737522     0.228319264660    -0.037353389081     1.007825032230
         C           -1.505946262478     2.100850264660     0.298510610919    12.000000000000
         H           -0.808885262478     2.247663264660     1.122724610919     1.007825032230
         H           -1.088255262478     2.557322264660    -0.597698389081     1.007825032230
         H           -2.465742262478     2.557807264660     0.545040610919     1.007825032230

  Basis Set: AUG-CC-PVTZ
    Blend: AUG-CC-PVTZ
  Basis Set: (AUG-CC-PVTZ AUX)
    Blend: AUG-CC-PVTZ-JKFIT
	 Reference Energy          =    -525.5564437985359518 [Eh]
	 Singles Energy            =      -0.0000000000000000 [Eh]
	 Same-Spin Energy          =      -0.5759945396043931 [Eh]
	 Opposite-Spin Energy      =      -1.7341727373960274 [Eh]
	 Correlation Energy        =      -2.3101672770004207 [Eh]
	 Total Energy              =    -527.8666110755364116 [Eh]

	 ================> DF-SCS-MP2 Energies <==================
	-----------------------------------------------------------
	 SCS Same-Spin Scale       =       0.3333333333333333 [-]
	 SCS Opposite-Spin Scale   =       1.2000000000000000 [-]
	 SCS Same-Spin Energy      =      -0.1919981798681310 [Eh]
	 SCS Opposite-Spin Energy  =      -2.0810072848752328 [Eh]
	 SCS Correlation Energy    =      -2.2730054647433637 [Eh]
	 SCS Total Energy          =    -527.8294492632793435 [Eh]
	-----------------------------------------------------------

  Dipole Moment: [D]
     X:     1.5193      Y:     3.8429      Z:     0.4416     Total:     4.1559

*** Psi4 exiting successfully. Buy a developer a beer!
