                               Psi4 1.4a3.dev225

  ==> Input File <==

--------------------------------------------------------------------------
#psi4
#
memory 32 gb

molecule  {
0 1
  N       -1.7314010     0.6447010     0.0841650
  N       -1.4345640    -1.5648400    -0.1846490
  N        1.1113180     1.0210360    -0.2929590
  N        1.3650780    -1.3052570     0.2771500
  C       -0.7881501    -0.4213981    -0.0305017
  C        0.6302560    -0.2085840    -0.0077820
  C       -2.9774260     0.0775420    -0.0074450
  C       -2.7669850    -1.2782450    -0.1740670
  C        2.4478010     1.1517920    -0.2896530
  C        2.6936640    -1.1417610     0.2510410
  C        3.2993530     0.0833730    -0.0301630
  H       -3.8759520     0.6750340     0.0629310
  H       -3.5116600    -2.0553930    -0.2887470
  H        2.8330150     2.1453150    -0.5142540
  H        3.2873230    -2.0271970     0.4738100
  H        4.3785670     0.1979470    -0.0409660
  C       -1.4969110     2.0704780     0.2948980
  H       -0.7998500     2.2172910     1.1191120
  H       -1.0792200     2.5269500    -0.6013110
  H       -2.4567070     2.5274350     0.5414280
units angstrom
no_reorient  #important for SAPT in psi4, default
symmetry c1  #important for SAPT in psi4, default
}

set PROPERTIES_ORIGIN ["COM"]
properties('MP2/aug-cc-pvtz', properties = ['dipole'])
--------------------------------------------------------------------------

    Molecular point group: c1
  Charge       = 0
  Multiplicity = 1
  Basis Set: AUG-CC-PVTZ
    Blend: AUG-CC-PVTZ
  Basis Set: (AUG-CC-PVTZ AUX)
    Blend: AUG-CC-PVTZ-JKFIT

    Orbital Energies [Eh]
    ---------------------

    Doubly Occupied:

       1A    -15.622076     2A    -15.580383     3A    -15.574340
       4A    -15.549673     5A    -11.331744     6A    -11.306132
       7A    -11.302671     8A    -11.295965     9A    -11.270395
      10A    -11.264133    11A    -11.251730    12A    -11.240027
      13A     -1.337954    14A     -1.306624    15A     -1.198355
      16A     -1.178111    17A     -1.091273    18A     -1.009329
      19A     -0.963562    20A     -0.899769    21A     -0.894961
      22A     -0.798798    23A     -0.787388    24A     -0.724627
      25A     -0.703017    26A     -0.685471    27A     -0.641560
      28A     -0.641077    29A     -0.607702    30A     -0.592996
      31A     -0.587400    32A     -0.576540    33A     -0.572528
      34A     -0.557013    35A     -0.540776    36A     -0.482134
      37A     -0.434965    38A     -0.424378    39A     -0.412262
      40A     -0.400009    41A     -0.376701    42A     -0.297189

  @DF-RHF Final Energy:  -525.55380857571447

   => Energetics <=

    Nuclear Repulsion Energy =            653.9371548701315078
    One-Electron Energy =               -2010.3544527611986723
    Two-Electron Energy =                 830.8634893153526946
    Total Energy =                       -525.5538085757144700
  Basis Set: (AUG-CC-PVTZ AUX)
    Blend: AUG-CC-PVTZ-RI
    Molecular point group: c1

    Geometry (in Angstrom), charge = 0, multiplicity = 1:

       Center              X                  Y                   Z               Mass
    ------------   -----------------  -----------------  -----------------  -----------------
         N           -1.741452991115     0.685996822128     0.089129203982    14.003074004430
         N           -1.444615991115    -1.523544177872    -0.179684796018    14.003074004430
         N            1.101266008885     1.062331822128    -0.287994796018    14.003074004430
         N            1.355026008885    -1.263961177872     0.282114203982    14.003074004430
         C           -0.798202091115    -0.380102277872    -0.025537496018    12.000000000000
         C            0.620204008885    -0.167288177872    -0.002817796018    12.000000000000
         C           -2.987477991115     0.118837822128    -0.002480796018    12.000000000000
         C           -2.777036991115    -1.236949177872    -0.169102796018    12.000000000000
         C            2.437749008885     1.193087822128    -0.284688796018    12.000000000000
         C            2.683612008885    -1.100465177872     0.256005203982    12.000000000000
         C            3.289301008885     0.124668822128    -0.025198796018    12.000000000000
         H           -3.886003991115     0.716329822128     0.067895203982     1.007825032230
         H           -3.521711991115    -2.014097177872    -0.283782796018     1.007825032230
         H            2.822963008885     2.186610822128    -0.509289796018     1.007825032230
         H            3.277271008885    -1.985901177872     0.478774203982     1.007825032230
         H            4.368515008885     0.239242822128    -0.036001796018     1.007825032230
         C           -1.506962991115     2.111773822128     0.299862203982    12.000000000000
         H           -0.809901991115     2.258586822128     1.124076203982     1.007825032230
         H           -1.089271991115     2.568245822128    -0.596346796018     1.007825032230
         H           -2.466758991115     2.568730822128     0.546392203982     1.007825032230

  Basis Set: AUG-CC-PVTZ
    Blend: AUG-CC-PVTZ
  Basis Set: (AUG-CC-PVTZ AUX)
    Blend: AUG-CC-PVTZ-JKFIT
	 Reference Energy          =    -525.5538085757144700 [Eh]
	 Singles Energy            =      -0.0000000000000000 [Eh]
	 Same-Spin Energy          =      -0.5784158063872509 [Eh]
	 Opposite-Spin Energy      =      -1.7391578349014118 [Eh]
	 Correlation Energy        =      -2.3175736412886625 [Eh]
	 Total Energy              =    -527.8713822170030880 [Eh]

	 ================> DF-SCS-MP2 Energies <==================
	-----------------------------------------------------------
	 SCS Same-Spin Scale       =       0.3333333333333333 [-]
	 SCS Opposite-Spin Scale   =       1.2000000000000000 [-]
	 SCS Same-Spin Energy      =      -0.1928052687957503 [Eh]
	 SCS Opposite-Spin Energy  =      -2.0869894018816941 [Eh]
	 SCS Correlation Energy    =      -2.2797946706774446 [Eh]
	 SCS Total Energy          =    -527.8336032463919310 [Eh]
	-----------------------------------------------------------

  Dipole Moment: [D]
     X:     1.3783      Y:     4.0097      Z:     0.4620     Total:     4.2651

*** Psi4 exiting successfully. Buy a developer a beer!
