                               Psi4 1.3.2 release

  ==> Input File <==

--------------------------------------------------------------------------
#psi4
#
memory 32 gb

molecule  {
0 1
  N       -1.7314010     0.6447010     0.0841650
  N       -1.4136794    -1.5752582    -0.1861373
  N        1.1113180     1.0210360    -0.2929590
  N        1.3650780    -1.3052570     0.2771500
  C       -0.8211750    -0.3840720    -0.0264870
  C        0.6302560    -0.2085840    -0.0077820
  C       -2.9774260     0.0775420    -0.0074450
  C       -2.7669850    -1.2782450    -0.1740670
  C        2.4478010     1.1517920    -0.2896530
  C        2.6936640    -1.1417610     0.2510410
  C        3.2993530     0.0833730    -0.0301630
  H       -3.8759520     0.6750340     0.0629310
  H       -3.5116600    -2.0553930    -0.2887470
  H        2.8330150     2.1453150    -0.5142540
  H        3.2873230    -2.0271970     0.4738100
  H        4.3785670     0.1979470    -0.0409660
  C       -1.4969110     2.0704780     0.2948980
  H       -0.7998500     2.2172910     1.1191120
  H       -1.0792200     2.5269500    -0.6013110
  H       -2.4567070     2.5274350     0.5414280
units angstrom
no_reorient  #important for SAPT in psi4, default
symmetry c1  #important for SAPT in psi4, default
}

set PROPERTIES_ORIGIN ["COM"]
properties('MP2/aug-cc-pvtz', properties = ['dipole'])
--------------------------------------------------------------------------

    Molecular point group: c1
  Charge       = 0
  Multiplicity = 1
  Basis Set: AUG-CC-PVTZ
    Blend: AUG-CC-PVTZ
  Basis Set: (AUG-CC-PVTZ AUX)
    Blend: AUG-CC-PVTZ-JKFIT

    Orbital Energies [Eh]
    ---------------------

    Doubly Occupied:

       1A    -15.625049     2A    -15.580078     3A    -15.574956
       4A    -15.549281     5A    -11.333011     6A    -11.305796
       7A    -11.302964     8A    -11.296521     9A    -11.273528
      10A    -11.260922    11A    -11.251978    12A    -11.242270
      13A     -1.343091    14A     -1.307651    15A     -1.197699
      16A     -1.175068    17A     -1.088715    18A     -1.008572
      19A     -0.967262    20A     -0.899284    21A     -0.893867
      22A     -0.802945    23A     -0.783499    24A     -0.725451
      25A     -0.702747    26A     -0.685635    27A     -0.646054
      28A     -0.639624    29A     -0.606925    30A     -0.592817
      31A     -0.586536    32A     -0.579541    33A     -0.568648
      34A     -0.553554    35A     -0.542051    36A     -0.481003
      37A     -0.439175    38A     -0.424193    39A     -0.412657
      40A     -0.396984    41A     -0.375243    42A     -0.300105

  @DF-RHF Final Energy:  -525.55667652585339

   => Energetics <=

    Nuclear Repulsion Energy =            653.8174522245957405
    One-Electron Energy =               -2010.1023599180084602
    Two-Electron Energy =                 830.7282311675592155
    Total Energy =                       -525.5566765258533906
  Basis Set: (AUG-CC-PVTZ AUX)
    Blend: AUG-CC-PVTZ-RI
    Molecular point group: c1

    Geometry (in Angstrom), charge = 0, multiplicity = 1:

       Center              X                  Y                   Z               Mass
    ------------   -----------------  -----------------  -----------------  -----------------
         N           -1.740804231047     0.684110040494     0.088958436263    14.003074004430
         N           -1.423082631047    -1.535849159506    -0.181343863737    14.003074004430
         N            1.101914768953     1.060445040494    -0.288165563737    14.003074004430
         N            1.355674768953    -1.265847959506     0.281943436263    14.003074004430
         C           -0.830578231047    -0.344662959506    -0.021693563737    12.000000000000
         C            0.620852768953    -0.169174959506    -0.002988563737    12.000000000000
         C           -2.986829231047     0.116951040494    -0.002651563737    12.000000000000
         C           -2.776388231047    -1.238835959506    -0.169273563737    12.000000000000
         C            2.438397768953     1.191201040494    -0.284859563737    12.000000000000
         C            2.684260768953    -1.102351959506     0.255834436263    12.000000000000
         C            3.289949768953     0.122782040494    -0.025369563737    12.000000000000
         H           -3.885355231047     0.714443040494     0.067724436263     1.007825032230
         H           -3.521063231047    -2.015983959506    -0.283953563737     1.007825032230
         H            2.823611768953     2.184724040494    -0.509460563737     1.007825032230
         H            3.277919768953    -1.987787959506     0.478603436263     1.007825032230
         H            4.369163768953     0.237356040494    -0.036172563737     1.007825032230
         C           -1.506314231047     2.109887040494     0.299691436263    12.000000000000
         H           -0.809253231047     2.256700040494     1.123905436263     1.007825032230
         H           -1.088623231047     2.566359040494    -0.596517563737     1.007825032230
         H           -2.466110231047     2.566844040494     0.546221436263     1.007825032230

  Basis Set: AUG-CC-PVTZ
    Blend: AUG-CC-PVTZ
  Basis Set: (AUG-CC-PVTZ AUX)
    Blend: AUG-CC-PVTZ-JKFIT
	 Reference Energy          =    -525.5566765258533906 [Eh]
	 Singles Energy            =      -0.0000000000000000 [Eh]
	 Same-Spin Energy          =      -0.5778949254177281 [Eh]
	 Opposite-Spin Energy      =      -1.7388129097576863 [Eh]
	 Correlation Energy        =      -2.3167078351754142 [Eh]
	 Total Energy              =    -527.8733843610287977 [Eh]

	 ================> DF-SCS-MP2 Energies <==================
	-----------------------------------------------------------
	 SCS Same-Spin Scale       =       0.3333333333333333 [-]
	 SCS Opposite-Spin Scale   =       1.2000000000000000 [-]
	 SCS Same-Spin Energy      =      -0.1926316418059094 [Eh]
	 SCS Opposite-Spin Energy  =      -2.0865754917092234 [Eh]
	 SCS Correlation Energy    =      -2.2792071335151327 [Eh]
	 SCS Total Energy          =    -527.8358836593685055 [Eh]
	-----------------------------------------------------------

  Dipole Moment: [D]
     X:     1.3851      Y:     4.1326      Z:     0.4847     Total:     4.3855

*** Psi4 exiting successfully. Buy a developer a beer!
