                               Psi4 1.3.2 release

  ==> Input File <==

--------------------------------------------------------------------------
#psi4
#
memory 32 gb

molecule  {
0 1
  N       -1.7314010     0.6447010     0.0841650
  N       -1.4345640    -1.5648400    -0.1846490
  N        1.1113180     1.0210360    -0.2929590
  N        1.3650780    -1.3052570     0.2771500
  C       -0.8420551    -0.3735788    -0.0255757
  C        0.6302560    -0.2085840    -0.0077820
  C       -2.9774260     0.0775420    -0.0074450
  C       -2.7669850    -1.2782450    -0.1740670
  C        2.4478010     1.1517920    -0.2896530
  C        2.6936640    -1.1417610     0.2510410
  C        3.2993530     0.0833730    -0.0301630
  H       -3.8759520     0.6750340     0.0629310
  H       -3.5116600    -2.0553930    -0.2887470
  H        2.8330150     2.1453150    -0.5142540
  H        3.2873230    -2.0271970     0.4738100
  H        4.3785670     0.1979470    -0.0409660
  C       -1.4969110     2.0704780     0.2948980
  H       -0.7998500     2.2172910     1.1191120
  H       -1.0792200     2.5269500    -0.6013110
  H       -2.4567070     2.5274350     0.5414280
units angstrom
no_reorient  #important for SAPT in psi4, default
symmetry c1  #important for SAPT in psi4, default
}

set PROPERTIES_ORIGIN ["COM"]
properties('MP2/aug-cc-pvtz', properties = ['dipole'])
--------------------------------------------------------------------------

    Molecular point group: c1
  Charge       = 0
  Multiplicity = 1
  Basis Set: AUG-CC-PVTZ
    Blend: AUG-CC-PVTZ
  Basis Set: (AUG-CC-PVTZ AUX)
    Blend: AUG-CC-PVTZ-JKFIT

    Orbital Energies [Eh]
    ---------------------

    Doubly Occupied:

       1A    -15.626398     2A    -15.579979     3A    -15.575185
       4A    -15.544581     5A    -11.334415     6A    -11.305783
       7A    -11.303111     8A    -11.295236     9A    -11.274740
      10A    -11.257748    11A    -11.251954    12A    -11.240285
      13A     -1.349301    14A     -1.308530    15A     -1.197972
      16A     -1.179150    17A     -1.087445    18A     -1.007162
      19A     -0.971158    20A     -0.899039    21A     -0.892728
      22A     -0.804526    23A     -0.782486    24A     -0.728049
      25A     -0.702539    26A     -0.685939    27A     -0.648681
      28A     -0.638744    29A     -0.607103    30A     -0.593120
      31A     -0.588186    32A     -0.579777    33A     -0.567922
      34A     -0.555112    35A     -0.545103    36A     -0.480138
      37A     -0.437220    38A     -0.424181    39A     -0.412588
      40A     -0.395157    41A     -0.378765    42A     -0.299568

  @DF-RHF Final Energy:  -525.55851330985513

   => Energetics <=

    Nuclear Repulsion Energy =            654.2100724432397101
    One-Electron Energy =               -2010.8635604226062696
    Two-Electron Energy =                 831.0949746695115437
    Total Energy =                       -525.5585133098551296
  Basis Set: (AUG-CC-PVTZ AUX)
    Blend: AUG-CC-PVTZ-RI
    Molecular point group: c1

    Geometry (in Angstrom), charge = 0, multiplicity = 1:

       Center              X                  Y                   Z               Mass
    ------------   -----------------  -----------------  -----------------  -----------------
         N           -1.737412007706     0.682412052665     0.088759926841    14.003074004430
         N           -1.440575007706    -1.527128947335    -0.180054073159    14.003074004430
         N            1.105306992294     1.058747052665    -0.288364073159    14.003074004430
         N            1.359066992294    -1.267545947335     0.281744926841    14.003074004430
         C           -0.848066107706    -0.335867747335    -0.020980773159    12.000000000000
         C            0.624244992294    -0.170872947335    -0.003187073159    12.000000000000
         C           -2.983437007706     0.115253052665    -0.002850073159    12.000000000000
         C           -2.772996007706    -1.240533947335    -0.169472073159    12.000000000000
         C            2.441789992294     1.189503052665    -0.285058073159    12.000000000000
         C            2.687652992294    -1.104049947335     0.255635926841    12.000000000000
         C            3.293341992294     0.121084052665    -0.025568073159    12.000000000000
         H           -3.881963007706     0.712745052665     0.067525926841     1.007825032230
         H           -3.517671007706    -2.017681947335    -0.284152073159     1.007825032230
         H            2.827003992294     2.183026052665    -0.509659073159     1.007825032230
         H            3.281311992294    -1.989485947335     0.478404926841     1.007825032230
         H            4.372555992294     0.235658052665    -0.036371073159     1.007825032230
         C           -1.502922007706     2.108189052665     0.299492926841    12.000000000000
         H           -0.805861007706     2.255002052665     1.123706926841     1.007825032230
         H           -1.085231007706     2.564661052665    -0.596716073159     1.007825032230
         H           -2.462718007706     2.565146052665     0.546022926841     1.007825032230

  Basis Set: AUG-CC-PVTZ
    Blend: AUG-CC-PVTZ
  Basis Set: (AUG-CC-PVTZ AUX)
    Blend: AUG-CC-PVTZ-JKFIT
	 Reference Energy          =    -525.5585133098551296 [Eh]
	 Singles Energy            =      -0.0000000000000000 [Eh]
	 Same-Spin Energy          =      -0.5775440730979466 [Eh]
	 Opposite-Spin Energy      =      -1.7376206649567254 [Eh]
	 Correlation Energy        =      -2.3151647380546718 [Eh]
	 Total Energy              =    -527.8736780479098343 [Eh]

	 ================> DF-SCS-MP2 Energies <==================
	-----------------------------------------------------------
	 SCS Same-Spin Scale       =       0.3333333333333333 [-]
	 SCS Opposite-Spin Scale   =       1.2000000000000000 [-]
	 SCS Same-Spin Energy      =      -0.1925146910326489 [Eh]
	 SCS Opposite-Spin Energy  =      -2.0851447979480704 [Eh]
	 SCS Correlation Energy    =      -2.2776594889807193 [Eh]
	 SCS Total Energy          =    -527.8361727988358325 [Eh]
	-----------------------------------------------------------

  Dipole Moment: [D]
     X:     1.4274      Y:     4.1446      Z:     0.4864     Total:     4.4105

*** Psi4 exiting successfully. Buy a developer a beer!
