                               Psi4 1.3.2 release

  ==> Input File <==

--------------------------------------------------------------------------
#psi4
#
memory 32 gb

molecule  {
0 1
  N       -1.7314010     0.6447010     0.0841650
  N       -1.4345640    -1.5648400    -0.1846490
  N        1.1332522     1.0129157    -0.2899969
  N        1.3650780    -1.3052570     0.2771500
  C       -0.8211750    -0.3840720    -0.0264870
  C        0.6302560    -0.2085840    -0.0077820
  C       -2.9774260     0.0775420    -0.0074450
  C       -2.7669850    -1.2782450    -0.1740670
  C        2.4478010     1.1517920    -0.2896530
  C        2.6936640    -1.1417610     0.2510410
  C        3.2993530     0.0833730    -0.0301630
  H       -3.8759520     0.6750340     0.0629310
  H       -3.5116600    -2.0553930    -0.2887470
  H        2.8330150     2.1453150    -0.5142540
  H        3.2873230    -2.0271970     0.4738100
  H        4.3785670     0.1979470    -0.0409660
  C       -1.4969110     2.0704780     0.2948980
  H       -0.7998500     2.2172910     1.1191120
  H       -1.0792200     2.5269500    -0.6013110
  H       -2.4567070     2.5274350     0.5414280
units angstrom
no_reorient  #important for SAPT in psi4, default
symmetry c1  #important for SAPT in psi4, default
}

set PROPERTIES_ORIGIN ["COM"]
properties('MP2/aug-cc-pvtz', properties = ['dipole'])
--------------------------------------------------------------------------

    Molecular point group: c1
  Charge       = 0
  Multiplicity = 1
  Basis Set: AUG-CC-PVTZ
    Blend: AUG-CC-PVTZ
  Basis Set: (AUG-CC-PVTZ AUX)
    Blend: AUG-CC-PVTZ-JKFIT

    Orbital Energies [Eh]
    ---------------------

    Doubly Occupied:

       1A    -15.626442     2A    -15.577161     3A    -15.574440
       4A    -15.547218     5A    -11.333636     6A    -11.302902
       7A    -11.301359     8A    -11.296406     9A    -11.274095
      10A    -11.260495    11A    -11.250584    12A    -11.240944
      13A     -1.345519    14A     -1.310648    15A     -1.200112
      16A     -1.178654    17A     -1.088392    18A     -1.008341
      19A     -0.969204    20A     -0.898832    21A     -0.894946
      22A     -0.802909    23A     -0.785869    24A     -0.727541
      25A     -0.704467    26A     -0.685995    27A     -0.646837
      28A     -0.639215    29A     -0.608382    30A     -0.593265
      31A     -0.587947    32A     -0.580208    33A     -0.570648
      34A     -0.557302    35A     -0.544080    36A     -0.480450
      37A     -0.436329    38A     -0.426024    39A     -0.409961
      40A     -0.395896    41A     -0.378055    42A     -0.298683

  @DF-RHF Final Energy:  -525.55871103364893

   => Energetics <=

    Nuclear Repulsion Energy =            654.3447478158767581
    One-Electron Energy =               -2011.1261364653616965
    Two-Electron Energy =                 831.2226776158361190
    Total Energy =                       -525.5587110336489332
  Basis Set: (AUG-CC-PVTZ AUX)
    Blend: AUG-CC-PVTZ-RI
    Molecular point group: c1

    Geometry (in Angstrom), charge = 0, multiplicity = 1:

       Center              X                  Y                   Z               Mass
    ------------   -----------------  -----------------  -----------------  -----------------
         N           -1.740896048232     0.683909024191     0.088569122997    14.003074004430
         N           -1.444059048232    -1.525631975809    -0.180244877003    14.003074004430
         N            1.123757151768     1.052123724191    -0.285592777003    14.003074004430
         N            1.355582951768    -1.266048975809     0.281554122997    14.003074004430
         C           -0.830670048232    -0.344863975809    -0.022082877003    12.000000000000
         C            0.620760951768    -0.169375975809    -0.003377877003    12.000000000000
         C           -2.986921048232     0.116750024191    -0.003040877003    12.000000000000
         C           -2.776480048232    -1.239036975809    -0.169662877003    12.000000000000
         C            2.438305951768     1.191000024191    -0.285248877003    12.000000000000
         C            2.684168951768    -1.102552975809     0.255445122997    12.000000000000
         C            3.289857951768     0.122581024191    -0.025758877003    12.000000000000
         H           -3.885447048232     0.714242024191     0.067335122997     1.007825032230
         H           -3.521155048232    -2.016184975809    -0.284342877003     1.007825032230
         H            2.823519951768     2.184523024191    -0.509849877003     1.007825032230
         H            3.277827951768    -1.987988975809     0.478214122997     1.007825032230
         H            4.369071951768     0.237155024191    -0.036561877003     1.007825032230
         C           -1.506406048232     2.109686024191     0.299302122997    12.000000000000
         H           -0.809345048232     2.256499024191     1.123516122997     1.007825032230
         H           -1.088715048232     2.566158024191    -0.596906877003     1.007825032230
         H           -2.466202048232     2.566643024191     0.545832122997     1.007825032230

  Basis Set: AUG-CC-PVTZ
    Blend: AUG-CC-PVTZ
  Basis Set: (AUG-CC-PVTZ AUX)
    Blend: AUG-CC-PVTZ-JKFIT
	 Reference Energy          =    -525.5587110336489332 [Eh]
	 Singles Energy            =      -0.0000000000000000 [Eh]
	 Same-Spin Energy          =      -0.5778094216142017 [Eh]
	 Opposite-Spin Energy      =      -1.7376655624752788 [Eh]
	 Correlation Energy        =      -2.3154749840894806 [Eh]
	 Total Energy              =    -527.8741860177384524 [Eh]

	 ================> DF-SCS-MP2 Energies <==================
	-----------------------------------------------------------
	 SCS Same-Spin Scale       =       0.3333333333333333 [-]
	 SCS Opposite-Spin Scale   =       1.2000000000000000 [-]
	 SCS Same-Spin Energy      =      -0.1926031405380672 [Eh]
	 SCS Opposite-Spin Energy  =      -2.0851986749703344 [Eh]
	 SCS Correlation Energy    =      -2.2778018155084014 [Eh]
	 SCS Total Energy          =    -527.8365128491573159 [Eh]
	-----------------------------------------------------------

  Dipole Moment: [D]
     X:     1.3124      Y:     4.1318      Z:     0.4733     Total:     4.3610

*** Psi4 exiting successfully. Buy a developer a beer!
