                               Psi4 1.4a3.dev225

  ==> Input File <==

--------------------------------------------------------------------------
#psi4
#
memory 32 gb

molecule  {
0 1
  N       -1.7314010     0.6447010     0.0841650
  N       -1.4345640    -1.5648400    -0.1846490
  N        1.1113180     1.0210360    -0.2929590
  N        1.3650780    -1.3052570     0.2771500
  C       -0.7982865    -0.3400120    -0.0205852
  C        0.6302560    -0.2085840    -0.0077820
  C       -2.9774260     0.0775420    -0.0074450
  C       -2.7669850    -1.2782450    -0.1740670
  C        2.4478010     1.1517920    -0.2896530
  C        2.6936640    -1.1417610     0.2510410
  C        3.2993530     0.0833730    -0.0301630
  H       -3.8759520     0.6750340     0.0629310
  H       -3.5116600    -2.0553930    -0.2887470
  H        2.8330150     2.1453150    -0.5142540
  H        3.2873230    -2.0271970     0.4738100
  H        4.3785670     0.1979470    -0.0409660
  C       -1.4969110     2.0704780     0.2948980
  H       -0.7998500     2.2172910     1.1191120
  H       -1.0792200     2.5269500    -0.6013110
  H       -2.4567070     2.5274350     0.5414280
units angstrom
no_reorient  #important for SAPT in psi4, default
symmetry c1  #important for SAPT in psi4, default
}

set PROPERTIES_ORIGIN ["COM"]
properties('MP2/aug-cc-pvtz', properties = ['dipole'])
--------------------------------------------------------------------------

    Molecular point group: c1
  Charge       = 0
  Multiplicity = 1
  Basis Set: AUG-CC-PVTZ
    Blend: AUG-CC-PVTZ
  Basis Set: (AUG-CC-PVTZ AUX)
    Blend: AUG-CC-PVTZ-JKFIT

    Orbital Energies [Eh]
    ---------------------

    Doubly Occupied:

       1A    -15.631920     2A    -15.578826     3A    -15.574741
       4A    -15.548515     5A    -11.331989     6A    -11.305136
       7A    -11.302846     8A    -11.295363     9A    -11.274284
      10A    -11.260098    11A    -11.251198    12A    -11.242242
      13A     -1.345081    14A     -1.308171    15A     -1.196785
      16A     -1.170057    17A     -1.091277    18A     -1.008260
      19A     -0.971128    20A     -0.899524    21A     -0.896857
      22A     -0.801290    23A     -0.786076    24A     -0.727711
      25A     -0.702686    26A     -0.685701    27A     -0.648457
      28A     -0.641750    29A     -0.607352    30A     -0.593195
      31A     -0.586388    32A     -0.582623    33A     -0.568454
      34A     -0.555288    35A     -0.541212    36A     -0.482479
      37A     -0.432759    38A     -0.423939    39A     -0.411183
      40A     -0.396205    41A     -0.377198    42A     -0.295488

  @DF-RHF Final Energy:  -525.55133597238898

   => Energetics <=

    Nuclear Repulsion Energy =            654.1985164093835010
    One-Electron Energy =               -2010.8362432187311697
    Two-Electron Energy =                 831.0863908369586852
    Total Energy =                       -525.5513359723889835
  Basis Set: (AUG-CC-PVTZ AUX)
    Blend: AUG-CC-PVTZ-RI
    Molecular point group: c1

    Geometry (in Angstrom), charge = 0, multiplicity = 1:

       Center              X                  Y                   Z               Mass
    ------------   -----------------  -----------------  -----------------  -----------------
         N           -1.740693116813     0.679895720564     0.088385814464    14.003074004430
         N           -1.443856116813    -1.529645279436    -0.180428185536    14.003074004430
         N            1.102025883187     1.056230720564    -0.288738185536    14.003074004430
         N            1.355785883187    -1.270062279436     0.281370814464    14.003074004430
         C           -0.807578616813    -0.304817279436    -0.016364385536    12.000000000000
         C            0.620963883187    -0.173389279436    -0.003561185536    12.000000000000
         C           -2.986718116813     0.112736720564    -0.003224185536    12.000000000000
         C           -2.776277116813    -1.243050279436    -0.169846185536    12.000000000000
         C            2.438508883187     1.186986720564    -0.285432185536    12.000000000000
         C            2.684371883187    -1.106566279436     0.255261814464    12.000000000000
         C            3.290060883187     0.118567720564    -0.025942185536    12.000000000000
         H           -3.885244116813     0.710228720564     0.067151814464     1.007825032230
         H           -3.520952116813    -2.020198279436    -0.284526185536     1.007825032230
         H            2.823722883187     2.180509720564    -0.510033185536     1.007825032230
         H            3.278030883187    -1.992002279436     0.478030814464     1.007825032230
         H            4.369274883187     0.233141720564    -0.036745185536     1.007825032230
         C           -1.506203116813     2.105672720564     0.299118814464    12.000000000000
         H           -0.809142116813     2.252485720564     1.123332814464     1.007825032230
         H           -1.088512116813     2.562144720564    -0.597090185536     1.007825032230
         H           -2.465999116813     2.562629720564     0.545648814464     1.007825032230

  Basis Set: AUG-CC-PVTZ
    Blend: AUG-CC-PVTZ
  Basis Set: (AUG-CC-PVTZ AUX)
    Blend: AUG-CC-PVTZ-JKFIT
	 Reference Energy          =    -525.5513359723889835 [Eh]
	 Singles Energy            =      -0.0000000000000000 [Eh]
	 Same-Spin Energy          =      -0.5794050963262611 [Eh]
	 Opposite-Spin Energy      =      -1.7406678459973444 [Eh]
	 Correlation Energy        =      -2.3200729423236055 [Eh]
	 Total Energy              =    -527.8714089147125605 [Eh]

	 ================> DF-SCS-MP2 Energies <==================
	-----------------------------------------------------------
	 SCS Same-Spin Scale       =       0.3333333333333333 [-]
	 SCS Opposite-Spin Scale   =       1.2000000000000000 [-]
	 SCS Same-Spin Energy      =      -0.1931350321087537 [Eh]
	 SCS Opposite-Spin Energy  =      -2.0888014151968131 [Eh]
	 SCS Correlation Energy    =      -2.2819364473055668 [Eh]
	 SCS Total Energy          =    -527.8332724196945946 [Eh]
	-----------------------------------------------------------

  Dipole Moment: [D]
     X:     1.2494      Y:     4.1647      Z:     0.4898     Total:     4.3755

*** Psi4 exiting successfully. Buy a developer a beer!
