                               Psi4 1.3.2 release

  ==> Input File <==

--------------------------------------------------------------------------
#psi4
#
memory 32 gb

molecule  {
0 1
  N       -1.7121251     0.6011617     0.0790197
  N       -1.4345640    -1.5648400    -0.1846490
  N        1.1113180     1.0210360    -0.2929590
  N        1.3650780    -1.3052570     0.2771500
  C       -0.8211750    -0.3840720    -0.0264870
  C        0.6302560    -0.2085840    -0.0077820
  C       -2.9774260     0.0775420    -0.0074450
  C       -2.7669850    -1.2782450    -0.1740670
  C        2.4478010     1.1517920    -0.2896530
  C        2.6936640    -1.1417610     0.2510410
  C        3.2993530     0.0833730    -0.0301630
  H       -3.8759520     0.6750340     0.0629310
  H       -3.5116600    -2.0553930    -0.2887470
  H        2.8330150     2.1453150    -0.5142540
  H        3.2873230    -2.0271970     0.4738100
  H        4.3785670     0.1979470    -0.0409660
  C       -1.4969110     2.0704780     0.2948980
  H       -0.7998500     2.2172910     1.1191120
  H       -1.0792200     2.5269500    -0.6013110
  H       -2.4567070     2.5274350     0.5414280
units angstrom
no_reorient  #important for SAPT in psi4, default
symmetry c1  #important for SAPT in psi4, default
}

set PROPERTIES_ORIGIN ["COM"]
properties('MP2/aug-cc-pvtz', properties = ['dipole'])
--------------------------------------------------------------------------

    Molecular point group: c1
  Charge       = 0
  Multiplicity = 1
  Basis Set: AUG-CC-PVTZ
    Blend: AUG-CC-PVTZ
  Basis Set: (AUG-CC-PVTZ AUX)
    Blend: AUG-CC-PVTZ-JKFIT

    Orbital Energies [Eh]
    ---------------------

    Doubly Occupied:

       1A    -15.625876     2A    -15.580555     3A    -15.575266
       4A    -15.539864     5A    -11.333537     6A    -11.306181
       7A    -11.303184     8A    -11.290751     9A    -11.277762
      10A    -11.255878    11A    -11.252292    12A    -11.239345
      13A     -1.352116    14A     -1.309120    15A     -1.197619
      16A     -1.170304    17A     -1.089615    18A     -1.009151
      19A     -0.968952    20A     -0.899565    21A     -0.896113
      22A     -0.804325    23A     -0.783217    24A     -0.725934
      25A     -0.702958    26A     -0.686361    27A     -0.646627
      28A     -0.640499    29A     -0.607003    30A     -0.591656
      31A     -0.588397    32A     -0.581382    33A     -0.566455
      34A     -0.553281    35A     -0.547699    36A     -0.481952
      37A     -0.432790    38A     -0.424392    39A     -0.411855
      40A     -0.395087    41A     -0.377521    42A     -0.300246

  @DF-RHF Final Energy:  -525.55642472314719

   => Energetics <=

    Nuclear Repulsion Energy =            654.8564965261906536
    One-Electron Energy =               -2012.1804774916192855
    Two-Electron Energy =                 831.7675562422815574
    Total Energy =                       -525.5564247231471882
  Basis Set: (AUG-CC-PVTZ AUX)
    Blend: AUG-CC-PVTZ-RI
    Molecular point group: c1

    Geometry (in Angstrom), charge = 0, multiplicity = 1:

       Center              X                  Y                   Z               Mass
    ------------   -----------------  -----------------  -----------------  -----------------
         N           -1.721387604764     0.643468116817     0.084133044273    14.003074004430
         N           -1.443826504764    -1.522533583183    -0.179535655727    14.003074004430
         N            1.102055495236     1.063342416817    -0.287845655727    14.003074004430
         N            1.355815495236    -1.262950583183     0.282263344273    14.003074004430
         C           -0.830437504764    -0.341765583183    -0.021373655727    12.000000000000
         C            0.620993495236    -0.166277583183    -0.002668655727    12.000000000000
         C           -2.986688504764     0.119848416817    -0.002331655727    12.000000000000
         C           -2.776247504764    -1.235938583183    -0.168953655727    12.000000000000
         C            2.438538495236     1.194098416817    -0.284539655727    12.000000000000
         C            2.684401495236    -1.099454583183     0.256154344273    12.000000000000
         C            3.290090495236     0.125679416817    -0.025049655727    12.000000000000
         H           -3.885214504764     0.717340416817     0.068044344273     1.007825032230
         H           -3.520922504764    -2.013086583183    -0.283633655727     1.007825032230
         H            2.823752495236     2.187621416817    -0.509140655727     1.007825032230
         H            3.278060495236    -1.984890583183     0.478923344273     1.007825032230
         H            4.369304495236     0.240253416817    -0.035852655727     1.007825032230
         C           -1.506173504764     2.112784416817     0.300011344273    12.000000000000
         H           -0.809112504764     2.259597416817     1.124225344273     1.007825032230
         H           -1.088482504764     2.569256416817    -0.596197655727     1.007825032230
         H           -2.465969504764     2.569741416817     0.546541344273     1.007825032230

  Basis Set: AUG-CC-PVTZ
    Blend: AUG-CC-PVTZ
  Basis Set: (AUG-CC-PVTZ AUX)
    Blend: AUG-CC-PVTZ-JKFIT
	 Reference Energy          =    -525.5564247231471882 [Eh]
	 Singles Energy            =      -0.0000000000000000 [Eh]
	 Same-Spin Energy          =      -0.5776415521738814 [Eh]
	 Opposite-Spin Energy      =      -1.7376526112287491 [Eh]
	 Correlation Energy        =      -2.3152941634026307 [Eh]
	 Total Energy              =    -527.8717188865498429 [Eh]

	 ================> DF-SCS-MP2 Energies <==================
	-----------------------------------------------------------
	 SCS Same-Spin Scale       =       0.3333333333333333 [-]
	 SCS Opposite-Spin Scale   =       1.2000000000000000 [-]
	 SCS Same-Spin Energy      =      -0.1925471840579605 [Eh]
	 SCS Opposite-Spin Energy  =      -2.0851831334744988 [Eh]
	 SCS Correlation Energy    =      -2.2777303175324590 [Eh]
	 SCS Total Energy          =    -527.8341550406796614 [Eh]
	-----------------------------------------------------------

  Dipole Moment: [D]
     X:     1.4255      Y:     4.2377      Z:     0.4980     Total:     4.4987

*** Psi4 exiting successfully. Buy a developer a beer!
