                               Psi4 1.3.2 release

  ==> Input File <==

--------------------------------------------------------------------------
#psi4
#
memory 32 gb

molecule  {
0 1
  N       -1.7314010     0.6447010     0.0841650
  N       -1.4120153    -1.4251808    -0.1662358
  N        1.1113180     1.0210360    -0.2929590
  N        1.3650780    -1.3052570     0.2771500
  C       -0.8211750    -0.3840720    -0.0264870
  C        0.6302560    -0.2085840    -0.0077820
  C       -2.9774260     0.0775420    -0.0074450
  C       -2.7669850    -1.2782450    -0.1740670
  C        2.4478010     1.1517920    -0.2896530
  C        2.6936640    -1.1417610     0.2510410
  C        3.2993530     0.0833730    -0.0301630
  H       -3.8759520     0.6750340     0.0629310
  H       -3.5116600    -2.0553930    -0.2887470
  H        2.8330150     2.1453150    -0.5142540
  H        3.2873230    -2.0271970     0.4738100
  H        4.3785670     0.1979470    -0.0409660
  C       -1.4969110     2.0704780     0.2948980
  H       -0.7998500     2.2172910     1.1191120
  H       -1.0792200     2.5269500    -0.6013110
  H       -2.4567070     2.5274350     0.5414280
units angstrom
no_reorient  #important for SAPT in psi4, default
symmetry c1  #important for SAPT in psi4, default
}

set PROPERTIES_ORIGIN ["COM"]
properties('MP2/aug-cc-pvtz', properties = ['dipole'])
--------------------------------------------------------------------------

    Molecular point group: c1
  Charge       = 0
  Multiplicity = 1
  Basis Set: AUG-CC-PVTZ
    Blend: AUG-CC-PVTZ
  Basis Set: (AUG-CC-PVTZ AUX)
    Blend: AUG-CC-PVTZ-JKFIT

    Orbital Energies [Eh]
    ---------------------

    Doubly Occupied:

       1A    -15.607839     2A    -15.580009     3A    -15.575442
       4A    -15.523821     5A    -11.331413     6A    -11.305594
       7A    -11.303088     8A    -11.276720     9A    -11.265735
      10A    -11.261344    11A    -11.252334    12A    -11.237875
      13A     -1.363751    14A     -1.309457    15A     -1.200888
      16A     -1.185684    17A     -1.089351    18A     -1.017279
      19A     -0.956995    20A     -0.899942    21A     -0.896442
      22A     -0.813283    23A     -0.782355    24A     -0.723136
      25A     -0.702451    26A     -0.688339    27A     -0.647032
      28A     -0.641716    29A     -0.610568    30A     -0.592020
      31A     -0.588507    32A     -0.579870    33A     -0.576360
      34A     -0.557588    35A     -0.550357    36A     -0.481996
      37A     -0.424721    38A     -0.421752    39A     -0.405485
      40A     -0.400246    41A     -0.375095    42A     -0.307128

  @DF-RHF Final Energy:  -525.54617706142608

   => Energetics <=

    Nuclear Repulsion Energy =            658.3343122296496404
    One-Electron Energy =               -2019.1389624222197199
    Two-Electron Energy =                 835.2584731311440009
    Total Energy =                       -525.5461770614260786
  Basis Set: (AUG-CC-PVTZ AUX)
    Blend: AUG-CC-PVTZ-RI
    Molecular point group: c1

    Geometry (in Angstrom), charge = 0, multiplicity = 1:

       Center              X                  Y                   Z               Mass
    ------------   -----------------  -----------------  -----------------  -----------------
         N           -1.740949803625     0.670981530106     0.087217487595    14.003074004430
         N           -1.421564103625    -1.398900269894    -0.163183312405    14.003074004430
         N            1.101769196375     1.047316530106    -0.289906512405    14.003074004430
         N            1.355529196375    -1.278976469894     0.280202487595    14.003074004430
         C           -0.830723803625    -0.357791469894    -0.023434512405    12.000000000000
         C            0.620707196375    -0.182303469894    -0.004729512405    12.000000000000
         C           -2.986974803625     0.103822530106    -0.004392512405    12.000000000000
         C           -2.776533803625    -1.251964469894    -0.171014512405    12.000000000000
         C            2.438252196375     1.178072530106    -0.286600512405    12.000000000000
         C            2.684115196375    -1.115480469894     0.254093487595    12.000000000000
         C            3.289804196375     0.109653530106    -0.027110512405    12.000000000000
         H           -3.885500803625     0.701314530106     0.065983487595     1.007825032230
         H           -3.521208803625    -2.029112469894    -0.285694512405     1.007825032230
         H            2.823466196375     2.171595530106    -0.511201512405     1.007825032230
         H            3.277774196375    -2.000916469894     0.476862487595     1.007825032230
         H            4.369018196375     0.224227530106    -0.037913512405     1.007825032230
         C           -1.506459803625     2.096758530106     0.297950487595    12.000000000000
         H           -0.809398803625     2.243571530106     1.122164487595     1.007825032230
         H           -1.088768803625     2.553230530106    -0.598258512405     1.007825032230
         H           -2.466255803625     2.553715530106     0.544480487595     1.007825032230

  Basis Set: AUG-CC-PVTZ
    Blend: AUG-CC-PVTZ
  Basis Set: (AUG-CC-PVTZ AUX)
    Blend: AUG-CC-PVTZ-JKFIT
	 Reference Energy          =    -525.5461770614260786 [Eh]
	 Singles Energy            =      -0.0000000000000000 [Eh]
	 Same-Spin Energy          =      -0.5752069605126036 [Eh]
	 Opposite-Spin Energy      =      -1.7325248443548977 [Eh]
	 Correlation Energy        =      -2.3077318048675011 [Eh]
	 Total Energy              =    -527.8539088662935228 [Eh]

	 ================> DF-SCS-MP2 Energies <==================
	-----------------------------------------------------------
	 SCS Same-Spin Scale       =       0.3333333333333333 [-]
	 SCS Opposite-Spin Scale   =       1.2000000000000000 [-]
	 SCS Same-Spin Energy      =      -0.1917356535042012 [Eh]
	 SCS Opposite-Spin Energy  =      -2.0790298132258771 [Eh]
	 SCS Correlation Energy    =      -2.2707654667300785 [Eh]
	 SCS Total Energy          =    -527.8169425281561189 [Eh]
	-----------------------------------------------------------

  Dipole Moment: [D]
     X:     1.5824      Y:     3.6855      Z:     0.4182     Total:     4.0326

*** Psi4 exiting successfully. Buy a developer a beer!
