                               Psi4 1.3.2 release

  ==> Input File <==

--------------------------------------------------------------------------
#psi4
#
memory 32 gb

molecule  {
0 1
  N       -1.6674135     0.6264106     0.1613602
  N       -1.4345640    -1.5648400    -0.1846490
  N        1.1113180     1.0210360    -0.2929590
  N        1.3650780    -1.3052570     0.2771500
  C       -0.8211750    -0.3840720    -0.0264870
  C        0.6302560    -0.2085840    -0.0077820
  C       -2.9774260     0.0775420    -0.0074450
  C       -2.7669850    -1.2782450    -0.1740670
  C        2.4478010     1.1517920    -0.2896530
  C        2.6936640    -1.1417610     0.2510410
  C        3.2993530     0.0833730    -0.0301630
  H       -3.8759520     0.6750340     0.0629310
  H       -3.5116600    -2.0553930    -0.2887470
  H        2.8330150     2.1453150    -0.5142540
  H        3.2873230    -2.0271970     0.4738100
  H        4.3785670     0.1979470    -0.0409660
  C       -1.4969110     2.0704780     0.2948980
  H       -0.7998500     2.2172910     1.1191120
  H       -1.0792200     2.5269500    -0.6013110
  H       -2.4567070     2.5274350     0.5414280
units angstrom
no_reorient  #important for SAPT in psi4, default
symmetry c1  #important for SAPT in psi4, default
}

set PROPERTIES_ORIGIN ["COM"]
properties('MP2/aug-cc-pvtz', properties = ['dipole'])
--------------------------------------------------------------------------

    Molecular point group: c1
  Charge       = 0
  Multiplicity = 1
  Basis Set: AUG-CC-PVTZ
    Blend: AUG-CC-PVTZ
  Basis Set: (AUG-CC-PVTZ AUX)
    Blend: AUG-CC-PVTZ-JKFIT

    Orbital Energies [Eh]
    ---------------------

    Doubly Occupied:

       1A    -15.624141     2A    -15.581850     3A    -15.576262
       4A    -15.540024     5A    -11.332891     6A    -11.306857
       7A    -11.303729     8A    -11.296495     9A    -11.273301
      10A    -11.258072    11A    -11.253567    12A    -11.244151
      13A     -1.345808    14A     -1.308004    15A     -1.198904
      16A     -1.174660    17A     -1.089752    18A     -1.004948
      19A     -0.971524    20A     -0.900199    21A     -0.896279
      22A     -0.801009    23A     -0.784100    24A     -0.725424
      25A     -0.703965    26A     -0.684851    27A     -0.646012
      28A     -0.637749    29A     -0.608154    30A     -0.599620
      31A     -0.591876    32A     -0.579726    33A     -0.565772
      34A     -0.549620    35A     -0.539791    36A     -0.481558
      37A     -0.434173    38A     -0.424851    39A     -0.412802
      40A     -0.392831    41A     -0.377861    42A     -0.302818

  @DF-RHF Final Energy:  -525.55198885727327

   => Energetics <=

    Nuclear Repulsion Energy =            654.6501514231130159
    One-Electron Energy =               -2011.7523162540965131
    Two-Electron Energy =                 831.5501759737101111
    Total Energy =                       -525.5519888572732725
  Basis Set: (AUG-CC-PVTZ AUX)
    Blend: AUG-CC-PVTZ-RI
    Molecular point group: c1

    Geometry (in Angstrom), charge = 0, multiplicity = 1:

       Center              X                  Y                   Z               Mass
    ------------   -----------------  -----------------  -----------------  -----------------
         N           -1.680587297903     0.666508286882     0.159270540293    14.003074004430
         N           -1.447737797903    -1.524742313118    -0.186738659707    14.003074004430
         N            1.098144202097     1.061133686882    -0.295048659707    14.003074004430
         N            1.351904202097    -1.265159313118     0.275060340293    14.003074004430
         C           -0.834348797903    -0.343974313118    -0.028576659707    12.000000000000
         C            0.617082202097    -0.168486313118    -0.009871659707    12.000000000000
         C           -2.990599797903     0.117639686882    -0.009534659707    12.000000000000
         C           -2.780158797903    -1.238147313118    -0.176156659707    12.000000000000
         C            2.434627202097     1.191889686882    -0.291742659707    12.000000000000
         C            2.680490202097    -1.101663313118     0.248951340293    12.000000000000
         C            3.286179202097     0.123470686882    -0.032252659707    12.000000000000
         H           -3.889125797903     0.715131686882     0.060841340293     1.007825032230
         H           -3.524833797903    -2.015295313118    -0.290836659707     1.007825032230
         H            2.819841202097     2.185412686882    -0.516343659707     1.007825032230
         H            3.274149202097    -1.987099313118     0.471720340293     1.007825032230
         H            4.365393202097     0.238044686882    -0.043055659707     1.007825032230
         C           -1.510084797903     2.110575686882     0.292808340293    12.000000000000
         H           -0.813023797903     2.257388686882     1.117022340293     1.007825032230
         H           -1.092393797903     2.567047686882    -0.603400659707     1.007825032230
         H           -2.469880797903     2.567532686882     0.539338340293     1.007825032230

  Basis Set: AUG-CC-PVTZ
    Blend: AUG-CC-PVTZ
  Basis Set: (AUG-CC-PVTZ AUX)
    Blend: AUG-CC-PVTZ-JKFIT
	 Reference Energy          =    -525.5519888572732725 [Eh]
	 Singles Energy            =      -0.0000000000000000 [Eh]
	 Same-Spin Energy          =      -0.5775428965548337 [Eh]
	 Opposite-Spin Energy      =      -1.7383741379656643 [Eh]
	 Correlation Energy        =      -2.3159170345204982 [Eh]
	 Total Energy              =    -527.8679058917937255 [Eh]

	 ================> DF-SCS-MP2 Energies <==================
	-----------------------------------------------------------
	 SCS Same-Spin Scale       =       0.3333333333333333 [-]
	 SCS Opposite-Spin Scale   =       1.2000000000000000 [-]
	 SCS Same-Spin Energy      =      -0.1925142988516112 [Eh]
	 SCS Opposite-Spin Energy  =      -2.0860489655587973 [Eh]
	 SCS Correlation Energy    =      -2.2785632644104084 [Eh]
	 SCS Total Energy          =    -527.8305521216836951 [Eh]
	-----------------------------------------------------------

  Dipole Moment: [D]
     X:     1.4699      Y:     4.0897      Z:     0.4368     Total:     4.3678

*** Psi4 exiting successfully. Buy a developer a beer!
