                               Psi4 1.3.2 release

  ==> Input File <==

--------------------------------------------------------------------------
#psi4
#
memory 32 gb

molecule  {
0 1
  N       -1.7314010     0.6447010     0.0841650
  N       -1.4345640    -1.5648400    -0.1846490
  N        1.1113180     1.0210360    -0.2929590
  N        1.3650780    -1.3052570     0.2771500
  C       -0.7000363    -0.4544650    -0.0329556
  C        0.6302560    -0.2085840    -0.0077820
  C       -2.9774260     0.0775420    -0.0074450
  C       -2.7669850    -1.2782450    -0.1740670
  C        2.4478010     1.1517920    -0.2896530
  C        2.6936640    -1.1417610     0.2510410
  C        3.2993530     0.0833730    -0.0301630
  H       -3.8759520     0.6750340     0.0629310
  H       -3.5116600    -2.0553930    -0.2887470
  H        2.8330150     2.1453150    -0.5142540
  H        3.2873230    -2.0271970     0.4738100
  H        4.3785670     0.1979470    -0.0409660
  C       -1.4969110     2.0704780     0.2948980
  H       -0.7998500     2.2172910     1.1191120
  H       -1.0792200     2.5269500    -0.6013110
  H       -2.4567070     2.5274350     0.5414280
units angstrom
no_reorient  #important for SAPT in psi4, default
symmetry c1  #important for SAPT in psi4, default
}

set PROPERTIES_ORIGIN ["COM"]
properties('MP2/aug-cc-pvtz', properties = ['dipole'])
--------------------------------------------------------------------------

    Molecular point group: c1
  Charge       = 0
  Multiplicity = 1
  Basis Set: AUG-CC-PVTZ
    Blend: AUG-CC-PVTZ
  Basis Set: (AUG-CC-PVTZ AUX)
    Blend: AUG-CC-PVTZ-JKFIT

    Orbital Energies [Eh]
    ---------------------

    Doubly Occupied:

       1A    -15.620696     2A    -15.578804     3A    -15.572075
       4A    -15.559585     5A    -11.325187     6A    -11.305366
       7A    -11.301285     8A    -11.297589     9A    -11.273619
      10A    -11.266015    11A    -11.249786    12A    -11.242677
      13A     -1.329900    14A     -1.300092    15A     -1.197368
      16A     -1.172087    17A     -1.099386    18A     -1.012036
      19A     -0.961676    20A     -0.900129    21A     -0.898434
      22A     -0.794170    23A     -0.790911    24A     -0.721595
      25A     -0.702966    26A     -0.684541    27A     -0.647313
      28A     -0.634854    29A     -0.608134    30A     -0.595638
      31A     -0.589782    32A     -0.578896    33A     -0.564319
      34A     -0.556885    35A     -0.534317    36A     -0.483008
      37A     -0.429706    38A     -0.423918    39A     -0.409970
      40A     -0.406265    41A     -0.373936    42A     -0.291247

  @DF-RHF Final Energy:  -525.52597347870642

   => Energetics <=

    Nuclear Repulsion Energy =            653.7495047430278419
    One-Electron Energy =               -2009.9786243907349217
    Two-Electron Energy =                 830.7031461690007745
    Total Energy =                       -525.5259734787064190
  Basis Set: (AUG-CC-PVTZ AUX)
    Blend: AUG-CC-PVTZ-RI
    Molecular point group: c1

    Geometry (in Angstrom), charge = 0, multiplicity = 1:

       Center              X                  Y                   Z               Mass
    ------------   -----------------  -----------------  -----------------  -----------------
         N           -1.748058434096     0.688475679271     0.089313160372    14.003074004430
         N           -1.451221434096    -1.521065320729    -0.179500839628    14.003074004430
         N            1.094660565904     1.064810679271    -0.287810839628    14.003074004430
         N            1.348420565904    -1.261482320729     0.282298160372    14.003074004430
         C           -0.716693734096    -0.410690320729    -0.027807439628    12.000000000000
         C            0.613598565904    -0.164809320729    -0.002633839628    12.000000000000
         C           -2.994083434096     0.121316679271    -0.002296839628    12.000000000000
         C           -2.783642434096    -1.234470320729    -0.168918839628    12.000000000000
         C            2.431143565904     1.195566679271    -0.284504839628    12.000000000000
         C            2.677006565904    -1.097986320729     0.256189160372    12.000000000000
         C            3.282695565904     0.127147679271    -0.025014839628    12.000000000000
         H           -3.892609434096     0.718808679271     0.068079160372     1.007825032230
         H           -3.528317434096    -2.011618320729    -0.283598839628     1.007825032230
         H            2.816357565904     2.189089679271    -0.509105839628     1.007825032230
         H            3.270665565904    -1.983422320729     0.478958160372     1.007825032230
         H            4.361909565904     0.241721679271    -0.035817839628     1.007825032230
         C           -1.513568434096     2.114252679271     0.300046160372    12.000000000000
         H           -0.816507434096     2.261065679271     1.124260160372     1.007825032230
         H           -1.095877434096     2.570724679271    -0.596162839628     1.007825032230
         H           -2.473364434096     2.571209679271     0.546576160372     1.007825032230

  Basis Set: AUG-CC-PVTZ
    Blend: AUG-CC-PVTZ
  Basis Set: (AUG-CC-PVTZ AUX)
    Blend: AUG-CC-PVTZ-JKFIT
	 Reference Energy          =    -525.5259734787064190 [Eh]
	 Singles Energy            =      -0.0000000000000000 [Eh]
	 Same-Spin Energy          =      -0.5812450807578888 [Eh]
	 Opposite-Spin Energy      =      -1.7440867366181385 [Eh]
	 Correlation Energy        =      -2.3253318173760276 [Eh]
	 Total Energy              =    -527.8513052960825007 [Eh]

	 ================> DF-SCS-MP2 Energies <==================
	-----------------------------------------------------------
	 SCS Same-Spin Scale       =       0.3333333333333333 [-]
	 SCS Opposite-Spin Scale   =       1.2000000000000000 [-]
	 SCS Same-Spin Energy      =      -0.1937483602526296 [Eh]
	 SCS Opposite-Spin Energy  =      -2.0929040839417663 [Eh]
	 SCS Correlation Energy    =      -2.2866524441943961 [Eh]
	 SCS Total Energy          =    -527.8126259229007928 [Eh]
	-----------------------------------------------------------

  Dipole Moment: [D]
     X:     1.1865      Y:     3.8900      Z:     0.4409     Total:     4.0907

*** Psi4 exiting successfully. Buy a developer a beer!
