                               Psi4 1.3.2 release

  ==> Input File <==

--------------------------------------------------------------------------
#psi4
#
memory 32 gb

molecule  {
0 1
  N       -1.7493149     0.6288185     0.0818560
  N       -1.4345640    -1.5648400    -0.1846490
  N        1.1113180     1.0210360    -0.2929590
  N        1.3650780    -1.3052570     0.2771500
  C       -0.8211750    -0.3840720    -0.0264870
  C        0.6302560    -0.2085840    -0.0077820
  C       -2.9774260     0.0775420    -0.0074450
  C       -2.7669850    -1.2782450    -0.1740670
  C        2.4478010     1.1517920    -0.2896530
  C        2.6936640    -1.1417610     0.2510410
  C        3.2993530     0.0833730    -0.0301630
  H       -3.8759520     0.6750340     0.0629310
  H       -3.5116600    -2.0553930    -0.2887470
  H        2.8330150     2.1453150    -0.5142540
  H        3.2873230    -2.0271970     0.4738100
  H        4.3785670     0.1979470    -0.0409660
  C       -1.4969110     2.0704780     0.2948980
  H       -0.7998500     2.2172910     1.1191120
  H       -1.0792200     2.5269500    -0.6013110
  H       -2.4567070     2.5274350     0.5414280
units angstrom
no_reorient  #important for SAPT in psi4, default
symmetry c1  #important for SAPT in psi4, default
}

set PROPERTIES_ORIGIN ["COM"]
properties('MP2/aug-cc-pvtz', properties = ['dipole'])
--------------------------------------------------------------------------

    Molecular point group: c1
  Charge       = 0
  Multiplicity = 1
  Basis Set: AUG-CC-PVTZ
    Blend: AUG-CC-PVTZ
  Basis Set: (AUG-CC-PVTZ AUX)
    Blend: AUG-CC-PVTZ-JKFIT

    Orbital Energies [Eh]
    ---------------------

    Doubly Occupied:

       1A    -15.626496     2A    -15.579523     3A    -15.574511
       4A    -15.546319     5A    -11.333622     6A    -11.305575
       7A    -11.302748     8A    -11.293072     9A    -11.275557
      10A    -11.258794    11A    -11.251358    12A    -11.238373
      13A     -1.347795    14A     -1.308568    15A     -1.197346
      16A     -1.176221    17A     -1.088851    18A     -1.009721
      19A     -0.967219    20A     -0.899051    21A     -0.893827
      22A     -0.803777    23A     -0.784012    24A     -0.727084
      25A     -0.702407    26A     -0.686625    27A     -0.646183
      28A     -0.640819    29A     -0.606865    30A     -0.591941
      31A     -0.583677    32A     -0.578814    33A     -0.571815
      34A     -0.556920    35A     -0.545617    36A     -0.481182
      37A     -0.435645    38A     -0.424027    39A     -0.412064
      40A     -0.398030    41A     -0.377907    42A     -0.297222

  @DF-RHF Final Energy:  -525.55758399551291

   => Energetics <=

    Nuclear Repulsion Energy =            654.1888321100934718
    One-Electron Energy =               -2010.8384752624981502
    Two-Electron Energy =                 831.0920591568917644
    Total Energy =                       -525.5575839955129140
  Basis Set: (AUG-CC-PVTZ AUX)
    Blend: AUG-CC-PVTZ-RI
    Molecular point group: c1

    Geometry (in Angstrom), charge = 0, multiplicity = 1:

       Center              X                  Y                   Z               Mass
    ------------   -----------------  -----------------  -----------------  -----------------
         N           -1.755324105628     0.668705547971     0.086721229674    14.003074004430
         N           -1.440573205628    -1.524952952029    -0.179783770326    14.003074004430
         N            1.105308794372     1.060923047971    -0.288093770326    14.003074004430
         N            1.359068794372    -1.265369952029     0.282015229674    14.003074004430
         C           -0.827184205628    -0.344184952029    -0.021621770326    12.000000000000
         C            0.624246794372    -0.168696952029    -0.002916770326    12.000000000000
         C           -2.983435205628     0.117429047971    -0.002579770326    12.000000000000
         C           -2.772994205628    -1.238357952029    -0.169201770326    12.000000000000
         C            2.441791794372     1.191679047971    -0.284787770326    12.000000000000
         C            2.687654794372    -1.101873952029     0.255906229674    12.000000000000
         C            3.293343794372     0.123260047971    -0.025297770326    12.000000000000
         H           -3.881961205628     0.714921047971     0.067796229674     1.007825032230
         H           -3.517669205628    -2.015505952029    -0.283881770326     1.007825032230
         H            2.827005794372     2.185202047971    -0.509388770326     1.007825032230
         H            3.281313794372    -1.987309952029     0.478675229674     1.007825032230
         H            4.372557794372     0.237834047971    -0.036100770326     1.007825032230
         C           -1.502920205628     2.110365047971     0.299763229674    12.000000000000
         H           -0.805859205628     2.257178047971     1.123977229674     1.007825032230
         H           -1.085229205628     2.566837047971    -0.596445770326     1.007825032230
         H           -2.462716205628     2.567322047971     0.546293229674     1.007825032230

  Basis Set: AUG-CC-PVTZ
    Blend: AUG-CC-PVTZ
  Basis Set: (AUG-CC-PVTZ AUX)
    Blend: AUG-CC-PVTZ-JKFIT
	 Reference Energy          =    -525.5575839955129140 [Eh]
	 Singles Energy            =      -0.0000000000000000 [Eh]
	 Same-Spin Energy          =      -0.5779848714218656 [Eh]
	 Opposite-Spin Energy      =      -1.7380623891231108 [Eh]
	 Correlation Energy        =      -2.3160472605449764 [Eh]
	 Total Energy              =    -527.8736312560579336 [Eh]

	 ================> DF-SCS-MP2 Energies <==================
	-----------------------------------------------------------
	 SCS Same-Spin Scale       =       0.3333333333333333 [-]
	 SCS Opposite-Spin Scale   =       1.2000000000000000 [-]
	 SCS Same-Spin Energy      =      -0.1926616238072885 [Eh]
	 SCS Opposite-Spin Energy  =      -2.0856748669477327 [Eh]
	 SCS Correlation Energy    =      -2.2783364907550214 [Eh]
	 SCS Total Energy          =    -527.8359204862679235 [Eh]
	-----------------------------------------------------------

  Dipole Moment: [D]
     X:     1.3850      Y:     4.1732      Z:     0.4878     Total:     4.4240

*** Psi4 exiting successfully. Buy a developer a beer!
