                               Psi4 1.3.2 release

  ==> Input File <==

--------------------------------------------------------------------------
#psi4
#
memory 32 gb

molecule  {
0 1
  N       -1.7314010     0.6447010     0.0841650
  N       -1.4345640    -1.5648400    -0.1846490
  N        1.1113180     1.0210360    -0.2929590
  N        1.3650780    -1.3052570     0.2771500
  C       -0.8211750    -0.3840720    -0.0264870
  C        0.6302560    -0.2085840    -0.0077820
  C       -3.1190224     0.0486793    -0.0142285
  C       -2.7669850    -1.2782450    -0.1740670
  C        2.4478010     1.1517920    -0.2896530
  C        2.6936640    -1.1417610     0.2510410
  C        3.2993530     0.0833730    -0.0301630
  H       -3.8759520     0.6750340     0.0629310
  H       -3.5116600    -2.0553930    -0.2887470
  H        2.8330150     2.1453150    -0.5142540
  H        3.2873230    -2.0271970     0.4738100
  H        4.3785670     0.1979470    -0.0409660
  C       -1.4969110     2.0704780     0.2948980
  H       -0.7998500     2.2172910     1.1191120
  H       -1.0792200     2.5269500    -0.6013110
  H       -2.4567070     2.5274350     0.5414280
units angstrom
no_reorient  #important for SAPT in psi4, default
symmetry c1  #important for SAPT in psi4, default
}

set PROPERTIES_ORIGIN ["COM"]
properties('MP2/aug-cc-pvtz', properties = ['dipole'])
--------------------------------------------------------------------------

    Molecular point group: c1
  Charge       = 0
  Multiplicity = 1
  Basis Set: AUG-CC-PVTZ
    Blend: AUG-CC-PVTZ
  Basis Set: (AUG-CC-PVTZ AUX)
    Blend: AUG-CC-PVTZ-JKFIT

    Orbital Energies [Eh]
    ---------------------

    Doubly Occupied:

       1A    -15.616799     2A    -15.584460     3A    -15.579892
       4A    -15.543425     5A    -11.336650     6A    -11.308522
       7A    -11.306118     8A    -11.305940     9A    -11.265991
      10A    -11.259660    11A    -11.256351    12A    -11.251223
      13A     -1.329574    14A     -1.300923    15A     -1.200624
      16A     -1.165764    17A     -1.091275    18A     -1.008213
      19A     -0.958483    20A     -0.902213    21A     -0.899825
      22A     -0.807025    23A     -0.784334    24A     -0.718558
      25A     -0.708016    26A     -0.687062    27A     -0.646054
      28A     -0.633711    29A     -0.619051    30A     -0.596037
      31A     -0.587791    32A     -0.581939    33A     -0.568577
      34A     -0.534928    35A     -0.526999    36A     -0.483105
      37A     -0.437914    38A     -0.426767    39A     -0.415589
      40A     -0.394797    41A     -0.369778    42A     -0.308477

  @DF-RHF Final Energy:  -525.53143369357576

   => Energetics <=

    Nuclear Repulsion Energy =            650.9361772807662874
    One-Electron Energy =               -2004.3183534759427857
    Two-Electron Energy =                 827.8507425016007346
    Total Energy =                       -525.5314336935757638
  Basis Set: (AUG-CC-PVTZ AUX)
    Blend: AUG-CC-PVTZ-RI
    Molecular point group: c1

    Geometry (in Angstrom), charge = 0, multiplicity = 1:

       Center              X                  Y                   Z               Mass
    ------------   -----------------  -----------------  -----------------  -----------------
         N           -1.728362521286     0.685362364119     0.089336766821    14.003074004430
         N           -1.431525521286    -1.524178635881    -0.179477233179    14.003074004430
         N            1.114356478714     1.061697364119    -0.287787233179    14.003074004430
         N            1.368116478714    -1.264595635881     0.282321766821    14.003074004430
         C           -0.818136521286    -0.343410635881    -0.021315233179    12.000000000000
         C            0.633294478714    -0.167922635881    -0.002610233179    12.000000000000
         C           -3.115983921286     0.089340664119    -0.009056733179    12.000000000000
         C           -2.763946521286    -1.237583635881    -0.168895233179    12.000000000000
         C            2.450839478714     1.192453364119    -0.284481233179    12.000000000000
         C            2.696702478714    -1.101099635881     0.256212766821    12.000000000000
         C            3.302391478714     0.124034364119    -0.024991233179    12.000000000000
         H           -3.872913521286     0.715695364119     0.068102766821     1.007825032230
         H           -3.508621521286    -2.014731635881    -0.283575233179     1.007825032230
         H            2.836053478714     2.185976364119    -0.509082233179     1.007825032230
         H            3.290361478714    -1.986535635881     0.478981766821     1.007825032230
         H            4.381605478714     0.238608364119    -0.035794233179     1.007825032230
         C           -1.493872521286     2.111139364119     0.300069766821    12.000000000000
         H           -0.796811521286     2.257952364119     1.124283766821     1.007825032230
         H           -1.076181521286     2.567611364119    -0.596139233179     1.007825032230
         H           -2.453668521286     2.568096364119     0.546599766821     1.007825032230

  Basis Set: AUG-CC-PVTZ
    Blend: AUG-CC-PVTZ
  Basis Set: (AUG-CC-PVTZ AUX)
    Blend: AUG-CC-PVTZ-JKFIT
	 Reference Energy          =    -525.5314336935757638 [Eh]
	 Singles Energy            =      -0.0000000000000000 [Eh]
	 Same-Spin Energy          =      -0.5777846687287080 [Eh]
	 Opposite-Spin Energy      =      -1.7408905686432370 [Eh]
	 Correlation Energy        =      -2.3186752373719450 [Eh]
	 Total Energy              =    -527.8501089309477265 [Eh]

	 ================> DF-SCS-MP2 Energies <==================
	-----------------------------------------------------------
	 SCS Same-Spin Scale       =       0.3333333333333333 [-]
	 SCS Opposite-Spin Scale   =       1.2000000000000000 [-]
	 SCS Same-Spin Energy      =      -0.1925948895762360 [Eh]
	 SCS Opposite-Spin Energy  =      -2.0890686823718845 [Eh]
	 SCS Correlation Energy    =      -2.2816635719481204 [Eh]
	 SCS Total Energy          =    -527.8130972655238793 [Eh]
	-----------------------------------------------------------

  Dipole Moment: [D]
     X:     1.5862      Y:     3.9738      Z:     0.4597     Total:     4.3033

*** Psi4 exiting successfully. Buy a developer a beer!
