                               Psi4 1.4a3.dev225

  ==> Input File <==

--------------------------------------------------------------------------
#psi4
#
memory 32 gb

molecule  {
0 1
  N       -1.7314010     0.6447010     0.0841650
  N       -1.4345640    -1.5648400    -0.1846490
  N        1.1113180     1.0210360    -0.2929590
  N        1.3650780    -1.3052570     0.2771500
  C       -0.8211750    -0.3840720    -0.0264870
  C        0.6302560    -0.2085840    -0.0077820
  C       -2.9774260     0.0775420    -0.0074450
  C       -2.7669850    -1.2782450    -0.1740670
  C        2.4478010     1.1517920    -0.2896530
  C        2.6936640    -1.1417610     0.2510410
  C        3.2993530     0.0833730    -0.0301630
  H       -3.8759520     0.6750340     0.0629310
  H       -3.5460583    -2.0912914    -0.2940443
  H        2.8330150     2.1453150    -0.5142540
  H        3.2873230    -2.0271970     0.4738100
  H        4.3785670     0.1979470    -0.0409660
  C       -1.4969110     2.0704780     0.2948980
  H       -0.7998500     2.2172910     1.1191120
  H       -1.0792200     2.5269500    -0.6013110
  H       -2.4567070     2.5274350     0.5414280
units angstrom
no_reorient  #important for SAPT in psi4, default
symmetry c1  #important for SAPT in psi4, default
}

set PROPERTIES_ORIGIN ["COM"]
properties('MP2/aug-cc-pvtz', properties = ['dipole'])
--------------------------------------------------------------------------

    Molecular point group: c1
  Charge       = 0
  Multiplicity = 1
  Basis Set: AUG-CC-PVTZ
    Blend: AUG-CC-PVTZ
  Basis Set: (AUG-CC-PVTZ AUX)
    Blend: AUG-CC-PVTZ-JKFIT

    Orbital Energies [Eh]
    ---------------------

    Doubly Occupied:

       1A    -15.626084     2A    -15.580128     3A    -15.575021
       4A    -15.547022     5A    -11.333553     6A    -11.305936
       7A    -11.303064     8A    -11.295797     9A    -11.273556
      10A    -11.260326    11A    -11.251932    12A    -11.245960
      13A     -1.345125    14A     -1.308219    15A     -1.198052
      16A     -1.178019    17A     -1.089006    18A     -1.007571
      19A     -0.968385    20A     -0.899319    21A     -0.893325
      22A     -0.798730    23A     -0.784633    24A     -0.725768
      25A     -0.702453    26A     -0.684980    27A     -0.646443
      28A     -0.639936    29A     -0.605746    30A     -0.592061
      31A     -0.586976    32A     -0.579494    33A     -0.569594
      34A     -0.550471    35A     -0.543496    36A     -0.481238
      37A     -0.436100    38A     -0.424329    39A     -0.412492
      40A     -0.396788    41A     -0.378134    42A     -0.298768

  @DF-RHF Final Energy:  -525.55542476684263

   => Energetics <=

    Nuclear Repulsion Energy =            653.8542818099176657
    One-Electron Energy =               -2010.1713490958497914
    Two-Electron Energy =                 830.7616425190894915
    Total Energy =                       -525.5554247668426342
  Basis Set: (AUG-CC-PVTZ AUX)
    Blend: AUG-CC-PVTZ-RI
    Molecular point group: c1

    Geometry (in Angstrom), charge = 0, multiplicity = 1:

       Center              X                  Y                   Z               Mass
    ------------   -----------------  -----------------  -----------------  -----------------
         N           -1.738760712201     0.683424689311     0.088861593948    14.003074004430
         N           -1.441923712201    -1.526116310689    -0.179952406052    14.003074004430
         N            1.103958287799     1.059759689311    -0.288262406052    14.003074004430
         N            1.357718287799    -1.266533310689     0.281846593948    14.003074004430
         C           -0.828534712201    -0.345348310689    -0.021790406052    12.000000000000
         C            0.622896287799    -0.169860310689    -0.003085406052    12.000000000000
         C           -2.984785712201     0.116265689311    -0.002748406052    12.000000000000
         C           -2.774344712201    -1.239521310689    -0.169370406052    12.000000000000
         C            2.440441287799     1.190515689311    -0.284956406052    12.000000000000
         C            2.686304287799    -1.103037310689     0.255737593948    12.000000000000
         C            3.291993287799     0.122096689311    -0.025466406052    12.000000000000
         H           -3.883311712201     0.713757689311     0.067627593948     1.007825032230
         H           -3.553418012201    -2.052567710689    -0.289347706052     1.007825032230
         H            2.825655287799     2.184038689311    -0.509557406052     1.007825032230
         H            3.279963287799    -1.988473310689     0.478506593948     1.007825032230
         H            4.371207287799     0.236670689311    -0.036269406052     1.007825032230
         C           -1.504270712201     2.109201689311     0.299594593948    12.000000000000
         H           -0.807209712201     2.256014689311     1.123808593948     1.007825032230
         H           -1.086579712201     2.565673689311    -0.596614406052     1.007825032230
         H           -2.464066712201     2.566158689311     0.546124593948     1.007825032230

  Basis Set: AUG-CC-PVTZ
    Blend: AUG-CC-PVTZ
  Basis Set: (AUG-CC-PVTZ AUX)
    Blend: AUG-CC-PVTZ-JKFIT
	 Reference Energy          =    -525.5554247668426342 [Eh]
	 Singles Energy            =      -0.0000000000000000 [Eh]
	 Same-Spin Energy          =      -0.5780779020192262 [Eh]
	 Opposite-Spin Energy      =      -1.7387320898990786 [Eh]
	 Correlation Energy        =      -2.3168099919183049 [Eh]
	 Total Energy              =    -527.8722347587608965 [Eh]

	 ================> DF-SCS-MP2 Energies <==================
	-----------------------------------------------------------
	 SCS Same-Spin Scale       =       0.3333333333333333 [-]
	 SCS Opposite-Spin Scale   =       1.2000000000000000 [-]
	 SCS Same-Spin Energy      =      -0.1926926340064087 [Eh]
	 SCS Opposite-Spin Energy  =      -2.0864785078788941 [Eh]
	 SCS Correlation Energy    =      -2.2791711418853029 [Eh]
	 SCS Total Energy          =    -527.8345959087279198 [Eh]
	-----------------------------------------------------------

  Dipole Moment: [D]
     X:     1.4080      Y:     4.1117      Z:     0.4804     Total:     4.3726

*** Psi4 exiting successfully. Buy a developer a beer!
