                               Psi4 1.4a3.dev225

  ==> Input File <==

--------------------------------------------------------------------------
#psi4
#
memory 32 gb

molecule  {
0 1
  N       -1.7314010     0.6447010     0.0841650
  N       -1.4345640    -1.5648400    -0.1846490
  N        1.1113180     1.0210360    -0.2929590
  N        1.3650780    -1.3052570     0.2771500
  C       -0.8211750    -0.3840720    -0.0264870
  C        0.6411382    -0.2248250    -0.0035623
  C       -2.9774260     0.0775420    -0.0074450
  C       -2.7669850    -1.2782450    -0.1740670
  C        2.4478010     1.1517920    -0.2896530
  C        2.6936640    -1.1417610     0.2510410
  C        3.2993530     0.0833730    -0.0301630
  H       -3.8759520     0.6750340     0.0629310
  H       -3.5116600    -2.0553930    -0.2887470
  H        2.8330150     2.1453150    -0.5142540
  H        3.2873230    -2.0271970     0.4738100
  H        4.3785670     0.1979470    -0.0409660
  C       -1.4969110     2.0704780     0.2948980
  H       -0.7998500     2.2172910     1.1191120
  H       -1.0792200     2.5269500    -0.6013110
  H       -2.4567070     2.5274350     0.5414280
units angstrom
no_reorient  #important for SAPT in psi4, default
symmetry c1  #important for SAPT in psi4, default
}

set PROPERTIES_ORIGIN ["COM"]
properties('MP2/aug-cc-pvtz', properties = ['dipole'])
--------------------------------------------------------------------------

    Molecular point group: c1
  Charge       = 0
  Multiplicity = 1
  Basis Set: AUG-CC-PVTZ
    Blend: AUG-CC-PVTZ
  Basis Set: (AUG-CC-PVTZ AUX)
    Blend: AUG-CC-PVTZ-JKFIT

    Orbital Energies [Eh]
    ---------------------

    Doubly Occupied:

       1A    -15.625370     2A    -15.580754     3A    -15.574379
       4A    -15.545481     5A    -11.333202     6A    -11.306169
       7A    -11.304108     8A    -11.295284     9A    -11.272920
      10A    -11.259155    11A    -11.252202    12A    -11.239615
      13A     -1.344226    14A     -1.309939    15A     -1.199593
      16A     -1.177515    17A     -1.088717    18A     -1.007071
      19A     -0.967654    20A     -0.900838    21A     -0.893257
      22A     -0.801521    23A     -0.783822    24A     -0.726600
      25A     -0.703566    26A     -0.685809    27A     -0.645614
      28A     -0.639614    29A     -0.607748    30A     -0.592832
      31A     -0.586843    32A     -0.580021    33A     -0.569170
      34A     -0.555173    35A     -0.542839    36A     -0.481124
      37A     -0.435557    38A     -0.425374    39A     -0.413942
      40A     -0.396478    41A     -0.377476    42A     -0.298531

  @DF-RHF Final Energy:  -525.55809841705093

   => Energetics <=

    Nuclear Repulsion Energy =            654.0917261390720796
    One-Electron Energy =               -2010.6454410660692247
    Two-Electron Energy =                 830.9956165099462169
    Total Energy =                       -525.5580984170509282
  Basis Set: (AUG-CC-PVTZ AUX)
    Blend: AUG-CC-PVTZ-RI
    Molecular point group: c1

    Geometry (in Angstrom), charge = 0, multiplicity = 1:

       Center              X                  Y                   Z               Mass
    ------------   -----------------  -----------------  -----------------  -----------------
         N           -1.739793065629     0.684416179530     0.088511912937    14.003074004430
         N           -1.442956065629    -1.525124820470    -0.180302087063    14.003074004430
         N            1.102925934371     1.060751179530    -0.288612087063    14.003074004430
         N            1.356685934371    -1.265541820470     0.281496912937    14.003074004430
         C           -0.829567065629    -0.344356820470    -0.022140087063    12.000000000000
         C            0.632746134371    -0.185109820470     0.000784612937    12.000000000000
         C           -2.985818065629     0.117257179530    -0.003098087063    12.000000000000
         C           -2.775377065629    -1.238529820470    -0.169720087063    12.000000000000
         C            2.439408934371     1.191507179530    -0.285306087063    12.000000000000
         C            2.685271934371    -1.102045820470     0.255387912937    12.000000000000
         C            3.290960934371     0.123088179530    -0.025816087063    12.000000000000
         H           -3.884344065629     0.714749179530     0.067277912937     1.007825032230
         H           -3.520052065629    -2.015677820470    -0.284400087063     1.007825032230
         H            2.824622934371     2.185030179530    -0.509907087063     1.007825032230
         H            3.278930934371    -1.987481820470     0.478156912937     1.007825032230
         H            4.370174934371     0.237662179530    -0.036619087063     1.007825032230
         C           -1.505303065629     2.110193179530     0.299244912937    12.000000000000
         H           -0.808242065629     2.257006179530     1.123458912937     1.007825032230
         H           -1.087612065629     2.566665179530    -0.596964087063     1.007825032230
         H           -2.465099065629     2.567150179530     0.545774912937     1.007825032230

  Basis Set: AUG-CC-PVTZ
    Blend: AUG-CC-PVTZ
  Basis Set: (AUG-CC-PVTZ AUX)
    Blend: AUG-CC-PVTZ-JKFIT
	 Reference Energy          =    -525.5580984170509282 [Eh]
	 Singles Energy            =      -0.0000000000000000 [Eh]
	 Same-Spin Energy          =      -0.5777470349814746 [Eh]
	 Opposite-Spin Energy      =      -1.7379874342448045 [Eh]
	 Correlation Energy        =      -2.3157344692262791 [Eh]
	 Total Energy              =    -527.8738328862772278 [Eh]

	 ================> DF-SCS-MP2 Energies <==================
	-----------------------------------------------------------
	 SCS Same-Spin Scale       =       0.3333333333333333 [-]
	 SCS Opposite-Spin Scale   =       1.2000000000000000 [-]
	 SCS Same-Spin Energy      =      -0.1925823449938249 [Eh]
	 SCS Opposite-Spin Energy  =      -2.0855849210937651 [Eh]
	 SCS Correlation Energy    =      -2.2781672660875900 [Eh]
	 SCS Total Energy          =    -527.8362656831385493 [Eh]
	-----------------------------------------------------------

  Dipole Moment: [D]
     X:     1.4712      Y:     4.0971      Z:     0.4866     Total:     4.3803

*** Psi4 exiting successfully. Buy a developer a beer!
