                               Psi4 1.3.2 release

  ==> Input File <==

--------------------------------------------------------------------------
#psi4
#
memory 32 gb

molecule  {
0 1
  N       -1.7314010     0.6447010     0.0841650
  N       -1.4345640    -1.5648400    -0.1846490
  N        1.1113180     1.0210360    -0.2929590
  N        1.3650780    -1.3052570     0.2771500
  C       -0.8211750    -0.3840720    -0.0264870
  C        0.6302560    -0.2085840    -0.0077820
  C       -2.9774260     0.0775420    -0.0074450
  C       -2.7669850    -1.2782450    -0.1740670
  C        2.4478010     1.1517920    -0.2896530
  C        2.5944316    -1.1539726     0.2529911
  C        3.2993530     0.0833730    -0.0301630
  H       -3.8759520     0.6750340     0.0629310
  H       -3.5116600    -2.0553930    -0.2887470
  H        2.8330150     2.1453150    -0.5142540
  H        3.2873230    -2.0271970     0.4738100
  H        4.3785670     0.1979470    -0.0409660
  C       -1.4969110     2.0704780     0.2948980
  H       -0.7998500     2.2172910     1.1191120
  H       -1.0792200     2.5269500    -0.6013110
  H       -2.4567070     2.5274350     0.5414280
units angstrom
no_reorient  #important for SAPT in psi4, default
symmetry c1  #important for SAPT in psi4, default
}

set PROPERTIES_ORIGIN ["COM"]
properties('MP2/aug-cc-pvtz', properties = ['dipole'])
--------------------------------------------------------------------------

    Molecular point group: c1
  Charge       = 0
  Multiplicity = 1
  Basis Set: AUG-CC-PVTZ
    Blend: AUG-CC-PVTZ
  Basis Set: (AUG-CC-PVTZ AUX)
    Blend: AUG-CC-PVTZ-JKFIT

    Orbital Energies [Eh]
    ---------------------

    Doubly Occupied:

       1A    -15.627571     2A    -15.579244     3A    -15.569598
       4A    -15.549187     5A    -11.338079     6A    -11.301391
       7A    -11.299476     8A    -11.297272     9A    -11.274230
      10A    -11.262252    11A    -11.252679    12A    -11.242324
      13A     -1.349415    14A     -1.323950    15A     -1.216880
      16A     -1.181667    17A     -1.081270    18A     -1.007542
      19A     -0.970015    20A     -0.904365    21A     -0.887358
      22A     -0.803964    23A     -0.785492    24A     -0.727014
      25A     -0.708667    26A     -0.683671    27A     -0.647902
      28A     -0.640253    29A     -0.609197    30A     -0.591420
      31A     -0.589486    32A     -0.580249    33A     -0.568504
      34A     -0.557676    35A     -0.545216    36A     -0.484180
      37A     -0.442823    38A     -0.436719    39A     -0.405934
      40A     -0.391924    41A     -0.376813    42A     -0.298536

  @DF-RHF Final Energy:  -525.54775242292999

   => Energetics <=

    Nuclear Repulsion Energy =            655.7483651843211874
    One-Electron Energy =               -2013.8094262081347097
    Two-Electron Energy =                 832.5133086008836472
    Total Energy =                       -525.5477524229299888
  Basis Set: (AUG-CC-PVTZ AUX)
    Blend: AUG-CC-PVTZ-RI
    Molecular point group: c1

    Geometry (in Angstrom), charge = 0, multiplicity = 1:

       Center              X                  Y                   Z               Mass
    ------------   -----------------  -----------------  -----------------  -----------------
         N           -1.731538334683     0.684114115926     0.088682053294    14.003074004430
         N           -1.434701334683    -1.525426884074    -0.180131946706    14.003074004430
         N            1.111180665317     1.060449115926    -0.288441946706    14.003074004430
         N            1.364940665317    -1.265843884074     0.281667053294    14.003074004430
         C           -0.821312334683    -0.344658884074    -0.021969946706    12.000000000000
         C            0.630118665317    -0.169170884074    -0.003264946706    12.000000000000
         C           -2.977563334683     0.116955115926    -0.002927946706    12.000000000000
         C           -2.767122334683    -1.238831884074    -0.169549946706    12.000000000000
         C            2.447663665317     1.191205115926    -0.285135946706    12.000000000000
         C            2.594294265317    -1.114559484074     0.257508153294    12.000000000000
         C            3.299215665317     0.122786115926    -0.025645946706    12.000000000000
         H           -3.876089334683     0.714447115926     0.067448053294     1.007825032230
         H           -3.511797334683    -2.015979884074    -0.284229946706     1.007825032230
         H            2.832877665317     2.184728115926    -0.509736946706     1.007825032230
         H            3.287185665317    -1.987783884074     0.478327053294     1.007825032230
         H            4.378429665317     0.237360115926    -0.036448946706     1.007825032230
         C           -1.497048334683     2.109891115926     0.299415053294    12.000000000000
         H           -0.799987334683     2.256704115926     1.123629053294     1.007825032230
         H           -1.079357334683     2.566363115926    -0.596793946706     1.007825032230
         H           -2.456844334683     2.566848115926     0.545945053294     1.007825032230

  Basis Set: AUG-CC-PVTZ
    Blend: AUG-CC-PVTZ
  Basis Set: (AUG-CC-PVTZ AUX)
    Blend: AUG-CC-PVTZ-JKFIT
	 Reference Energy          =    -525.5477524229299888 [Eh]
	 Singles Energy            =      -0.0000000000000000 [Eh]
	 Same-Spin Energy          =      -0.5770311583853952 [Eh]
	 Opposite-Spin Energy      =      -1.7367306957747513 [Eh]
	 Correlation Energy        =      -2.3137618541601466 [Eh]
	 Total Energy              =    -527.8615142770901230 [Eh]

	 ================> DF-SCS-MP2 Energies <==================
	-----------------------------------------------------------
	 SCS Same-Spin Scale       =       0.3333333333333333 [-]
	 SCS Opposite-Spin Scale   =       1.2000000000000000 [-]
	 SCS Same-Spin Energy      =      -0.1923437194617984 [Eh]
	 SCS Opposite-Spin Energy  =      -2.0840768349297014 [Eh]
	 SCS Correlation Energy    =      -2.2764205543914997 [Eh]
	 SCS Total Energy          =    -527.8241729773214956 [Eh]
	-----------------------------------------------------------

  Dipole Moment: [D]
     X:     1.1503      Y:     4.0646      Z:     0.4889     Total:     4.2524

*** Psi4 exiting successfully. Buy a developer a beer!
