                               Psi4 1.3.2 release

  ==> Input File <==

--------------------------------------------------------------------------
#psi4
#
memory 32 gb

molecule  {
0 1
  N       -1.7314010     0.6447010     0.0841650
  N       -1.4345640    -1.5648400    -0.1846490
  N        1.1113180     1.0210360    -0.2929590
  N        1.3650780    -1.3052570     0.2771500
  C       -0.8211750    -0.3840720    -0.0264870
  C        0.6302560    -0.2085840    -0.0077820
  C       -2.9774260     0.0775420    -0.0074450
  C       -2.5714628    -1.3203005    -0.1756198
  C        2.4478010     1.1517920    -0.2896530
  C        2.6936640    -1.1417610     0.2510410
  C        3.2993530     0.0833730    -0.0301630
  H       -3.8759520     0.6750340     0.0629310
  H       -3.5116600    -2.0553930    -0.2887470
  H        2.8330150     2.1453150    -0.5142540
  H        3.2873230    -2.0271970     0.4738100
  H        4.3785670     0.1979470    -0.0409660
  C       -1.4969110     2.0704780     0.2948980
  H       -0.7998500     2.2172910     1.1191120
  H       -1.0792200     2.5269500    -0.6013110
  H       -2.4567070     2.5274350     0.5414280
units angstrom
no_reorient  #important for SAPT in psi4, default
symmetry c1  #important for SAPT in psi4, default
}

set PROPERTIES_ORIGIN ["COM"]
properties('MP2/aug-cc-pvtz', properties = ['dipole'])
--------------------------------------------------------------------------

    Molecular point group: c1
  Charge       = 0
  Multiplicity = 1
  Basis Set: AUG-CC-PVTZ
    Blend: AUG-CC-PVTZ
  Basis Set: (AUG-CC-PVTZ AUX)
    Blend: AUG-CC-PVTZ-JKFIT

    Orbital Energies [Eh]
    ---------------------

    Doubly Occupied:

       1A    -15.645122     2A    -15.574201     3A    -15.569679
       4A    -15.538675     5A    -11.329774     6A    -11.302699
       7A    -11.299960     8A    -11.289940     9A    -11.278028
      10A    -11.261297    11A    -11.247015    12A    -11.246285
      13A     -1.377302    14A     -1.307100    15A     -1.237007
      16A     -1.190492    17A     -1.085733    18A     -0.997156
      19A     -0.986855    20A     -0.896292    21A     -0.883222
      22A     -0.808128    23A     -0.779753    24A     -0.739909
      25A     -0.698228    26A     -0.682630    27A     -0.654283
      28A     -0.638984    29A     -0.618868    30A     -0.593416
      31A     -0.589102    32A     -0.581211    33A     -0.571544
      34A     -0.560899    35A     -0.547685    36A     -0.477685
      37A     -0.423495    38A     -0.422186    39A     -0.420744
      40A     -0.406627    41A     -0.390005    42A     -0.276044

  @DF-RHF Final Energy:  -525.49694531293073

   => Energetics <=

    Nuclear Repulsion Energy =            657.7813985205140170
    One-Electron Energy =               -2017.7061690424548033
    Two-Electron Energy =                 834.4278252090101660
    Total Energy =                       -525.4969453129307340
  Basis Set: (AUG-CC-PVTZ AUX)
    Blend: AUG-CC-PVTZ-RI
    Molecular point group: c1

    Geometry (in Angstrom), charge = 0, multiplicity = 1:

       Center              X                  Y                   Z               Mass
    ------------   -----------------  -----------------  -----------------  -----------------
         N           -1.753634586389     0.686351361168     0.088944647873    14.003074004430
         N           -1.456797586389    -1.523189638832    -0.179869352127    14.003074004430
         N            1.089084413611     1.062686361168    -0.288179352127    14.003074004430
         N            1.342844413611    -1.263606638832     0.281929647873    14.003074004430
         C           -0.843408586389    -0.342421638832    -0.021707352127    12.000000000000
         C            0.608022413611    -0.166933638832    -0.003002352127    12.000000000000
         C           -2.999659586389     0.119192361168    -0.002665352127    12.000000000000
         C           -2.593696386389    -1.278650138832    -0.170840152127    12.000000000000
         C            2.425567413611     1.193442361168    -0.284873352127    12.000000000000
         C            2.671430413611    -1.100110638832     0.255820647873    12.000000000000
         C            3.277119413611     0.125023361168    -0.025383352127    12.000000000000
         H           -3.898185586389     0.716684361168     0.067710647873     1.007825032230
         H           -3.533893586389    -2.013742638832    -0.283967352127     1.007825032230
         H            2.810781413611     2.186965361168    -0.509474352127     1.007825032230
         H            3.265089413611    -1.985546638832     0.478589647873     1.007825032230
         H            4.356333413611     0.239597361168    -0.036186352127     1.007825032230
         C           -1.519144586389     2.112128361168     0.299677647873    12.000000000000
         H           -0.822083586389     2.258941361168     1.123891647873     1.007825032230
         H           -1.101453586389     2.568600361168    -0.596531352127     1.007825032230
         H           -2.478940586389     2.569085361168     0.546207647873     1.007825032230

  Basis Set: AUG-CC-PVTZ
    Blend: AUG-CC-PVTZ
  Basis Set: (AUG-CC-PVTZ AUX)
    Blend: AUG-CC-PVTZ-JKFIT
	 Reference Energy          =    -525.4969453129307340 [Eh]
	 Singles Energy            =      -0.0000000000000000 [Eh]
	 Same-Spin Energy          =      -0.5803383121539363 [Eh]
	 Opposite-Spin Energy      =      -1.7401005918355221 [Eh]
	 Correlation Energy        =      -2.3204389039894586 [Eh]
	 Total Energy              =    -527.8173842169202317 [Eh]

	 ================> DF-SCS-MP2 Energies <==================
	-----------------------------------------------------------
	 SCS Same-Spin Scale       =       0.3333333333333333 [-]
	 SCS Opposite-Spin Scale   =       1.2000000000000000 [-]
	 SCS Same-Spin Energy      =      -0.1934461040513121 [Eh]
	 SCS Opposite-Spin Energy  =      -2.0881207102026265 [Eh]
	 SCS Correlation Energy    =      -2.2815668142539387 [Eh]
	 SCS Total Energy          =    -527.7785121271846265 [Eh]
	-----------------------------------------------------------

  Dipole Moment: [D]
     X:     1.2500      Y:     4.0409      Z:     0.4708     Total:     4.2560

*** Psi4 exiting successfully. Buy a developer a beer!
