                               Psi4 1.4a3.dev225

  ==> Input File <==

--------------------------------------------------------------------------
#psi4
#
memory 32 gb

molecule  {
0 1
  N       -1.7314010     0.6447010     0.0841650
  N       -1.4345640    -1.5648400    -0.1846490
  N        1.1113180     1.0210360    -0.2929590
  N        1.3650780    -1.3052570     0.2771500
  C       -0.8211750    -0.3840720    -0.0264870
  C        0.6302560    -0.2085840    -0.0077820
  C       -2.9774260     0.0775420    -0.0074450
  C       -2.8158655    -1.2677311    -0.1736788
  C        2.4478010     1.1517920    -0.2896530
  C        2.6936640    -1.1417610     0.2510410
  C        3.2993530     0.0833730    -0.0301630
  H       -3.8759520     0.6750340     0.0629310
  H       -3.5116600    -2.0553930    -0.2887470
  H        2.8330150     2.1453150    -0.5142540
  H        3.2873230    -2.0271970     0.4738100
  H        4.3785670     0.1979470    -0.0409660
  C       -1.4969110     2.0704780     0.2948980
  H       -0.7998500     2.2172910     1.1191120
  H       -1.0792200     2.5269500    -0.6013110
  H       -2.4567070     2.5274350     0.5414280
units angstrom
no_reorient  #important for SAPT in psi4, default
symmetry c1  #important for SAPT in psi4, default
}

set PROPERTIES_ORIGIN ["COM"]
properties('MP2/aug-cc-pvtz', properties = ['dipole'])
--------------------------------------------------------------------------

    Molecular point group: c1
  Charge       = 0
  Multiplicity = 1
  Basis Set: AUG-CC-PVTZ
    Blend: AUG-CC-PVTZ
  Basis Set: (AUG-CC-PVTZ AUX)
    Blend: AUG-CC-PVTZ-JKFIT

    Orbital Energies [Eh]
    ---------------------

    Doubly Occupied:

       1A    -15.622111     2A    -15.581074     3A    -15.575868
       4A    -15.547816     5A    -11.334120     6A    -11.306417
       7A    -11.303523     8A    -11.296741     9A    -11.272570
      10A    -11.260349    11A    -11.252842    12A    -11.239231
      13A     -1.340786    14A     -1.307842    15A     -1.197775
      16A     -1.167858    17A     -1.089427    18A     -1.011048
      19A     -0.964720    20A     -0.900081    21A     -0.896285
      22A     -0.804555    23A     -0.782848    24A     -0.725144
      25A     -0.703515    26A     -0.686338    27A     -0.645083
      28A     -0.639938    29A     -0.607309    30A     -0.595218
      31A     -0.586396    32A     -0.579758    33A     -0.568528
      34A     -0.556426    35A     -0.540397    36A     -0.481766
      37A     -0.434167    38A     -0.424652    39A     -0.412477
      40A     -0.397276    41A     -0.370465    42A     -0.304536

  @DF-RHF Final Energy:  -525.55547286951139

   => Energetics <=

    Nuclear Repulsion Energy =            653.3095403776322883
    One-Electron Energy =               -2009.0994723203641570
    Two-Electron Energy =                 830.2344590732205916
    Total Energy =                       -525.5554728695113909
  Basis Set: (AUG-CC-PVTZ AUX)
    Blend: AUG-CC-PVTZ-RI
    Molecular point group: c1

    Geometry (in Angstrom), charge = 0, multiplicity = 1:

       Center              X                  Y                   Z               Mass
    ------------   -----------------  -----------------  -----------------  -----------------
         N           -1.735312960274     0.682410500891     0.088799140985    14.003074004430
         N           -1.438475960274    -1.527130499109    -0.180014859015    14.003074004430
         N            1.107406039726     1.058745500891    -0.288324859015    14.003074004430
         N            1.361166039726    -1.267547499109     0.281784140985    14.003074004430
         C           -0.825086960274    -0.346362499109    -0.021852859015    12.000000000000
         C            0.626344039726    -0.170874499109    -0.003147859015    12.000000000000
         C           -2.981337960274     0.115251500891    -0.002810859015    12.000000000000
         C           -2.819777460274    -1.230021599109    -0.169044659015    12.000000000000
         C            2.443889039726     1.189501500891    -0.285018859015    12.000000000000
         C            2.689752039726    -1.104051499109     0.255675140985    12.000000000000
         C            3.295441039726     0.121082500891    -0.025528859015    12.000000000000
         H           -3.879863960274     0.712743500891     0.067565140985     1.007825032230
         H           -3.515571960274    -2.017683499109    -0.284112859015     1.007825032230
         H            2.829103039726     2.183024500891    -0.509619859015     1.007825032230
         H            3.283411039726    -1.989487499109     0.478444140985     1.007825032230
         H            4.374655039726     0.235656500891    -0.036331859015     1.007825032230
         C           -1.500822960274     2.108187500891     0.299532140985    12.000000000000
         H           -0.803761960274     2.255000500891     1.123746140985     1.007825032230
         H           -1.083131960274     2.564659500891    -0.596676859015     1.007825032230
         H           -2.460618960274     2.565144500891     0.546062140985     1.007825032230

  Basis Set: AUG-CC-PVTZ
    Blend: AUG-CC-PVTZ
  Basis Set: (AUG-CC-PVTZ AUX)
    Blend: AUG-CC-PVTZ-JKFIT
	 Reference Energy          =    -525.5554728695113909 [Eh]
	 Singles Energy            =      -0.0000000000000000 [Eh]
	 Same-Spin Energy          =      -0.5773995312104740 [Eh]
	 Opposite-Spin Energy      =      -1.7385276675967400 [Eh]
	 Correlation Energy        =      -2.3159271988072141 [Eh]
	 Total Energy              =    -527.8714000683186214 [Eh]

	 ================> DF-SCS-MP2 Energies <==================
	-----------------------------------------------------------
	 SCS Same-Spin Scale       =       0.3333333333333333 [-]
	 SCS Opposite-Spin Scale   =       1.2000000000000000 [-]
	 SCS Same-Spin Energy      =      -0.1924665104034913 [Eh]
	 SCS Opposite-Spin Energy  =      -2.0862332011160878 [Eh]
	 SCS Correlation Energy    =      -2.2786997115195793 [Eh]
	 SCS Total Energy          =    -527.8341725810309981 [Eh]
	-----------------------------------------------------------

  Dipole Moment: [D]
     X:     1.4628      Y:     4.1074      Z:     0.4803     Total:     4.3865

*** Psi4 exiting successfully. Buy a developer a beer!
