                               Psi4 1.3.2 release

  ==> Input File <==

--------------------------------------------------------------------------
#psi4
#
memory 32 gb

molecule  {
0 1
  N       -1.7314010     0.6447010     0.0841650
  N       -1.4345640    -1.5648400    -0.1846490
  N        1.1113180     1.0210360    -0.2929590
  N        1.3650780    -1.3052570     0.2771500
  C       -0.8211750    -0.3840720    -0.0264870
  C        0.6302560    -0.2085840    -0.0077820
  C       -2.7958021     0.1602126     0.0059083
  C       -2.7669850    -1.2782450    -0.1740670
  C        2.4478010     1.1517920    -0.2896530
  C        2.6936640    -1.1417610     0.2510410
  C        3.2993530     0.0833730    -0.0301630
  H       -3.8759520     0.6750340     0.0629310
  H       -3.5116600    -2.0553930    -0.2887470
  H        2.8330150     2.1453150    -0.5142540
  H        3.2873230    -2.0271970     0.4738100
  H        4.3785670     0.1979470    -0.0409660
  C       -1.4969110     2.0704780     0.2948980
  H       -0.7998500     2.2172910     1.1191120
  H       -1.0792200     2.5269500    -0.6013110
  H       -2.4567070     2.5274350     0.5414280
units angstrom
no_reorient  #important for SAPT in psi4, default
symmetry c1  #important for SAPT in psi4, default
}

set PROPERTIES_ORIGIN ["COM"]
properties('MP2/aug-cc-pvtz', properties = ['dipole'])
--------------------------------------------------------------------------

    Molecular point group: c1
  Charge       = 0
  Multiplicity = 1
  Basis Set: AUG-CC-PVTZ
    Blend: AUG-CC-PVTZ
  Basis Set: (AUG-CC-PVTZ AUX)
    Blend: AUG-CC-PVTZ-JKFIT

    Orbital Energies [Eh]
    ---------------------

    Doubly Occupied:

       1A    -15.638978     2A    -15.571159     3A    -15.565378
       4A    -15.556014     5A    -11.327458     6A    -11.300522
       7A    -11.297231     8A    -11.285986     9A    -11.277355
      10A    -11.270552    11A    -11.242894    12A    -11.237221
      13A     -1.406324    14A     -1.305524    15A     -1.205859
      16A     -1.186534    17A     -1.083656    18A     -1.017697
      19A     -0.979720    20A     -0.894137    21A     -0.880965
      22A     -0.826123    23A     -0.773213    24A     -0.742647
      25A     -0.696991    26A     -0.685770    27A     -0.677483
      28A     -0.645856    29A     -0.609028    30A     -0.593402
      31A     -0.587272    32A     -0.578483    33A     -0.561301
      34A     -0.559041    35A     -0.539802    36A     -0.474961
      37A     -0.432602    38A     -0.419587    39A     -0.417560
      40A     -0.405030    41A     -0.378866    42A     -0.277125

  @DF-RHF Final Energy:  -525.49915800668089

   => Energetics <=

    Nuclear Repulsion Energy =            658.5400315440436998
    One-Electron Energy =               -2019.2517598119145532
    Two-Electron Energy =                 835.2125702611900806
    Total Energy =                       -525.4991580066808865
  Basis Set: (AUG-CC-PVTZ AUX)
    Blend: AUG-CC-PVTZ-RI
    Molecular point group: c1

    Geometry (in Angstrom), charge = 0, multiplicity = 1:

       Center              X                  Y                   Z               Mass
    ------------   -----------------  -----------------  -----------------  -----------------
         N           -1.752592701597     0.677001280457     0.087827213446    14.003074004430
         N           -1.455755701597    -1.532539719543    -0.180986786554    14.003074004430
         N            1.090126298403     1.053336280457    -0.289296786554    14.003074004430
         N            1.343886298403    -1.272956719543     0.280812213446    14.003074004430
         C           -0.842366701597    -0.351771719543    -0.022824786554    12.000000000000
         C            0.609064298403    -0.176283719543    -0.004119786554    12.000000000000
         C           -2.816993801597     0.192512880457     0.009570513446    12.000000000000
         C           -2.788176701597    -1.245944719543    -0.170404786554    12.000000000000
         C            2.426609298403     1.184092280457    -0.285990786554    12.000000000000
         C            2.672472298403    -1.109460719543     0.254703213446    12.000000000000
         C            3.278161298403     0.115673280457    -0.026500786554    12.000000000000
         H           -3.897143701597     0.707334280457     0.066593213446     1.007825032230
         H           -3.532851701597    -2.023092719543    -0.285084786554     1.007825032230
         H            2.811823298403     2.177615280457    -0.510591786554     1.007825032230
         H            3.266131298403    -1.994896719543     0.477472213446     1.007825032230
         H            4.357375298403     0.230247280457    -0.037303786554     1.007825032230
         C           -1.518102701597     2.102778280457     0.298560213446    12.000000000000
         H           -0.821041701597     2.249591280457     1.122774213446     1.007825032230
         H           -1.100411701597     2.559250280457    -0.597648786554     1.007825032230
         H           -2.477898701597     2.559735280457     0.545090213446     1.007825032230

  Basis Set: AUG-CC-PVTZ
    Blend: AUG-CC-PVTZ
  Basis Set: (AUG-CC-PVTZ AUX)
    Blend: AUG-CC-PVTZ-JKFIT
	 Reference Energy          =    -525.4991580066808865 [Eh]
	 Singles Energy            =      -0.0000000000000000 [Eh]
	 Same-Spin Energy          =      -0.5789630104654119 [Eh]
	 Opposite-Spin Energy      =      -1.7375318162704918 [Eh]
	 Correlation Energy        =      -2.3164948267359038 [Eh]
	 Total Energy              =    -527.8156528334168343 [Eh]

	 ================> DF-SCS-MP2 Energies <==================
	-----------------------------------------------------------
	 SCS Same-Spin Scale       =       0.3333333333333333 [-]
	 SCS Opposite-Spin Scale   =       1.2000000000000000 [-]
	 SCS Same-Spin Energy      =      -0.1929876701551373 [Eh]
	 SCS Opposite-Spin Energy  =      -2.0850381795245903 [Eh]
	 SCS Correlation Energy    =      -2.2780258496797274 [Eh]
	 SCS Total Energy          =    -527.7771838563605797 [Eh]
	-----------------------------------------------------------

  Dipole Moment: [D]
     X:     0.9998      Y:     4.3947      Z:     0.5201     Total:     4.5369

*** Psi4 exiting successfully. Buy a developer a beer!
