                               Psi4 1.3.2 release

  ==> Input File <==

--------------------------------------------------------------------------
#psi4
#
memory 32 gb

molecule  {
0 1
  N       -1.7314010     0.6447010     0.0841650
  N       -1.4345640    -1.5648400    -0.1846490
  N        1.1113180     1.0210360    -0.2929590
  N        1.3650780    -1.3052570     0.2771500
  C       -0.8211750    -0.3840720    -0.0264870
  C        0.6745849    -0.2238939    -0.0029147
  C       -2.9774260     0.0775420    -0.0074450
  C       -2.7669850    -1.2782450    -0.1740670
  C        2.4478010     1.1517920    -0.2896530
  C        2.6936640    -1.1417610     0.2510410
  C        3.2993530     0.0833730    -0.0301630
  H       -3.8759520     0.6750340     0.0629310
  H       -3.5116600    -2.0553930    -0.2887470
  H        2.8330150     2.1453150    -0.5142540
  H        3.2873230    -2.0271970     0.4738100
  H        4.3785670     0.1979470    -0.0409660
  C       -1.4969110     2.0704780     0.2948980
  H       -0.7998500     2.2172910     1.1191120
  H       -1.0792200     2.5269500    -0.6013110
  H       -2.4567070     2.5274350     0.5414280
units angstrom
no_reorient  #important for SAPT in psi4, default
symmetry c1  #important for SAPT in psi4, default
}

set PROPERTIES_ORIGIN ["COM"]
properties('MP2/aug-cc-pvtz', properties = ['dipole'])
--------------------------------------------------------------------------

    Molecular point group: c1
  Charge       = 0
  Multiplicity = 1
  Basis Set: AUG-CC-PVTZ
    Blend: AUG-CC-PVTZ
  Basis Set: (AUG-CC-PVTZ AUX)
    Blend: AUG-CC-PVTZ-JKFIT

    Orbital Energies [Eh]
    ---------------------

    Doubly Occupied:

       1A    -15.622937     2A    -15.581935     3A    -15.575254
       4A    -15.542474     5A    -11.332934     6A    -11.308192
       7A    -11.306373     8A    -11.294872     9A    -11.271888
      10A    -11.256227    11A    -11.253856    12A    -11.237345
      13A     -1.342994    14A     -1.316084    15A     -1.206199
      16A     -1.175777    17A     -1.088578    18A     -1.004046
      19A     -0.965112    20A     -0.905270    21A     -0.891915
      22A     -0.799117    23A     -0.781129    24A     -0.725515
      25A     -0.707230    26A     -0.685070    27A     -0.643945
      28A     -0.639027    29A     -0.607992    30A     -0.593316
      31A     -0.587356    32A     -0.580737    33A     -0.567887
      34A     -0.552496    35A     -0.541708    36A     -0.479976
      37A     -0.434941    38A     -0.428815    39A     -0.418336
      40A     -0.396453    41A     -0.376299    42A     -0.298133

  @DF-RHF Final Energy:  -525.55762940637146

   => Energetics <=

    Nuclear Repulsion Energy =            654.1213837507575590
    One-Electron Energy =               -2010.7065459575765090
    Two-Electron Energy =                 831.0275328004474886
    Total Energy =                       -525.5576294063714613
  Basis Set: (AUG-CC-PVTZ AUX)
    Blend: AUG-CC-PVTZ-RI
    Molecular point group: c1

    Geometry (in Angstrom), charge = 0, multiplicity = 1:

       Center              X                  Y                   Z               Mass
    ------------   -----------------  -----------------  -----------------  -----------------
         N           -1.742300394444     0.684346379703     0.088463365662    14.003074004430
         N           -1.445463394444    -1.525194620297    -0.180350634338    14.003074004430
         N            1.100418605556     1.060681379703    -0.288660634338    14.003074004430
         N            1.354178605556    -1.265611620297     0.281448365662    14.003074004430
         C           -0.832074394444    -0.344426620297    -0.022188634338    12.000000000000
         C            0.663685505556    -0.184248520297     0.001383665662    12.000000000000
         C           -2.988325394444     0.117187379703    -0.003146634338    12.000000000000
         C           -2.777884394444    -1.238599620297    -0.169768634338    12.000000000000
         C            2.436901605556     1.191437379703    -0.285354634338    12.000000000000
         C            2.682764605556    -1.102115620297     0.255339365662    12.000000000000
         C            3.288453605556     0.123018379703    -0.025864634338    12.000000000000
         H           -3.886851394444     0.714679379703     0.067229365662     1.007825032230
         H           -3.522559394444    -2.015747620297    -0.284448634338     1.007825032230
         H            2.822115605556     2.184960379703    -0.509955634338     1.007825032230
         H            3.276423605556    -1.987551620297     0.478108365662     1.007825032230
         H            4.367667605556     0.237592379703    -0.036667634338     1.007825032230
         C           -1.507810394444     2.110123379703     0.299196365662    12.000000000000
         H           -0.810749394444     2.256936379703     1.123410365662     1.007825032230
         H           -1.090119394444     2.566595379703    -0.597012634338     1.007825032230
         H           -2.467606394444     2.567080379703     0.545726365662     1.007825032230

  Basis Set: AUG-CC-PVTZ
    Blend: AUG-CC-PVTZ
  Basis Set: (AUG-CC-PVTZ AUX)
    Blend: AUG-CC-PVTZ-JKFIT
	 Reference Energy          =    -525.5576294063714613 [Eh]
	 Singles Energy            =      -0.0000000000000000 [Eh]
	 Same-Spin Energy          =      -0.5770751863701022 [Eh]
	 Opposite-Spin Energy      =      -1.7369979655041532 [Eh]
	 Correlation Energy        =      -2.3140731518742554 [Eh]
	 Total Energy              =    -527.8717025582457154 [Eh]

	 ================> DF-SCS-MP2 Energies <==================
	-----------------------------------------------------------
	 SCS Same-Spin Scale       =       0.3333333333333333 [-]
	 SCS Opposite-Spin Scale   =       1.2000000000000000 [-]
	 SCS Same-Spin Energy      =      -0.1923583954567007 [Eh]
	 SCS Opposite-Spin Energy  =      -2.0843975586049837 [Eh]
	 SCS Correlation Energy    =      -2.2767559540616844 [Eh]
	 SCS Total Energy          =    -527.8343853604330889 [Eh]
	-----------------------------------------------------------

  Dipole Moment: [D]
     X:     1.7372      Y:     4.1076      Z:     0.4900     Total:     4.4866

*** Psi4 exiting successfully. Buy a developer a beer!
