                               Psi4 1.4a3.dev225

  ==> Input File <==

--------------------------------------------------------------------------
#psi4
#
memory 32 gb

molecule  {
0 1
  N       -1.7314010     0.6447010     0.0841650
  N       -1.4345640    -1.5648400    -0.1846490
  N        1.1113180     1.0210360    -0.2929590
  N        1.3650780    -1.3052570     0.2771500
  C       -0.8211750    -0.3840720    -0.0264870
  C        0.6193738    -0.1923430    -0.0120017
  C       -2.9774260     0.0775420    -0.0074450
  C       -2.7669850    -1.2782450    -0.1740670
  C        2.4478010     1.1517920    -0.2896530
  C        2.6936640    -1.1417610     0.2510410
  C        3.2993530     0.0833730    -0.0301630
  H       -3.8759520     0.6750340     0.0629310
  H       -3.5116600    -2.0553930    -0.2887470
  H        2.8330150     2.1453150    -0.5142540
  H        3.2873230    -2.0271970     0.4738100
  H        4.3785670     0.1979470    -0.0409660
  C       -1.4969110     2.0704780     0.2948980
  H       -0.7998500     2.2172910     1.1191120
  H       -1.0792200     2.5269500    -0.6013110
  H       -2.4567070     2.5274350     0.5414280
units angstrom
no_reorient  #important for SAPT in psi4, default
symmetry c1  #important for SAPT in psi4, default
}

set PROPERTIES_ORIGIN ["COM"]
properties('MP2/aug-cc-pvtz', properties = ['dipole'])
--------------------------------------------------------------------------

    Molecular point group: c1
  Charge       = 0
  Multiplicity = 1
  Basis Set: AUG-CC-PVTZ
    Blend: AUG-CC-PVTZ
  Basis Set: (AUG-CC-PVTZ AUX)
    Blend: AUG-CC-PVTZ-JKFIT

    Orbital Energies [Eh]
    ---------------------

    Doubly Occupied:

       1A    -15.626243     2A    -15.579201     3A    -15.575305
       4A    -15.547579     5A    -11.333438     6A    -11.305456
       7A    -11.301784     8A    -11.295529     9A    -11.273862
      10A    -11.260688    11A    -11.251480    12A    -11.241116
      13A     -1.345480    14A     -1.306599    15A     -1.196237
      16A     -1.178085    17A     -1.089151    18A     -1.008734
      19A     -0.969464    20A     -0.899192    21A     -0.893102
      22A     -0.803239    23A     -0.785040    24A     -0.727305
      25A     -0.702196    26A     -0.685386    27A     -0.646892
      28A     -0.639993    29A     -0.606893    30A     -0.593146
      31A     -0.587008    32A     -0.578811    33A     -0.570652
      34A     -0.557445    35A     -0.543638    36A     -0.481091
      37A     -0.436815    38A     -0.423476    39A     -0.410589
      40A     -0.396484    41A     -0.378220    42A     -0.298605

  @DF-RHF Final Energy:  -525.55688378522848

   => Energetics <=

    Nuclear Repulsion Energy =            654.1508301678190946
    One-Electron Energy =               -2010.7541328622673973
    Two-Electron Energy =                 831.0464189092198239
    Total Energy =                       -525.5568837852284787
  Basis Set: (AUG-CC-PVTZ AUX)
    Blend: AUG-CC-PVTZ-RI
    Molecular point group: c1

    Geometry (in Angstrom), charge = 0, multiplicity = 1:

       Center              X                  Y                   Z               Mass
    ------------   -----------------  -----------------  -----------------  -----------------
         N           -1.738161499368     0.681981169362     0.089144571788    14.003074004430
         N           -1.441324499368    -1.527559830638    -0.179669428212    14.003074004430
         N            1.104557500632     1.058316169362    -0.287979428212    14.003074004430
         N            1.358317500632    -1.267976830638     0.282129571788    14.003074004430
         C           -0.827935499368    -0.346791830638    -0.021507428212    12.000000000000
         C            0.612613300632    -0.155062830638    -0.007022128212    12.000000000000
         C           -2.984186499368     0.114822169362    -0.002465428212    12.000000000000
         C           -2.773745499368    -1.240964830638    -0.169087428212    12.000000000000
         C            2.441040500632     1.189072169362    -0.284673428212    12.000000000000
         C            2.686903500632    -1.104480830638     0.256020571788    12.000000000000
         C            3.292592500632     0.120653169362    -0.025183428212    12.000000000000
         H           -3.882712499368     0.712314169362     0.067910571788     1.007825032230
         H           -3.518420499368    -2.018112830638    -0.283767428212     1.007825032230
         H            2.826254500632     2.182595169362    -0.509274428212     1.007825032230
         H            3.280562500632    -1.989916830638     0.478789571788     1.007825032230
         H            4.371806500632     0.235227169362    -0.035986428212     1.007825032230
         C           -1.503671499368     2.107758169362     0.299877571788    12.000000000000
         H           -0.806610499368     2.254571169362     1.124091571788     1.007825032230
         H           -1.085980499368     2.564230169362    -0.596331428212     1.007825032230
         H           -2.463467499368     2.564715169362     0.546407571788     1.007825032230

  Basis Set: AUG-CC-PVTZ
    Blend: AUG-CC-PVTZ
  Basis Set: (AUG-CC-PVTZ AUX)
    Blend: AUG-CC-PVTZ-JKFIT
	 Reference Energy          =    -525.5568837852284787 [Eh]
	 Singles Energy            =      -0.0000000000000000 [Eh]
	 Same-Spin Energy          =      -0.5781834866903611 [Eh]
	 Opposite-Spin Energy      =      -1.7387280911824043 [Eh]
	 Correlation Energy        =      -2.3169115778727654 [Eh]
	 Total Energy              =    -527.8737953631012942 [Eh]

	 ================> DF-SCS-MP2 Energies <==================
	-----------------------------------------------------------
	 SCS Same-Spin Scale       =       0.3333333333333333 [-]
	 SCS Opposite-Spin Scale   =       1.2000000000000000 [-]
	 SCS Same-Spin Energy      =      -0.1927278288967870 [Eh]
	 SCS Opposite-Spin Energy  =      -2.0864737094188852 [Eh]
	 SCS Correlation Energy    =      -2.2792015383156721 [Eh]
	 SCS Total Energy          =    -527.8360853235441255 [Eh]
	-----------------------------------------------------------

  Dipole Moment: [D]
     X:     1.3118      Y:     4.1196      Z:     0.4729     Total:     4.3492

*** Psi4 exiting successfully. Buy a developer a beer!
