                               Psi4 1.3.2 release

  ==> Input File <==

--------------------------------------------------------------------------
#psi4
#
memory 32 gb

molecule  {
0 1
  N       -1.7314010     0.6447010     0.0841650
  N       -1.4345640    -1.5648400    -0.1846490
  N        1.1113180     1.0210360    -0.2929590
  N        1.3650780    -1.3052570     0.2771500
  C       -0.6890753    -0.5333763    -0.0425458
  C        0.6302560    -0.2085840    -0.0077820
  C       -2.9774260     0.0775420    -0.0074450
  C       -2.7669850    -1.2782450    -0.1740670
  C        2.4478010     1.1517920    -0.2896530
  C        2.6936640    -1.1417610     0.2510410
  C        3.2993530     0.0833730    -0.0301630
  H       -3.8759520     0.6750340     0.0629310
  H       -3.5116600    -2.0553930    -0.2887470
  H        2.8330150     2.1453150    -0.5142540
  H        3.2873230    -2.0271970     0.4738100
  H        4.3785670     0.1979470    -0.0409660
  C       -1.4969110     2.0704780     0.2948980
  H       -0.7998500     2.2172910     1.1191120
  H       -1.0792200     2.5269500    -0.6013110
  H       -2.4567070     2.5274350     0.5414280
units angstrom
no_reorient  #important for SAPT in psi4, default
symmetry c1  #important for SAPT in psi4, default
}

set PROPERTIES_ORIGIN ["COM"]
properties('MP2/aug-cc-pvtz', properties = ['dipole'])
--------------------------------------------------------------------------

    Molecular point group: c1
  Charge       = 0
  Multiplicity = 1
  Basis Set: AUG-CC-PVTZ
    Blend: AUG-CC-PVTZ
  Basis Set: (AUG-CC-PVTZ AUX)
    Blend: AUG-CC-PVTZ-JKFIT

    Orbital Energies [Eh]
    ---------------------

    Doubly Occupied:

       1A    -15.607592     2A    -15.581815     3A    -15.573609
       4A    -15.559381     5A    -11.328338     6A    -11.307496
       7A    -11.302463     8A    -11.300135     9A    -11.274389
      10A    -11.261072    11A    -11.251786    12A    -11.239909
      13A     -1.330412    14A     -1.299820    15A     -1.200152
      16A     -1.177433    17A     -1.099852    18A     -1.013131
      19A     -0.958221    20A     -0.901656    21A     -0.897183
      22A     -0.794416    23A     -0.791629    24A     -0.719333
      25A     -0.704007    26A     -0.684015    27A     -0.648058
      28A     -0.629484    29A     -0.608490    30A     -0.600456
      31A     -0.590942    32A     -0.580780    33A     -0.554622
      34A     -0.552185    35A     -0.535878    36A     -0.483330
      37A     -0.428052    38A     -0.425654    39A     -0.410329
      40A     -0.410058    41A     -0.374775    42A     -0.290419

  @DF-RHF Final Energy:  -525.51366084244285

   => Energetics <=

    Nuclear Repulsion Energy =            653.5298373414804018
    One-Electron Energy =               -2009.5214902030622852
    Two-Electron Energy =                 830.4779920191389238
    Total Energy =                       -525.5136608424428459
  Basis Set: (AUG-CC-PVTZ AUX)
    Blend: AUG-CC-PVTZ-RI
    Molecular point group: c1

    Geometry (in Angstrom), charge = 0, multiplicity = 1:

       Center              X                  Y                   Z               Mass
    ------------   -----------------  -----------------  -----------------  -----------------
         N           -1.748880124461     0.694391257678     0.090032088840    14.003074004430
         N           -1.452043124461    -1.515149742322    -0.178781911160    14.003074004430
         N            1.093838875539     1.070726257678    -0.287091911160    14.003074004430
         N            1.347598875539    -1.255566742322     0.283017088840    14.003074004430
         C           -0.706554424461    -0.483686042322    -0.036678711160    12.000000000000
         C            0.612776875539    -0.158893742322    -0.001914911160    12.000000000000
         C           -2.994905124461     0.127232257678    -0.001577911160    12.000000000000
         C           -2.784464124461    -1.228554742322    -0.168199911160    12.000000000000
         C            2.430321875539     1.201482257678    -0.283785911160    12.000000000000
         C            2.676184875539    -1.092070742322     0.256908088840    12.000000000000
         C            3.281873875539     0.133063257678    -0.024295911160    12.000000000000
         H           -3.893431124461     0.724724257678     0.068798088840     1.007825032230
         H           -3.529139124461    -2.005702742322    -0.282879911160     1.007825032230
         H            2.815535875539     2.195005257678    -0.508386911160     1.007825032230
         H            3.269843875539    -1.977506742322     0.479677088840     1.007825032230
         H            4.361087875539     0.247637257678    -0.035098911160     1.007825032230
         C           -1.514390124461     2.120168257678     0.300765088840    12.000000000000
         H           -0.817329124461     2.266981257678     1.124979088840     1.007825032230
         H           -1.096699124461     2.576640257678    -0.595443911160     1.007825032230
         H           -2.474186124461     2.577125257678     0.547295088840     1.007825032230

  Basis Set: AUG-CC-PVTZ
    Blend: AUG-CC-PVTZ
  Basis Set: (AUG-CC-PVTZ AUX)
    Blend: AUG-CC-PVTZ-JKFIT
	 Reference Energy          =    -525.5136608424428459 [Eh]
	 Singles Energy            =      -0.0000000000000000 [Eh]
	 Same-Spin Energy          =      -0.5808499586882866 [Eh]
	 Opposite-Spin Energy      =      -1.7434599147123755 [Eh]
	 Correlation Energy        =      -2.3243098734006620 [Eh]
	 Total Energy              =    -527.8379707158435394 [Eh]

	 ================> DF-SCS-MP2 Energies <==================
	-----------------------------------------------------------
	 SCS Same-Spin Scale       =       0.3333333333333333 [-]
	 SCS Opposite-Spin Scale   =       1.2000000000000000 [-]
	 SCS Same-Spin Energy      =      -0.1936166528960955 [Eh]
	 SCS Opposite-Spin Energy  =      -2.0921518976548503 [Eh]
	 SCS Correlation Energy    =      -2.2857685505509457 [Eh]
	 SCS Total Energy          =    -527.7994293929938294 [Eh]
	-----------------------------------------------------------

  Dipole Moment: [D]
     X:     1.3998      Y:     3.6664      Z:     0.4049     Total:     3.9454

*** Psi4 exiting successfully. Buy a developer a beer!
