                               Psi4 1.3.2 release

  ==> Input File <==

--------------------------------------------------------------------------
#psi4
#
memory 32 gb

molecule  {
0 1
  N       -1.7314010     0.6447010     0.0841650
  N       -1.4577285    -1.6562949    -0.1968725
  N        1.1113180     1.0210360    -0.2929590
  N        1.3650780    -1.3052570     0.2771500
  C       -0.8211750    -0.3840720    -0.0264870
  C        0.6302560    -0.2085840    -0.0077820
  C       -2.9774260     0.0775420    -0.0074450
  C       -2.7669850    -1.2782450    -0.1740670
  C        2.4478010     1.1517920    -0.2896530
  C        2.6936640    -1.1417610     0.2510410
  C        3.2993530     0.0833730    -0.0301630
  H       -3.8759520     0.6750340     0.0629310
  H       -3.5116600    -2.0553930    -0.2887470
  H        2.8330150     2.1453150    -0.5142540
  H        3.2873230    -2.0271970     0.4738100
  H        4.3785670     0.1979470    -0.0409660
  C       -1.4969110     2.0704780     0.2948980
  H       -0.7998500     2.2172910     1.1191120
  H       -1.0792200     2.5269500    -0.6013110
  H       -2.4567070     2.5274350     0.5414280
units angstrom
no_reorient  #important for SAPT in psi4, default
symmetry c1  #important for SAPT in psi4, default
}

set PROPERTIES_ORIGIN ["COM"]
properties('MP2/aug-cc-pvtz', properties = ['dipole'])
--------------------------------------------------------------------------

    Molecular point group: c1
  Charge       = 0
  Multiplicity = 1
  Basis Set: AUG-CC-PVTZ
    Blend: AUG-CC-PVTZ
  Basis Set: (AUG-CC-PVTZ AUX)
    Blend: AUG-CC-PVTZ-JKFIT

    Orbital Energies [Eh]
    ---------------------

    Doubly Occupied:

       1A    -15.636998     2A    -15.579923     3A    -15.574636
       4A    -15.559790     5A    -11.334085     6A    -11.305919
       7A    -11.305415     8A    -11.302886     9A    -11.277796
      10A    -11.258919    11A    -11.251535    12A    -11.242861
      13A     -1.338728    14A     -1.307359    15A     -1.196837
      16A     -1.170670    17A     -1.088694    18A     -1.003305
      19A     -0.975434    20A     -0.899006    21A     -0.892861
      22A     -0.797980    23A     -0.783153    24A     -0.729181
      25A     -0.702664    26A     -0.684526    27A     -0.647230
      28A     -0.639697    29A     -0.606278    30A     -0.594517
      31A     -0.588042    32A     -0.579927    33A     -0.567933
      34A     -0.543745    35A     -0.540110    36A     -0.481444
      37A     -0.444166    38A     -0.424464    39A     -0.413703
      40A     -0.394624    41A     -0.380702    42A     -0.292158

  @DF-RHF Final Energy:  -525.54174847668014

   => Energetics <=

    Nuclear Repulsion Energy =            651.5030962810444635
    One-Electron Energy =               -2005.4098899775485734
    Two-Electron Energy =                 828.3650452198239691
    Total Energy =                       -525.5417484766801408
  Basis Set: (AUG-CC-PVTZ AUX)
    Blend: AUG-CC-PVTZ-RI
    Molecular point group: c1

    Geometry (in Angstrom), charge = 0, multiplicity = 1:

       Center              X                  Y                   Z               Mass
    ------------   -----------------  -----------------  -----------------  -----------------
         N           -1.736950892256     0.691198990314     0.089897532920    14.003074004430
         N           -1.463278392256    -1.609796909686    -0.191139967080    14.003074004430
         N            1.105768107744     1.067533990314    -0.287226467080    14.003074004430
         N            1.359528107744    -1.258759009686     0.282882532920    14.003074004430
         C           -0.826724892256    -0.337574009686    -0.020754467080    12.000000000000
         C            0.624706107744    -0.162086009686    -0.002049467080    12.000000000000
         C           -2.982975892256     0.124039990314    -0.001712467080    12.000000000000
         C           -2.772534892256    -1.231747009686    -0.168334467080    12.000000000000
         C            2.442251107744     1.198289990314    -0.283920467080    12.000000000000
         C            2.688114107744    -1.095263009686     0.256773532920    12.000000000000
         C            3.293803107744     0.129870990314    -0.024430467080    12.000000000000
         H           -3.881501892256     0.721531990314     0.068663532920     1.007825032230
         H           -3.517209892256    -2.008895009686    -0.283014467080     1.007825032230
         H            2.827465107744     2.191812990314    -0.508521467080     1.007825032230
         H            3.281773107744    -1.980699009686     0.479542532920     1.007825032230
         H            4.373017107744     0.244444990314    -0.035233467080     1.007825032230
         C           -1.502460892256     2.116975990314     0.300630532920    12.000000000000
         H           -0.805399892256     2.263788990314     1.124844532920     1.007825032230
         H           -1.084769892256     2.573447990314    -0.595578467080     1.007825032230
         H           -2.462256892256     2.573932990314     0.547160532920     1.007825032230

  Basis Set: AUG-CC-PVTZ
    Blend: AUG-CC-PVTZ
  Basis Set: (AUG-CC-PVTZ AUX)
    Blend: AUG-CC-PVTZ-JKFIT
	 Reference Energy          =    -525.5417484766801408 [Eh]
	 Singles Energy            =      -0.0000000000000000 [Eh]
	 Same-Spin Energy          =      -0.5802995499469630 [Eh]
	 Opposite-Spin Energy      =      -1.7434437991190346 [Eh]
	 Correlation Energy        =      -2.3237433490659978 [Eh]
	 Total Energy              =    -527.8654918257461759 [Eh]

	 ================> DF-SCS-MP2 Energies <==================
	-----------------------------------------------------------
	 SCS Same-Spin Scale       =       0.3333333333333333 [-]
	 SCS Opposite-Spin Scale   =       1.2000000000000000 [-]
	 SCS Same-Spin Energy      =      -0.1934331833156543 [Eh]
	 SCS Opposite-Spin Energy  =      -2.0921325589428412 [Eh]
	 SCS Correlation Energy    =      -2.2855657422584956 [Eh]
	 SCS Total Energy          =    -527.8273142189386817 [Eh]
	-----------------------------------------------------------

  Dipole Moment: [D]
     X:     1.2676      Y:     4.3112      Z:     0.5084     Total:     4.5223

*** Psi4 exiting successfully. Buy a developer a beer!
