                               Psi4 1.3.2 release

  ==> Input File <==

--------------------------------------------------------------------------
#psi4
#
memory 32 gb

molecule  {
0 1
  N       -1.7314010     0.6447010     0.0841650
  N       -1.4345640    -1.5648400    -0.1846490
  N        1.1113180     1.0210360    -0.2929590
  N        1.3650780    -1.3052570     0.2771500
  C       -0.8211750    -0.3840720    -0.0264870
  C        0.5214335    -0.0461737    -0.0499786
  C       -2.9774260     0.0775420    -0.0074450
  C       -2.7669850    -1.2782450    -0.1740670
  C        2.4478010     1.1517920    -0.2896530
  C        2.6936640    -1.1417610     0.2510410
  C        3.2993530     0.0833730    -0.0301630
  H       -3.8759520     0.6750340     0.0629310
  H       -3.5116600    -2.0553930    -0.2887470
  H        2.8330150     2.1453150    -0.5142540
  H        3.2873230    -2.0271970     0.4738100
  H        4.3785670     0.1979470    -0.0409660
  C       -1.4969110     2.0704780     0.2948980
  H       -0.7998500     2.2172910     1.1191120
  H       -1.0792200     2.5269500    -0.6013110
  H       -2.4567070     2.5274350     0.5414280
units angstrom
no_reorient  #important for SAPT in psi4, default
symmetry c1  #important for SAPT in psi4, default
}

set PROPERTIES_ORIGIN ["COM"]
properties('MP2/aug-cc-pvtz', properties = ['dipole'])
--------------------------------------------------------------------------

    Molecular point group: c1
  Charge       = 0
  Multiplicity = 1
  Basis Set: AUG-CC-PVTZ
    Blend: AUG-CC-PVTZ
  Basis Set: (AUG-CC-PVTZ AUX)
    Blend: AUG-CC-PVTZ-JKFIT

    Orbital Energies [Eh]
    ---------------------

    Doubly Occupied:

       1A    -15.629798     2A    -15.573627     3A    -15.572416
       4A    -15.556503     5A    -11.331259     6A    -11.301570
       7A    -11.296779     8A    -11.289872     9A    -11.278436
      10A    -11.266849    11A    -11.250151    12A    -11.247609
      13A     -1.353266    14A     -1.307439    15A     -1.189750
      16A     -1.170779    17A     -1.091000    18A     -1.016193
      19A     -0.977717    20A     -0.909573    21A     -0.878643
      22A     -0.812985    23A     -0.787406    24A     -0.731255
      25A     -0.707054    26A     -0.671787    27A     -0.653817
      28A     -0.641723    29A     -0.605253    30A     -0.598049
      31A     -0.586499    32A     -0.577181    33A     -0.574135
      34A     -0.564504    35A     -0.546776    36A     -0.479121
      37A     -0.441492    38A     -0.428982    39A     -0.391641
      40A     -0.383108    41A     -0.377251    42A     -0.298877

  @DF-RHF Final Energy:  -525.51262712107382

   => Energetics <=

    Nuclear Repulsion Energy =            654.6635607844916649
    One-Electron Energy =               -2011.6561286685978303
    Two-Electron Energy =                 831.4799407630323458
    Total Energy =                       -525.5126271210738196
  Basis Set: (AUG-CC-PVTZ AUX)
    Blend: AUG-CC-PVTZ-RI
    Molecular point group: c1

    Geometry (in Angstrom), charge = 0, multiplicity = 1:

       Center              X                  Y                   Z               Mass
    ------------   -----------------  -----------------  -----------------  -----------------
         N           -1.730819413711     0.671023601119     0.091991506633    14.003074004430
         N           -1.433982413711    -1.538517398881    -0.176822493367    14.003074004430
         N            1.111899586289     1.047358601119    -0.285132493367    14.003074004430
         N            1.365659586289    -1.278934398881     0.284976506633    14.003074004430
         C           -0.820593413711    -0.357749398881    -0.018660493367    12.000000000000
         C            0.522015086289    -0.019851098881    -0.042152093367    12.000000000000
         C           -2.976844413711     0.103864601119     0.000381506633    12.000000000000
         C           -2.766403413711    -1.251922398881    -0.166240493367    12.000000000000
         C            2.448382586289     1.178114601119    -0.281826493367    12.000000000000
         C            2.694245586289    -1.115438398881     0.258867506633    12.000000000000
         C            3.299934586289     0.109695601119    -0.022336493367    12.000000000000
         H           -3.875370413711     0.701356601119     0.070757506633     1.007825032230
         H           -3.511078413711    -2.029070398881    -0.280920493367     1.007825032230
         H            2.833596586289     2.171637601119    -0.506427493367     1.007825032230
         H            3.287904586289    -2.000874398881     0.481636506633     1.007825032230
         H            4.379148586289     0.224269601119    -0.033139493367     1.007825032230
         C           -1.496329413711     2.096800601119     0.302724506633    12.000000000000
         H           -0.799268413711     2.243613601119     1.126938506633     1.007825032230
         H           -1.078638413711     2.553272601119    -0.593484493367     1.007825032230
         H           -2.456125413711     2.553757601119     0.549254506633     1.007825032230

  Basis Set: AUG-CC-PVTZ
    Blend: AUG-CC-PVTZ
  Basis Set: (AUG-CC-PVTZ AUX)
    Blend: AUG-CC-PVTZ-JKFIT
	 Reference Energy          =    -525.5126271210738196 [Eh]
	 Singles Energy            =      -0.0000000000000000 [Eh]
	 Same-Spin Energy          =      -0.5802731960066579 [Eh]
	 Opposite-Spin Energy      =      -1.7449147659420525 [Eh]
	 Correlation Energy        =      -2.3251879619487106 [Eh]
	 Total Energy              =    -527.8378150830225195 [Eh]

	 ================> DF-SCS-MP2 Energies <==================
	-----------------------------------------------------------
	 SCS Same-Spin Scale       =       0.3333333333333333 [-]
	 SCS Opposite-Spin Scale   =       1.2000000000000000 [-]
	 SCS Same-Spin Energy      =      -0.1934243986688860 [Eh]
	 SCS Opposite-Spin Energy  =      -2.0938977191304629 [Eh]
	 SCS Correlation Energy    =      -2.2873221177993490 [Eh]
	 SCS Total Energy          =    -527.7999492388731824 [Eh]
	-----------------------------------------------------------

  Dipole Moment: [D]
     X:     0.5353      Y:     4.2770      Z:     0.4002     Total:     4.3290

*** Psi4 exiting successfully. Buy a developer a beer!
