                               Psi4 1.3.2 release

  ==> Input File <==

--------------------------------------------------------------------------
#psi4
#
memory 32 gb

molecule  {
0 1
  N       -1.7314010     0.6447010     0.0841650
  N       -1.4345640    -1.5648400    -0.1846490
  N        1.1113180     1.0210360    -0.2929590
  N        1.3650780    -1.3052570     0.2771500
  C       -0.8211750    -0.3840720    -0.0264870
  C        0.6302560    -0.2085840    -0.0077820
  C       -2.9774260     0.0775420    -0.0074450
  C       -2.9109213    -1.2925834    -0.1763831
  C        2.4478010     1.1517920    -0.2896530
  C        2.6936640    -1.1417610     0.2510410
  C        3.2993530     0.0833730    -0.0301630
  H       -3.8759520     0.6750340     0.0629310
  H       -3.5116600    -2.0553930    -0.2887470
  H        2.8330150     2.1453150    -0.5142540
  H        3.2873230    -2.0271970     0.4738100
  H        4.3785670     0.1979470    -0.0409660
  C       -1.4969110     2.0704780     0.2948980
  H       -0.7998500     2.2172910     1.1191120
  H       -1.0792200     2.5269500    -0.6013110
  H       -2.4567070     2.5274350     0.5414280
units angstrom
no_reorient  #important for SAPT in psi4, default
symmetry c1  #important for SAPT in psi4, default
}

set PROPERTIES_ORIGIN ["COM"]
properties('MP2/aug-cc-pvtz', properties = ['dipole'])
--------------------------------------------------------------------------

    Molecular point group: c1
  Charge       = 0
  Multiplicity = 1
  Basis Set: AUG-CC-PVTZ
    Blend: AUG-CC-PVTZ
  Basis Set: (AUG-CC-PVTZ AUX)
    Blend: AUG-CC-PVTZ-JKFIT

    Orbital Energies [Eh]
    ---------------------

    Doubly Occupied:

       1A    -15.620204     2A    -15.582073     3A    -15.576551
       4A    -15.550572     5A    -11.335046     6A    -11.306927
       7A    -11.303905     8A    -11.297943     9A    -11.272645
      10A    -11.269255    11A    -11.253654    12A    -11.242010
      13A     -1.334942    14A     -1.306257    15A     -1.197851
      16A     -1.153214    17A     -1.088729    18A     -1.011165
      19A     -0.960918    20A     -0.901942    21A     -0.897967
      22A     -0.815546    23A     -0.779384    24A     -0.725266
      25A     -0.704213    26A     -0.686660    27A     -0.643736
      28A     -0.640165    29A     -0.618421    30A     -0.598240
      31A     -0.585813    32A     -0.580486    33A     -0.567906
      34A     -0.553729    35A     -0.535181    36A     -0.482328
      37A     -0.426935    38A     -0.424116    39A     -0.408756
      40A     -0.397751    41A     -0.360097    42A     -0.309044

  @DF-RHF Final Energy:  -525.53183873556975

   => Energetics <=

    Nuclear Repulsion Energy =            651.1464314836227913
    One-Electron Energy =               -2004.7414558636712627
    Two-Electron Energy =                 828.0631856444787218
    Total Energy =                       -525.5318387355697496
  Basis Set: (AUG-CC-PVTZ AUX)
    Blend: AUG-CC-PVTZ-RI
    Molecular point group: c1

    Geometry (in Angstrom), charge = 0, multiplicity = 1:

       Center              X                  Y                   Z               Mass
    ------------   -----------------  -----------------  -----------------  -----------------
         N           -1.728187110896     0.684273551294     0.089001868588    14.003074004430
         N           -1.431350110896    -1.525267448706    -0.179812131412    14.003074004430
         N            1.114531889104     1.060608551294    -0.288122131412    14.003074004430
         N            1.368291889104    -1.265684448706     0.281986868588    14.003074004430
         C           -0.817961110896    -0.344499448706    -0.021650131412    12.000000000000
         C            0.633469889104    -0.169011448706    -0.002945131412    12.000000000000
         C           -2.974212110896     0.117114551294    -0.002608131412    12.000000000000
         C           -2.907707410896    -1.253010848706    -0.171546231412    12.000000000000
         C            2.451014889104     1.191364551294    -0.284816131412    12.000000000000
         C            2.696877889104    -1.102188448706     0.255877868588    12.000000000000
         C            3.302566889104     0.122945551294    -0.025326131412    12.000000000000
         H           -3.872738110896     0.714606551294     0.067767868588     1.007825032230
         H           -3.508446110896    -2.015820448706    -0.283910131412     1.007825032230
         H            2.836228889104     2.184887551294    -0.509417131412     1.007825032230
         H            3.290536889104    -1.987624448706     0.478646868588     1.007825032230
         H            4.381780889104     0.237519551294    -0.036129131412     1.007825032230
         C           -1.493697110896     2.110050551294     0.299734868588    12.000000000000
         H           -0.796636110896     2.256863551294     1.123948868588     1.007825032230
         H           -1.076006110896     2.566522551294    -0.596474131412     1.007825032230
         H           -2.453493110896     2.567007551294     0.546264868588     1.007825032230

  Basis Set: AUG-CC-PVTZ
    Blend: AUG-CC-PVTZ
  Basis Set: (AUG-CC-PVTZ AUX)
    Blend: AUG-CC-PVTZ-JKFIT
	 Reference Energy          =    -525.5318387355697496 [Eh]
	 Singles Energy            =      -0.0000000000000000 [Eh]
	 Same-Spin Energy          =      -0.5772664012815518 [Eh]
	 Opposite-Spin Energy      =      -1.7408114709767784 [Eh]
	 Correlation Energy        =      -2.3180778722583302 [Eh]
	 Total Energy              =    -527.8499166078280496 [Eh]

	 ================> DF-SCS-MP2 Energies <==================
	-----------------------------------------------------------
	 SCS Same-Spin Scale       =       0.3333333333333333 [-]
	 SCS Opposite-Spin Scale   =       1.2000000000000000 [-]
	 SCS Same-Spin Energy      =      -0.1924221337605173 [Eh]
	 SCS Opposite-Spin Energy  =      -2.0889737651721338 [Eh]
	 SCS Correlation Energy    =      -2.2813958989326513 [Eh]
	 SCS Total Energy          =    -527.8132346345023507 [Eh]
	-----------------------------------------------------------

  Dipole Moment: [D]
     X:     1.5734      Y:     4.1001      Z:     0.4798     Total:     4.4178

*** Psi4 exiting successfully. Buy a developer a beer!
