                               Psi4 1.3.2 release

  ==> Input File <==

--------------------------------------------------------------------------
#psi4
#
memory 32 gb

molecule  {
0 1
  N       -1.7314010     0.6447010     0.0841650
  N       -1.4345640    -1.5648400    -0.1846490
  N        1.1113180     1.0210360    -0.2929590
  N        1.3650780    -1.3052570     0.2771500
  C       -0.8211750    -0.3840720    -0.0264870
  C        0.6302560    -0.2085840    -0.0077820
  C       -3.0306451     0.2095760     0.0115640
  C       -2.7669850    -1.2782450    -0.1740670
  C        2.4478010     1.1517920    -0.2896530
  C        2.6936640    -1.1417610     0.2510410
  C        3.2993530     0.0833730    -0.0301630
  H       -3.8759520     0.6750340     0.0629310
  H       -3.5116600    -2.0553930    -0.2887470
  H        2.8330150     2.1453150    -0.5142540
  H        3.2873230    -2.0271970     0.4738100
  H        4.3785670     0.1979470    -0.0409660
  C       -1.4969110     2.0704780     0.2948980
  H       -0.7998500     2.2172910     1.1191120
  H       -1.0792200     2.5269500    -0.6013110
  H       -2.4567070     2.5274350     0.5414280
units angstrom
no_reorient  #important for SAPT in psi4, default
symmetry c1  #important for SAPT in psi4, default
}

set PROPERTIES_ORIGIN ["COM"]
properties('MP2/aug-cc-pvtz', properties = ['dipole'])
--------------------------------------------------------------------------

    Molecular point group: c1
  Charge       = 0
  Multiplicity = 1
  Basis Set: AUG-CC-PVTZ
    Blend: AUG-CC-PVTZ
  Basis Set: (AUG-CC-PVTZ AUX)
    Blend: AUG-CC-PVTZ-JKFIT

    Orbital Energies [Eh]
    ---------------------

    Doubly Occupied:

       1A    -15.637572     2A    -15.579027     3A    -15.574373
       4A    -15.553792     5A    -11.334039     6A    -11.305475
       7A    -11.302802     8A    -11.295949     9A    -11.272513
      10A    -11.267361    11A    -11.258269    12A    -11.250837
      13A     -1.341982    14A     -1.307003    15A     -1.198260
      16A     -1.182162    17A     -1.087290    18A     -1.000313
      19A     -0.968741    20A     -0.899393    21A     -0.893471
      22A     -0.814721    23A     -0.784427    24A     -0.723262
      25A     -0.704541    26A     -0.694747    27A     -0.656750
      28A     -0.646339    29A     -0.614623    30A     -0.593576
      31A     -0.584857    32A     -0.581571    33A     -0.568150
      34A     -0.540562    35A     -0.538477    36A     -0.481238
      37A     -0.436652    38A     -0.424159    39A     -0.412258
      40A     -0.398453    41A     -0.379715    42A     -0.283794

  @DF-RHF Final Energy:  -525.52217295011440

   => Energetics <=

    Nuclear Repulsion Energy =            652.2663297680537653
    One-Electron Energy =               -2006.8300154762689544
    Two-Electron Energy =                 829.0415127581007937
    Total Energy =                       -525.5221729501143955
  Basis Set: (AUG-CC-PVTZ AUX)
    Blend: AUG-CC-PVTZ-RI
    Molecular point group: c1

    Geometry (in Angstrom), charge = 0, multiplicity = 1:

       Center              X                  Y                   Z               Mass
    ------------   -----------------  -----------------  -----------------  -----------------
         N           -1.734987717521     0.673300757678     0.087403234411    14.003074004430
         N           -1.438150717521    -1.536240242322    -0.181410765589    14.003074004430
         N            1.107731282479     1.049635757678    -0.289720765589    14.003074004430
         N            1.361491282479    -1.276657242322     0.280388234411    14.003074004430
         C           -0.824761717521    -0.355472242322    -0.023248765589    12.000000000000
         C            0.626669282479    -0.179984242322    -0.004543765589    12.000000000000
         C           -3.034231817521     0.238175757678     0.014802234411    12.000000000000
         C           -2.770571717521    -1.249645242322    -0.170828765589    12.000000000000
         C            2.444214282479     1.180391757678    -0.286414765589    12.000000000000
         C            2.690077282479    -1.113161242322     0.254279234411    12.000000000000
         C            3.295766282479     0.111972757678    -0.026924765589    12.000000000000
         H           -3.879538717521     0.703633757678     0.066169234411     1.007825032230
         H           -3.515246717521    -2.026793242322    -0.285508765589     1.007825032230
         H            2.829428282479     2.173914757678    -0.511015765589     1.007825032230
         H            3.283736282479    -1.998597242322     0.477048234411     1.007825032230
         H            4.374980282479     0.226546757678    -0.037727765589     1.007825032230
         C           -1.500497717521     2.099077757678     0.298136234411    12.000000000000
         H           -0.803436717521     2.245890757678     1.122350234411     1.007825032230
         H           -1.082806717521     2.555549757678    -0.598072765589     1.007825032230
         H           -2.460293717521     2.556034757678     0.544666234411     1.007825032230

  Basis Set: AUG-CC-PVTZ
    Blend: AUG-CC-PVTZ
  Basis Set: (AUG-CC-PVTZ AUX)
    Blend: AUG-CC-PVTZ-JKFIT
	 Reference Energy          =    -525.5221729501143955 [Eh]
	 Singles Energy            =      -0.0000000000000000 [Eh]
	 Same-Spin Energy          =      -0.5804626574591201 [Eh]
	 Opposite-Spin Energy      =      -1.7433882491781372 [Eh]
	 Correlation Energy        =      -2.3238509066372570 [Eh]
	 Total Energy              =    -527.8460238567516853 [Eh]

	 ================> DF-SCS-MP2 Energies <==================
	-----------------------------------------------------------
	 SCS Same-Spin Scale       =       0.3333333333333333 [-]
	 SCS Opposite-Spin Scale   =       1.2000000000000000 [-]
	 SCS Same-Spin Energy      =      -0.1934875524863733 [Eh]
	 SCS Opposite-Spin Energy  =      -2.0920658990137646 [Eh]
	 SCS Correlation Energy    =      -2.2855534515001379 [Eh]
	 SCS Total Energy          =    -527.8077264016145591 [Eh]
	-----------------------------------------------------------

  Dipole Moment: [D]
     X:     1.3864      Y:     4.0904      Z:     0.4724     Total:     4.3447

*** Psi4 exiting successfully. Buy a developer a beer!
