                               Psi4 1.3.2 release

  ==> Input File <==

--------------------------------------------------------------------------
#psi4
#
memory 32 gb

molecule  {
0 1
  N       -1.7314010     0.6447010     0.0841650
  N       -1.4345640    -1.5648400    -0.1846490
  N        1.1113180     1.0210360    -0.2929590
  N        1.3650780    -1.3052570     0.2771500
  C       -0.8211750    -0.3840720    -0.0264870
  C        0.7194458    -0.2376870     0.0015993
  C       -2.9774260     0.0775420    -0.0074450
  C       -2.7669850    -1.2782450    -0.1740670
  C        2.4478010     1.1517920    -0.2896530
  C        2.6936640    -1.1417610     0.2510410
  C        3.2993530     0.0833730    -0.0301630
  H       -3.8759520     0.6750340     0.0629310
  H       -3.5116600    -2.0553930    -0.2887470
  H        2.8330150     2.1453150    -0.5142540
  H        3.2873230    -2.0271970     0.4738100
  H        4.3785670     0.1979470    -0.0409660
  C       -1.4969110     2.0704780     0.2948980
  H       -0.7998500     2.2172910     1.1191120
  H       -1.0792200     2.5269500    -0.6013110
  H       -2.4567070     2.5274350     0.5414280
units angstrom
no_reorient  #important for SAPT in psi4, default
symmetry c1  #important for SAPT in psi4, default
}

set PROPERTIES_ORIGIN ["COM"]
properties('MP2/aug-cc-pvtz', properties = ['dipole'])
--------------------------------------------------------------------------

    Molecular point group: c1
  Charge       = 0
  Multiplicity = 1
  Basis Set: AUG-CC-PVTZ
    Blend: AUG-CC-PVTZ
  Basis Set: (AUG-CC-PVTZ AUX)
    Blend: AUG-CC-PVTZ-JKFIT

    Orbital Energies [Eh]
    ---------------------

    Doubly Occupied:

       1A    -15.619933     2A    -15.584101     3A    -15.575599
       4A    -15.538440     5A    -11.332597     6A    -11.310625
       7A    -11.309843     8A    -11.293502     9A    -11.270375
      10A    -11.255923    11A    -11.252609    12A    -11.234386
      13A     -1.344025    14A     -1.322381    15A     -1.215397
      16A     -1.173044    17A     -1.088824    18A     -1.000071
      19A     -0.961671    20A     -0.911572    21A     -0.889867
      22A     -0.795872    23A     -0.777771    24A     -0.724544
      25A     -0.711745    26A     -0.683530    27A     -0.641790
      28A     -0.638690    29A     -0.609021    30A     -0.595755
      31A     -0.588796    32A     -0.579662    33A     -0.566162
      34A     -0.548744    35A     -0.539717    36A     -0.476671
      37A     -0.436180    38A     -0.434169    39A     -0.421105
      40A     -0.396679    41A     -0.374509    42A     -0.297064

  @DF-RHF Final Energy:  -525.55123582908698

   => Energetics <=

    Nuclear Repulsion Energy =            654.1654049126171913
    One-Electron Energy =               -2010.7873567089566222
    Two-Electron Energy =                 831.0707159672525677
    Total Energy =                       -525.5512358290869770
  Basis Set: (AUG-CC-PVTZ AUX)
    Blend: AUG-CC-PVTZ-RI
    Molecular point group: c1

    Geometry (in Angstrom), charge = 0, multiplicity = 1:

       Center              X                  Y                   Z               Mass
    ------------   -----------------  -----------------  -----------------  -----------------
         N           -1.745663387721     0.685380378187     0.088124974064    14.003074004430
         N           -1.448826387721    -1.524160621813    -0.180689025936    14.003074004430
         N            1.097055612279     1.061715378187    -0.288999025936    14.003074004430
         N            1.350815612279    -1.264577621813     0.281109974064    14.003074004430
         C           -0.835437387721    -0.343392621813    -0.022527025936    12.000000000000
         C            0.705183412279    -0.197007621813     0.005559274064    12.000000000000
         C           -2.991688387721     0.118221378187    -0.003485025936    12.000000000000
         C           -2.781247387721    -1.237565621813    -0.170107025936    12.000000000000
         C            2.433538612279     1.192471378187    -0.285693025936    12.000000000000
         C            2.679401612279    -1.101081621813     0.255000974064    12.000000000000
         C            3.285090612279     0.124052378187    -0.026203025936    12.000000000000
         H           -3.890214387721     0.715713378187     0.066890974064     1.007825032230
         H           -3.525922387721    -2.014713621813    -0.284787025936     1.007825032230
         H            2.818752612279     2.185994378187    -0.510294025936     1.007825032230
         H            3.273060612279    -1.986517621813     0.477769974064     1.007825032230
         H            4.364304612279     0.238626378187    -0.037006025936     1.007825032230
         C           -1.511173387721     2.111157378187     0.298857974064    12.000000000000
         H           -0.814112387721     2.257970378187     1.123071974064     1.007825032230
         H           -1.093482387721     2.567629378187    -0.597351025936     1.007825032230
         H           -2.470969387721     2.568114378187     0.545387974064     1.007825032230

  Basis Set: AUG-CC-PVTZ
    Blend: AUG-CC-PVTZ
  Basis Set: (AUG-CC-PVTZ AUX)
    Blend: AUG-CC-PVTZ-JKFIT
	 Reference Energy          =    -525.5512358290869770 [Eh]
	 Singles Energy            =      -0.0000000000000000 [Eh]
	 Same-Spin Energy          =      -0.5763860671156391 [Eh]
	 Opposite-Spin Energy      =      -1.7361343372661961 [Eh]
	 Correlation Energy        =      -2.3125204043818353 [Eh]
	 Total Energy              =    -527.8637562334688482 [Eh]

	 ================> DF-SCS-MP2 Energies <==================
	-----------------------------------------------------------
	 SCS Same-Spin Scale       =       0.3333333333333333 [-]
	 SCS Opposite-Spin Scale   =       1.2000000000000000 [-]
	 SCS Same-Spin Energy      =      -0.1921286890385464 [Eh]
	 SCS Opposite-Spin Energy  =      -2.0833612047194352 [Eh]
	 SCS Correlation Energy    =      -2.2754898937579817 [Eh]
	 SCS Total Energy          =    -527.8267257228449125 [Eh]
	-----------------------------------------------------------

  Dipole Moment: [D]
     X:     2.0824      Y:     4.1069      Z:     0.5000     Total:     4.6318

*** Psi4 exiting successfully. Buy a developer a beer!
