                               Psi4 1.3.2 release

  ==> Input File <==

--------------------------------------------------------------------------
#psi4
#
memory 32 gb

molecule  {
0 1
  N       -1.7521950     0.6875493     0.0891987
  N       -1.4345640    -1.5648400    -0.1846490
  N        1.1113180     1.0210360    -0.2929590
  N        1.3650780    -1.3052570     0.2771500
  C       -0.8211750    -0.3840720    -0.0264870
  C        0.6302560    -0.2085840    -0.0077820
  C       -2.9774260     0.0775420    -0.0074450
  C       -2.7669850    -1.2782450    -0.1740670
  C        2.4478010     1.1517920    -0.2896530
  C        2.6936640    -1.1417610     0.2510410
  C        3.2993530     0.0833730    -0.0301630
  H       -3.8759520     0.6750340     0.0629310
  H       -3.5116600    -2.0553930    -0.2887470
  H        2.8330150     2.1453150    -0.5142540
  H        3.2873230    -2.0271970     0.4738100
  H        4.3785670     0.1979470    -0.0409660
  C       -1.4969110     2.0704780     0.2948980
  H       -0.7998500     2.2172910     1.1191120
  H       -1.0792200     2.5269500    -0.6013110
  H       -2.4567070     2.5274350     0.5414280
units angstrom
no_reorient  #important for SAPT in psi4, default
symmetry c1  #important for SAPT in psi4, default
}

set PROPERTIES_ORIGIN ["COM"]
properties('MP2/aug-cc-pvtz', properties = ['dipole'])
--------------------------------------------------------------------------

    Molecular point group: c1
  Charge       = 0
  Multiplicity = 1
  Basis Set: AUG-CC-PVTZ
    Blend: AUG-CC-PVTZ
  Basis Set: (AUG-CC-PVTZ AUX)
    Blend: AUG-CC-PVTZ-JKFIT

    Orbital Energies [Eh]
    ---------------------

    Doubly Occupied:

       1A    -15.625411     2A    -15.579522     3A    -15.574629
       4A    -15.552997     5A    -11.333347     6A    -11.305526
       7A    -11.302797     8A    -11.299683     9A    -11.269106
      10A    -11.264077    11A    -11.251440    12A    -11.241388
      13A     -1.339226    14A     -1.307104    15A     -1.199134
      16A     -1.184878    17A     -1.088396    18A     -1.008589
      19A     -0.967442    20A     -0.899097    21A     -0.891685
      22A     -0.800188    23A     -0.785719    24A     -0.727838
      25A     -0.702521    26A     -0.685459    27A     -0.646764
      28A     -0.639892    29A     -0.607766    30A     -0.597110
      31A     -0.589536    32A     -0.578226    33A     -0.566401
      34A     -0.556420    35A     -0.539274    36A     -0.480160
      37A     -0.439392    38A     -0.424060    39A     -0.412687
      40A     -0.398362    41A     -0.377847    42A     -0.296795

  @DF-RHF Final Energy:  -525.55316718625954

   => Energetics <=

    Nuclear Repulsion Energy =            653.4200860540148597
    One-Electron Energy =               -2009.2707320849724510
    Two-Electron Energy =                 830.2974788446981620
    Total Energy =                       -525.5531671862595431
  Basis Set: (AUG-CC-PVTZ AUX)
    Blend: AUG-CC-PVTZ-RI
    Molecular point group: c1

    Geometry (in Angstrom), charge = 0, multiplicity = 1:

       Center              X                  Y                   Z               Mass
    ------------   -----------------  -----------------  -----------------  -----------------
         N           -1.757952259481     0.722298679555     0.093421603026    14.003074004430
         N           -1.440321259481    -1.530090620445    -0.180426096974    14.003074004430
         N            1.105560740519     1.055785379555    -0.288736096974    14.003074004430
         N            1.359320740519    -1.270507620445     0.281372903026    14.003074004430
         C           -0.826932259481    -0.349322620445    -0.022264096974    12.000000000000
         C            0.624498740519    -0.173834620445    -0.003559096974    12.000000000000
         C           -2.983183259481     0.112291379555    -0.003222096974    12.000000000000
         C           -2.772742259481    -1.243495620445    -0.169844096974    12.000000000000
         C            2.442043740519     1.186541379555    -0.285430096974    12.000000000000
         C            2.687906740519    -1.107011620445     0.255263903026    12.000000000000
         C            3.293595740519     0.118122379555    -0.025940096974    12.000000000000
         H           -3.881709259481     0.709783379555     0.067153903026     1.007825032230
         H           -3.517417259481    -2.020643620445    -0.284524096974     1.007825032230
         H            2.827257740519     2.180064379555    -0.510031096974     1.007825032230
         H            3.281565740519    -1.992447620445     0.478032903026     1.007825032230
         H            4.372809740519     0.232696379555    -0.036743096974     1.007825032230
         C           -1.502668259481     2.105227379555     0.299120903026    12.000000000000
         H           -0.805607259481     2.252040379555     1.123334903026     1.007825032230
         H           -1.084977259481     2.561699379555    -0.597088096974     1.007825032230
         H           -2.462464259481     2.562184379555     0.545650903026     1.007825032230

  Basis Set: AUG-CC-PVTZ
    Blend: AUG-CC-PVTZ
  Basis Set: (AUG-CC-PVTZ AUX)
    Blend: AUG-CC-PVTZ-JKFIT
	 Reference Energy          =    -525.5531671862595431 [Eh]
	 Singles Energy            =      -0.0000000000000000 [Eh]
	 Same-Spin Energy          =      -0.5784714309224177 [Eh]
	 Opposite-Spin Energy      =      -1.7393667384717397 [Eh]
	 Correlation Energy        =      -2.3178381693941574 [Eh]
	 Total Energy              =    -527.8710053556536650 [Eh]

	 ================> DF-SCS-MP2 Energies <==================
	-----------------------------------------------------------
	 SCS Same-Spin Scale       =       0.3333333333333333 [-]
	 SCS Opposite-Spin Scale   =       1.2000000000000000 [-]
	 SCS Same-Spin Energy      =      -0.1928238103074726 [Eh]
	 SCS Opposite-Spin Energy  =      -2.0872400861660876 [Eh]
	 SCS Correlation Energy    =      -2.2800638964735600 [Eh]
	 SCS Total Energy          =    -527.8332310827330502 [Eh]
	-----------------------------------------------------------

  Dipole Moment: [D]
     X:     1.3738      Y:     3.9772      Z:     0.4615     Total:     4.2331

*** Psi4 exiting successfully. Buy a developer a beer!
