                               Psi4 1.3.2 release

  ==> Input File <==

--------------------------------------------------------------------------
#psi4
#
memory 32 gb

molecule  {
0 1
  N       -1.7314010     0.6447010     0.0841650
  N       -1.4345640    -1.5648400    -0.1846490
  N        1.1113180     1.0210360    -0.2929590
  N        1.3650780    -1.3052570     0.2771500
  C       -0.8211750    -0.3840720    -0.0264870
  C        0.6302560    -0.2085840    -0.0077820
  C       -3.1590499    -0.0051286    -0.0207983
  C       -2.7669850    -1.2782450    -0.1740670
  C        2.4478010     1.1517920    -0.2896530
  C        2.6936640    -1.1417610     0.2510410
  C        3.2993530     0.0833730    -0.0301630
  H       -3.8759520     0.6750340     0.0629310
  H       -3.5116600    -2.0553930    -0.2887470
  H        2.8330150     2.1453150    -0.5142540
  H        3.2873230    -2.0271970     0.4738100
  H        4.3785670     0.1979470    -0.0409660
  C       -1.4969110     2.0704780     0.2948980
  H       -0.7998500     2.2172910     1.1191120
  H       -1.0792200     2.5269500    -0.6013110
  H       -2.4567070     2.5274350     0.5414280
units angstrom
no_reorient  #important for SAPT in psi4, default
symmetry c1  #important for SAPT in psi4, default
}

set PROPERTIES_ORIGIN ["COM"]
properties('MP2/aug-cc-pvtz', properties = ['dipole'])
--------------------------------------------------------------------------

    Molecular point group: c1
  Charge       = 0
  Multiplicity = 1
  Basis Set: AUG-CC-PVTZ
    Blend: AUG-CC-PVTZ
  Basis Set: (AUG-CC-PVTZ AUX)
    Blend: AUG-CC-PVTZ-JKFIT

    Orbital Energies [Eh]
    ---------------------

    Doubly Occupied:

       1A    -15.609065     2A    -15.585796     3A    -15.581295
       4A    -15.539971     5A    -11.337163     6A    -11.309184
       7A    -11.308944     8A    -11.306644     9A    -11.263355
      10A    -11.259566    11A    -11.257755    12A    -11.249426
      13A     -1.327911    14A     -1.297023    15A     -1.201391
      16A     -1.159938    17A     -1.092278    18A     -1.013713
      19A     -0.954973    20A     -0.902980    21A     -0.901898
      22A     -0.804672    23A     -0.785307    24A     -0.717918
      25A     -0.708965    26A     -0.685910    27A     -0.644080
      28A     -0.630145    29A     -0.621500    30A     -0.597267
      31A     -0.586904    32A     -0.581122    33A     -0.568748
      34A     -0.533786    35A     -0.513080    36A     -0.481631
      37A     -0.437549    38A     -0.427287    39A     -0.416245
      40A     -0.396253    41A     -0.365246    42A     -0.316837

  @DF-RHF Final Energy:  -525.51999576667890

   => Energetics <=

    Nuclear Repulsion Energy =            650.3106203704487598
    One-Electron Energy =               -2003.0997950706257598
    Two-Electron Energy =                 827.2691789334980967
    Total Energy =                       -525.5199957666789032
  Basis Set: (AUG-CC-PVTZ AUX)
    Blend: AUG-CC-PVTZ-RI
    Molecular point group: c1

    Geometry (in Angstrom), charge = 0, multiplicity = 1:

       Center              X                  Y                   Z               Mass
    ------------   -----------------  -----------------  -----------------  -----------------
         N           -1.725361863399     0.689396068435     0.089829271279    14.003074004430
         N           -1.428524863399    -1.520144931565    -0.178984728721    14.003074004430
         N            1.117357136601     1.065731068435    -0.287294728721    14.003074004430
         N            1.371117136601    -1.260561931565     0.282814271279    14.003074004430
         C           -0.815135863399    -0.339376931565    -0.020822728721    12.000000000000
         C            0.636295136601    -0.163888931565    -0.002117728721    12.000000000000
         C           -3.153010763399     0.039566468435    -0.015134028721    12.000000000000
         C           -2.760945863399    -1.233549931565    -0.168402728721    12.000000000000
         C            2.453840136601     1.196487068435    -0.283988728721    12.000000000000
         C            2.699703136601    -1.097065931565     0.256705271279    12.000000000000
         C            3.305392136601     0.128068068435    -0.024498728721    12.000000000000
         H           -3.869912863399     0.719729068435     0.068595271279     1.007825032230
         H           -3.505620863399    -2.010697931565    -0.283082728721     1.007825032230
         H            2.839054136601     2.190010068435    -0.508589728721     1.007825032230
         H            3.293362136601    -1.982501931565     0.479474271279     1.007825032230
         H            4.384606136601     0.242642068435    -0.035301728721     1.007825032230
         C           -1.490871863399     2.115173068435     0.300562271279    12.000000000000
         H           -0.793810863399     2.261986068435     1.124776271279     1.007825032230
         H           -1.073180863399     2.571645068435    -0.595646728721     1.007825032230
         H           -2.450667863399     2.572130068435     0.547092271279     1.007825032230

  Basis Set: AUG-CC-PVTZ
    Blend: AUG-CC-PVTZ
  Basis Set: (AUG-CC-PVTZ AUX)
    Blend: AUG-CC-PVTZ-JKFIT
	 Reference Energy          =    -525.5199957666789032 [Eh]
	 Singles Energy            =      -0.0000000000000000 [Eh]
	 Same-Spin Energy          =      -0.5771915537948972 [Eh]
	 Opposite-Spin Energy      =      -1.7407641627026758 [Eh]
	 Correlation Energy        =      -2.3179557164975728 [Eh]
	 Total Energy              =    -527.8379514831764254 [Eh]

	 ================> DF-SCS-MP2 Energies <==================
	-----------------------------------------------------------
	 SCS Same-Spin Scale       =       0.3333333333333333 [-]
	 SCS Opposite-Spin Scale   =       1.2000000000000000 [-]
	 SCS Same-Spin Energy      =      -0.1923971845982990 [Eh]
	 SCS Opposite-Spin Energy  =      -2.0889169952432107 [Eh]
	 SCS Correlation Energy    =      -2.2813141798415097 [Eh]
	 SCS Total Energy          =    -527.8013099465204050 [Eh]
	-----------------------------------------------------------

  Dipole Moment: [D]
     X:     1.6375      Y:     3.9216      Z:     0.4512     Total:     4.2736

*** Psi4 exiting successfully. Buy a developer a beer!
