                               Psi4 1.3.2 release

  ==> Input File <==

--------------------------------------------------------------------------
#psi4
#
memory 32 gb

molecule  {
0 1
  N       -1.7314010     0.6447010     0.0841650
  N       -1.4345640    -1.5648400    -0.1846490
  N        1.0669893     1.0363445    -0.2978318
  N        1.3650780    -1.3052570     0.2771500
  C       -0.8211750    -0.3840720    -0.0264870
  C        0.6302560    -0.2085840    -0.0077820
  C       -2.9774260     0.0775420    -0.0074450
  C       -2.7669850    -1.2782450    -0.1740670
  C        2.4478010     1.1517920    -0.2896530
  C        2.6936640    -1.1417610     0.2510410
  C        3.2993530     0.0833730    -0.0301630
  H       -3.8759520     0.6750340     0.0629310
  H       -3.5116600    -2.0553930    -0.2887470
  H        2.8330150     2.1453150    -0.5142540
  H        3.2873230    -2.0271970     0.4738100
  H        4.3785670     0.1979470    -0.0409660
  C       -1.4969110     2.0704780     0.2948980
  H       -0.7998500     2.2172910     1.1191120
  H       -1.0792200     2.5269500    -0.6013110
  H       -2.4567070     2.5274350     0.5414280
units angstrom
no_reorient  #important for SAPT in psi4, default
symmetry c1  #important for SAPT in psi4, default
}

set PROPERTIES_ORIGIN ["COM"]
properties('MP2/aug-cc-pvtz', properties = ['dipole'])
--------------------------------------------------------------------------

    Molecular point group: c1
  Charge       = 0
  Multiplicity = 1
  Basis Set: AUG-CC-PVTZ
    Blend: AUG-CC-PVTZ
  Basis Set: (AUG-CC-PVTZ AUX)
    Blend: AUG-CC-PVTZ-JKFIT

    Orbital Energies [Eh]
    ---------------------

    Doubly Occupied:

       1A    -15.624539     2A    -15.585424     3A    -15.575844
       4A    -15.545131     5A    -11.332981     6A    -11.311381
       7A    -11.306101     8A    -11.293476     9A    -11.272012
      10A    -11.258773    11A    -11.254270    12A    -11.239204
      13A     -1.343505    14A     -1.303535    15A     -1.193834
      16A     -1.176182    17A     -1.089924    18A     -1.006911
      19A     -0.967279    20A     -0.901930    21A     -0.890067
      22A     -0.801259    23A     -0.781823    24A     -0.725836
      25A     -0.699345    26A     -0.685359    27A     -0.645121
      28A     -0.640951    29A     -0.605161    30A     -0.592235
      31A     -0.585048    32A     -0.577954    33A     -0.568684
      34A     -0.554181    35A     -0.541644    36A     -0.481837
      37A     -0.436284    38A     -0.421067    39A     -0.416307
      40A     -0.398052    41A     -0.377369    42A     -0.298256

  @DF-RHF Final Energy:  -525.55339235903193

   => Energetics <=

    Nuclear Repulsion Energy =            653.7091691191633345
    One-Electron Energy =               -2009.9129744595552438
    Two-Electron Energy =                 830.6504129813599775
    Total Energy =                       -525.5533923590319318
  Basis Set: (AUG-CC-PVTZ AUX)
    Blend: AUG-CC-PVTZ-RI
    Molecular point group: c1

    Geometry (in Angstrom), charge = 0, multiplicity = 1:

       Center              X                  Y                   Z               Mass
    ------------   -----------------  -----------------  -----------------  -----------------
         N           -1.735099484786     0.681859513444     0.089254506446    14.003074004430
         N           -1.438262484786    -1.527681486556    -0.179559493554    14.003074004430
         N            1.063290815214     1.073503013444    -0.292742293554    14.003074004430
         N            1.361379515214    -1.268098486556     0.282239506446    14.003074004430
         C           -0.824873484786    -0.346913486556    -0.021397493554    12.000000000000
         C            0.626557515214    -0.171425486556    -0.002692493554    12.000000000000
         C           -2.981124484786     0.114700513444    -0.002355493554    12.000000000000
         C           -2.770683484786    -1.241086486556    -0.168977493554    12.000000000000
         C            2.444102515214     1.188950513444    -0.284563493554    12.000000000000
         C            2.689965515214    -1.104602486556     0.256130506446    12.000000000000
         C            3.295654515214     0.120531513444    -0.025073493554    12.000000000000
         H           -3.879650484786     0.712192513444     0.068020506446     1.007825032230
         H           -3.515358484786    -2.018234486556    -0.283657493554     1.007825032230
         H            2.829316515214     2.182473513444    -0.509164493554     1.007825032230
         H            3.283624515214    -1.990038486556     0.478899506446     1.007825032230
         H            4.374868515214     0.235105513444    -0.035876493554     1.007825032230
         C           -1.500609484786     2.107636513444     0.299987506446    12.000000000000
         H           -0.803548484786     2.254449513444     1.124201506446     1.007825032230
         H           -1.082918484786     2.564108513444    -0.596221493554     1.007825032230
         H           -2.460405484786     2.564593513444     0.546517506446     1.007825032230

  Basis Set: AUG-CC-PVTZ
    Blend: AUG-CC-PVTZ
  Basis Set: (AUG-CC-PVTZ AUX)
    Blend: AUG-CC-PVTZ-JKFIT
	 Reference Energy          =    -525.5533923590319318 [Eh]
	 Singles Energy            =      -0.0000000000000000 [Eh]
	 Same-Spin Energy          =      -0.5783401559943028 [Eh]
	 Opposite-Spin Energy      =      -1.7398657961082140 [Eh]
	 Correlation Energy        =      -2.3182059521025167 [Eh]
	 Total Energy              =    -527.8715983111344485 [Eh]

	 ================> DF-SCS-MP2 Energies <==================
	-----------------------------------------------------------
	 SCS Same-Spin Scale       =       0.3333333333333333 [-]
	 SCS Opposite-Spin Scale   =       1.2000000000000000 [-]
	 SCS Same-Spin Energy      =      -0.1927800519981009 [Eh]
	 SCS Opposite-Spin Energy  =      -2.0878389553298566 [Eh]
	 SCS Correlation Energy    =      -2.2806190073279575 [Eh]
	 SCS Total Energy          =    -527.8340113663598459 [Eh]
	-----------------------------------------------------------

  Dipole Moment: [D]
     X:     1.5439      Y:     4.0640      Z:     0.4910     Total:     4.3750

*** Psi4 exiting successfully. Buy a developer a beer!
