                               Psi4 1.3.2 release

  ==> Input File <==

--------------------------------------------------------------------------
#psi4
#
memory 32 gb

molecule  {
0 1
  N       -1.7314010     0.6447010     0.0841650
  N       -1.4453411    -1.6107700    -0.1907709
  N        1.1113180     1.0210360    -0.2929590
  N        1.3650780    -1.3052570     0.2771500
  C       -0.8211750    -0.3840720    -0.0264870
  C        0.6302560    -0.2085840    -0.0077820
  C       -2.9774260     0.0775420    -0.0074450
  C       -2.7669850    -1.2782450    -0.1740670
  C        2.4478010     1.1517920    -0.2896530
  C        2.6936640    -1.1417610     0.2510410
  C        3.2993530     0.0833730    -0.0301630
  H       -3.8759520     0.6750340     0.0629310
  H       -3.5116600    -2.0553930    -0.2887470
  H        2.8330150     2.1453150    -0.5142540
  H        3.2873230    -2.0271970     0.4738100
  H        4.3785670     0.1979470    -0.0409660
  C       -1.4969110     2.0704780     0.2948980
  H       -0.7998500     2.2172910     1.1191120
  H       -1.0792200     2.5269500    -0.6013110
  H       -2.4567070     2.5274350     0.5414280
units angstrom
no_reorient  #important for SAPT in psi4, default
symmetry c1  #important for SAPT in psi4, default
}

set PROPERTIES_ORIGIN ["COM"]
properties('MP2/aug-cc-pvtz', properties = ['dipole'])
--------------------------------------------------------------------------

    Molecular point group: c1
  Charge       = 0
  Multiplicity = 1
  Basis Set: AUG-CC-PVTZ
    Blend: AUG-CC-PVTZ
  Basis Set: (AUG-CC-PVTZ AUX)
    Blend: AUG-CC-PVTZ-JKFIT

    Orbital Energies [Eh]
    ---------------------

    Doubly Occupied:

       1A    -15.631511     2A    -15.579949     3A    -15.574747
       4A    -15.553381     5A    -11.333774     6A    -11.305871
       7A    -11.302915     8A    -11.300702     9A    -11.275661
      10A    -11.259440    11A    -11.251662    12A    -11.241543
      13A     -1.341271    14A     -1.307660    15A     -1.197292
      16A     -1.174321    17A     -1.088806    18A     -1.005414
      19A     -0.972108    20A     -0.899139    21A     -0.893304
      22A     -0.799561    23A     -0.784339    24A     -0.728116
      25A     -0.702685    26A     -0.685128    27A     -0.646653
      28A     -0.639677    29A     -0.606697    30A     -0.593660
      31A     -0.587465    32A     -0.579691    33A     -0.568241
      34A     -0.551121    35A     -0.541540    36A     -0.481176
      37A     -0.440614    38A     -0.424349    39A     -0.413162
      40A     -0.395532    41A     -0.379201    42A     -0.295378

  @DF-RHF Final Energy:  -525.55157726146672

   => Energetics <=

    Nuclear Repulsion Energy =            652.7912049699616546
    One-Electron Energy =               -2008.0166464656035714
    Two-Electron Energy =                 829.6738642341751984
    Total Energy =                       -525.5515772614667185
  Basis Set: (AUG-CC-PVTZ AUX)
    Blend: AUG-CC-PVTZ-RI
    Molecular point group: c1

    Geometry (in Angstrom), charge = 0, multiplicity = 1:

       Center              X                  Y                   Z               Mass
    ------------   -----------------  -----------------  -----------------  -----------------
         N           -1.738034520502     0.687216551102     0.089363775546    14.003074004430
         N           -1.451974620502    -1.568254448898    -0.185572124454    14.003074004430
         N            1.104684479498     1.063551551102    -0.287760224454    14.003074004430
         N            1.358444479498    -1.262741448898     0.282348775546    14.003074004430
         C           -0.827808520502    -0.341556448898    -0.021288224454    12.000000000000
         C            0.623622479498    -0.166068448898    -0.002583224454    12.000000000000
         C           -2.984059520502     0.120057551102    -0.002246224454    12.000000000000
         C           -2.773618520502    -1.235729448898    -0.168868224454    12.000000000000
         C            2.441167479498     1.194307551102    -0.284454224454    12.000000000000
         C            2.687030479498    -1.099245448898     0.256239775546    12.000000000000
         C            3.292719479498     0.125888551102    -0.024964224454    12.000000000000
         H           -3.882585520502     0.717549551102     0.068129775546     1.007825032230
         H           -3.518293520502    -2.012877448898    -0.283548224454     1.007825032230
         H            2.826381479498     2.187830551102    -0.509055224454     1.007825032230
         H            3.280689479498    -1.984681448898     0.479008775546     1.007825032230
         H            4.371933479498     0.240462551102    -0.035767224454     1.007825032230
         C           -1.503544520502     2.112993551102     0.300096775546    12.000000000000
         H           -0.806483520502     2.259806551102     1.124310775546     1.007825032230
         H           -1.085853520502     2.569465551102    -0.596112224454     1.007825032230
         H           -2.463340520502     2.569950551102     0.546626775546     1.007825032230

  Basis Set: AUG-CC-PVTZ
    Blend: AUG-CC-PVTZ
  Basis Set: (AUG-CC-PVTZ AUX)
    Blend: AUG-CC-PVTZ-JKFIT
	 Reference Energy          =    -525.5515772614667185 [Eh]
	 Singles Energy            =      -0.0000000000000000 [Eh]
	 Same-Spin Energy          =      -0.5791031131120140 [Eh]
	 Opposite-Spin Energy      =      -1.7407831766769026 [Eh]
	 Correlation Energy        =      -2.3198862897889168 [Eh]
	 Total Energy              =    -527.8714635512556015 [Eh]

	 ================> DF-SCS-MP2 Energies <==================
	-----------------------------------------------------------
	 SCS Same-Spin Scale       =       0.3333333333333333 [-]
	 SCS Opposite-Spin Scale   =       1.2000000000000000 [-]
	 SCS Same-Spin Energy      =      -0.1930343710373380 [Eh]
	 SCS Opposite-Spin Energy  =      -2.0889398120122831 [Eh]
	 SCS Correlation Energy    =      -2.2819741830496212 [Eh]
	 SCS Total Energy          =    -527.8335514445163881 [Eh]
	-----------------------------------------------------------

  Dipole Moment: [D]
     X:     1.3293      Y:     4.2173      Z:     0.4952     Total:     4.4494

*** Psi4 exiting successfully. Buy a developer a beer!
