                               Psi4 1.4a3.dev225

  ==> Input File <==

--------------------------------------------------------------------------
#psi4
#
memory 32 gb

molecule  {
0 1
  N       -1.7314010     0.6447010     0.0841650
  N       -1.4345640    -1.5648400    -0.1846490
  N        1.1113180     1.0210360    -0.2929590
  N        1.3650780    -1.3052570     0.2771500
  C       -0.8211750    -0.3840720    -0.0264870
  C        0.6798904    -0.2025829    -0.0071423
  C       -2.9774260     0.0775420    -0.0074450
  C       -2.7669850    -1.2782450    -0.1740670
  C        2.4478010     1.1517920    -0.2896530
  C        2.6936640    -1.1417610     0.2510410
  C        3.2993530     0.0833730    -0.0301630
  H       -3.8759520     0.6750340     0.0629310
  H       -3.5116600    -2.0553930    -0.2887470
  H        2.8330150     2.1453150    -0.5142540
  H        3.2873230    -2.0271970     0.4738100
  H        4.3785670     0.1979470    -0.0409660
  C       -1.4969110     2.0704780     0.2948980
  H       -0.7998500     2.2172910     1.1191120
  H       -1.0792200     2.5269500    -0.6013110
  H       -2.4567070     2.5274350     0.5414280
units angstrom
no_reorient  #important for SAPT in psi4, default
symmetry c1  #important for SAPT in psi4, default
}

set PROPERTIES_ORIGIN ["COM"]
properties('MP2/aug-cc-pvtz', properties = ['dipole'])
--------------------------------------------------------------------------

    Molecular point group: c1
  Charge       = 0
  Multiplicity = 1
  Basis Set: AUG-CC-PVTZ
    Blend: AUG-CC-PVTZ
  Basis Set: (AUG-CC-PVTZ AUX)
    Blend: AUG-CC-PVTZ-JKFIT

    Orbital Energies [Eh]
    ---------------------

    Doubly Occupied:

       1A    -15.622125     2A    -15.581514     3A    -15.576532
       4A    -15.542091     5A    -11.333044     6A    -11.308910
       7A    -11.306191     8A    -11.294861     9A    -11.271903
      10A    -11.255539    11A    -11.254309    12A    -11.236993
      13A     -1.343003    14A     -1.317123    15A     -1.207747
      16A     -1.175350    17A     -1.088720    18A     -1.003400
      19A     -0.964800    20A     -0.905920    21A     -0.891869
      22A     -0.798800    23A     -0.780429    24A     -0.725305
      25A     -0.708142    26A     -0.684759    27A     -0.643789
      28A     -0.638939    29A     -0.607697    30A     -0.593567
      31A     -0.587621    32A     -0.580456    33A     -0.568007
      34A     -0.552463    35A     -0.541627    36A     -0.479376
      37A     -0.435734    38A     -0.429230    39A     -0.418659
      40A     -0.396634    41A     -0.376114    42A     -0.298004

  @DF-RHF Final Energy:  -525.55761751459488

   => Energetics <=

    Nuclear Repulsion Energy =            654.1679094936229149
    One-Electron Energy =               -2010.7964637480411056
    Two-Electron Energy =                 831.0709367398234235
    Total Energy =                       -525.5576175145948810
  Basis Set: (AUG-CC-PVTZ AUX)
    Blend: AUG-CC-PVTZ-RI
    Molecular point group: c1

    Geometry (in Angstrom), charge = 0, multiplicity = 1:

       Center              X                  Y                   Z               Mass
    ------------   -----------------  -----------------  -----------------  -----------------
         N           -1.742698120768     0.682748802532     0.088780287310    14.003074004430
         N           -1.445861120768    -1.526792197468    -0.180033712690    14.003074004430
         N            1.100020879232     1.059083802532    -0.288343712690    14.003074004430
         N            1.353780879232    -1.267209197468     0.281765287310    14.003074004430
         C           -0.832472120768    -0.346024197468    -0.021871712690    12.000000000000
         C            0.668593279232    -0.164535097468    -0.002527012690    12.000000000000
         C           -2.988723120768     0.115589802532    -0.002829712690    12.000000000000
         C           -2.778282120768    -1.240197197468    -0.169451712690    12.000000000000
         C            2.436503879232     1.189839802532    -0.285037712690    12.000000000000
         C            2.682366879232    -1.103713197468     0.255656287310    12.000000000000
         C            3.288055879232     0.121420802532    -0.025547712690    12.000000000000
         H           -3.887249120768     0.713081802532     0.067546287310     1.007825032230
         H           -3.522957120768    -2.017345197468    -0.284131712690     1.007825032230
         H            2.821717879232     2.183362802532    -0.509638712690     1.007825032230
         H            3.276025879232    -1.989149197468     0.478425287310     1.007825032230
         H            4.367269879232     0.235994802532    -0.036350712690     1.007825032230
         C           -1.508208120768     2.108525802532     0.299513287310    12.000000000000
         H           -0.811147120768     2.255338802532     1.123727287310     1.007825032230
         H           -1.090517120768     2.564997802532    -0.596695712690     1.007825032230
         H           -2.468004120768     2.565482802532     0.546043287310     1.007825032230

  Basis Set: AUG-CC-PVTZ
    Blend: AUG-CC-PVTZ
  Basis Set: (AUG-CC-PVTZ AUX)
    Blend: AUG-CC-PVTZ-JKFIT
	 Reference Energy          =    -525.5576175145948810 [Eh]
	 Singles Energy            =      -0.0000000000000000 [Eh]
	 Same-Spin Energy          =      -0.5769631112543806 [Eh]
	 Opposite-Spin Energy      =      -1.7368369618674433 [Eh]
	 Correlation Energy        =      -2.3138000731218238 [Eh]
	 Total Energy              =    -527.8714175877166781 [Eh]

	 ================> DF-SCS-MP2 Energies <==================
	-----------------------------------------------------------
	 SCS Same-Spin Scale       =       0.3333333333333333 [-]
	 SCS Opposite-Spin Scale   =       1.2000000000000000 [-]
	 SCS Same-Spin Energy      =      -0.1923210370847935 [Eh]
	 SCS Opposite-Spin Energy  =      -2.0842043542409319 [Eh]
	 SCS Correlation Energy    =      -2.2765253913257255 [Eh]
	 SCS Total Energy          =    -527.8341429059206575 [Eh]
	-----------------------------------------------------------

  Dipole Moment: [D]
     X:     1.7887      Y:     4.1283      Z:     0.4836     Total:     4.5251

*** Psi4 exiting successfully. Buy a developer a beer!
