                               Psi4 1.3.2 release

  ==> Input File <==

--------------------------------------------------------------------------
#psi4
#
memory 32 gb

molecule  {
0 1
  N       -1.7314010     0.6447010     0.0841650
  N       -1.4345640    -1.5648400    -0.1846490
  N        0.9768721     1.0618138    -0.3088775
  N        1.3650780    -1.3052570     0.2771500
  C       -0.8211750    -0.3840720    -0.0264870
  C        0.6302560    -0.2085840    -0.0077820
  C       -2.9774260     0.0775420    -0.0074450
  C       -2.7669850    -1.2782450    -0.1740670
  C        2.4478010     1.1517920    -0.2896530
  C        2.6936640    -1.1417610     0.2510410
  C        3.2993530     0.0833730    -0.0301630
  H       -3.8759520     0.6750340     0.0629310
  H       -3.5116600    -2.0553930    -0.2887470
  H        2.8330150     2.1453150    -0.5142540
  H        3.2873230    -2.0271970     0.4738100
  H        4.3785670     0.1979470    -0.0409660
  C       -1.4969110     2.0704780     0.2948980
  H       -0.7998500     2.2172910     1.1191120
  H       -1.0792200     2.5269500    -0.6013110
  H       -2.4567070     2.5274350     0.5414280
units angstrom
no_reorient  #important for SAPT in psi4, default
symmetry c1  #important for SAPT in psi4, default
}

set PROPERTIES_ORIGIN ["COM"]
properties('MP2/aug-cc-pvtz', properties = ['dipole'])
--------------------------------------------------------------------------

    Molecular point group: c1
  Charge       = 0
  Multiplicity = 1
  Basis Set: AUG-CC-PVTZ
    Blend: AUG-CC-PVTZ
  Basis Set: (AUG-CC-PVTZ AUX)
    Blend: AUG-CC-PVTZ-JKFIT

    Orbital Energies [Eh]
    ---------------------

    Doubly Occupied:

       1A    -15.621959     2A    -15.595382     3A    -15.577875
       4A    -15.542225     5A    -11.332665     6A    -11.321055
       7A    -11.312138     8A    -11.289780     9A    -11.269453
      10A    -11.258966    11A    -11.256412    12A    -11.236861
      13A     -1.341246    14A     -1.296843    15A     -1.187399
      16A     -1.172684    17A     -1.091434    18A     -1.004434
      19A     -0.964823    20A     -0.907857    21A     -0.881920
      22A     -0.799064    23A     -0.777472    24A     -0.723976
      25A     -0.694304    26A     -0.683671    27A     -0.643565
      28A     -0.642611    29A     -0.600816    30A     -0.590873
      31A     -0.581845    32A     -0.576111    33A     -0.567219
      34A     -0.549299    35A     -0.538594    36A     -0.479847
      37A     -0.438147    38A     -0.421429    39A     -0.416407
      40A     -0.399880    41A     -0.376025    42A     -0.297293

  @DF-RHF Final Energy:  -525.53409788072770

   => Energetics <=

    Nuclear Repulsion Energy =            653.0666310223012943
    One-Electron Energy =               -2008.6777413309143867
    Two-Electron Energy =                 830.0770124278855064
    Total Energy =                       -525.5340978807276997
  Basis Set: (AUG-CC-PVTZ AUX)
    Blend: AUG-CC-PVTZ-RI
    Molecular point group: c1

    Geometry (in Angstrom), charge = 0, multiplicity = 1:

       Center              X                  Y                   Z               Mass
    ------------   -----------------  -----------------  -----------------  -----------------
         N           -1.727216188591     0.679631503300     0.090220765105    14.003074004430
         N           -1.430379188591    -1.529909496700    -0.178593234895    14.003074004430
         N            0.981056911409     1.096744303300    -0.302821734895    14.003074004430
         N            1.369262811409    -1.270326496700     0.283205765105    14.003074004430
         C           -0.816990188591    -0.349141496700    -0.020431234895    12.000000000000
         C            0.634440811409    -0.173653496700    -0.001726234895    12.000000000000
         C           -2.973241188591     0.112472503300    -0.001389234895    12.000000000000
         C           -2.762800188591    -1.243314496700    -0.168011234895    12.000000000000
         C            2.451985811409     1.186722503300    -0.283597234895    12.000000000000
         C            2.697848811409    -1.106830496700     0.257096765105    12.000000000000
         C            3.303537811409     0.118303503300    -0.024107234895    12.000000000000
         H           -3.871767188591     0.709964503300     0.068986765105     1.007825032230
         H           -3.507475188591    -2.020462496700    -0.282691234895     1.007825032230
         H            2.837199811409     2.180245503300    -0.508198234895     1.007825032230
         H            3.291507811409    -1.992266496700     0.479865765105     1.007825032230
         H            4.382751811409     0.232877503300    -0.034910234895     1.007825032230
         C           -1.492726188591     2.105408503300     0.300953765105    12.000000000000
         H           -0.795665188591     2.252221503300     1.125167765105     1.007825032230
         H           -1.075035188591     2.561880503300    -0.595255234895     1.007825032230
         H           -2.452522188591     2.562365503300     0.547483765105     1.007825032230

  Basis Set: AUG-CC-PVTZ
    Blend: AUG-CC-PVTZ
  Basis Set: (AUG-CC-PVTZ AUX)
    Blend: AUG-CC-PVTZ-JKFIT
	 Reference Energy          =    -525.5340978807276997 [Eh]
	 Singles Energy            =      -0.0000000000000000 [Eh]
	 Same-Spin Energy          =      -0.5792880811084640 [Eh]
	 Opposite-Spin Energy      =      -1.7437191285914508 [Eh]
	 Correlation Energy        =      -2.3230072096999148 [Eh]
	 Total Energy              =    -527.8571050904275808 [Eh]

	 ================> DF-SCS-MP2 Energies <==================
	-----------------------------------------------------------
	 SCS Same-Spin Scale       =       0.3333333333333333 [-]
	 SCS Opposite-Spin Scale   =       1.2000000000000000 [-]
	 SCS Same-Spin Energy      =      -0.1930960270361546 [Eh]
	 SCS Opposite-Spin Energy  =      -2.0924629543097408 [Eh]
	 SCS Correlation Energy    =      -2.2855589813458956 [Eh]
	 SCS Total Energy          =    -527.8196568620735434 [Eh]
	-----------------------------------------------------------

  Dipole Moment: [D]
     X:     1.8251      Y:     3.9881      Z:     0.5123     Total:     4.4157

*** Psi4 exiting successfully. Buy a developer a beer!
