                               Psi4 1.3.2 release

  ==> Input File <==

--------------------------------------------------------------------------
#psi4
#
memory 32 gb

molecule  {
0 1
  N       -1.7314010     0.6447010     0.0841650
  N       -1.4345640    -1.5648400    -0.1846490
  N        1.1113180     1.0210360    -0.2929590
  N        1.3650780    -1.3052570     0.2771500
  C       -0.8577941    -0.4147292    -0.0322294
  C        0.6302560    -0.2085840    -0.0077820
  C       -2.9774260     0.0775420    -0.0074450
  C       -2.7669850    -1.2782450    -0.1740670
  C        2.4478010     1.1517920    -0.2896530
  C        2.6936640    -1.1417610     0.2510410
  C        3.2993530     0.0833730    -0.0301630
  H       -3.8759520     0.6750340     0.0629310
  H       -3.5116600    -2.0553930    -0.2887470
  H        2.8330150     2.1453150    -0.5142540
  H        3.2873230    -2.0271970     0.4738100
  H        4.3785670     0.1979470    -0.0409660
  C       -1.4969110     2.0704780     0.2948980
  H       -0.7998500     2.2172910     1.1191120
  H       -1.0792200     2.5269500    -0.6013110
  H       -2.4567070     2.5274350     0.5414280
units angstrom
no_reorient  #important for SAPT in psi4, default
symmetry c1  #important for SAPT in psi4, default
}

set PROPERTIES_ORIGIN ["COM"]
properties('MP2/aug-cc-pvtz', properties = ['dipole'])
--------------------------------------------------------------------------

    Molecular point group: c1
  Charge       = 0
  Multiplicity = 1
  Basis Set: AUG-CC-PVTZ
    Blend: AUG-CC-PVTZ
  Basis Set: (AUG-CC-PVTZ AUX)
    Blend: AUG-CC-PVTZ-JKFIT

    Orbital Energies [Eh]
    ---------------------

    Doubly Occupied:

       1A    -15.620897     2A    -15.580704     3A    -15.574989
       4A    -15.543172     5A    -11.334841     6A    -11.306175
       7A    -11.302985     8A    -11.295225     9A    -11.273587
      10A    -11.258561    11A    -11.252219    12A    -11.238954
      13A     -1.349202    14A     -1.308293    15A     -1.199847
      16A     -1.185562    17A     -1.085857    18A     -1.007464
      19A     -0.967625    20A     -0.898849    21A     -0.890483
      22A     -0.805690    23A     -0.780960    24A     -0.727072
      25A     -0.702423    26A     -0.685874    27A     -0.646360
      28A     -0.637681    29A     -0.607068    30A     -0.593056
      31A     -0.589140    32A     -0.578350    33A     -0.566861
      34A     -0.555128    35A     -0.547051    36A     -0.478935
      37A     -0.439610    38A     -0.424217    39A     -0.413168
      40A     -0.396829    41A     -0.379286    42A     -0.301545

  @DF-RHF Final Energy:  -525.55865381923991

   => Energetics <=

    Nuclear Repulsion Energy =            654.1531374768047726
    One-Electron Energy =               -2010.7599979572748907
    Two-Electron Energy =                 831.0482066612300969
    Total Energy =                       -525.5586538192399075
  Basis Set: (AUG-CC-PVTZ AUX)
    Blend: AUG-CC-PVTZ-RI
    Molecular point group: c1

    Geometry (in Angstrom), charge = 0, multiplicity = 1:

       Center              X                  Y                   Z               Mass
    ------------   -----------------  -----------------  -----------------  -----------------
         N           -1.736232135007     0.685496888648     0.089258720855    14.003074004430
         N           -1.439395135007    -1.524044111352    -0.179555279145    14.003074004430
         N            1.106486864993     1.061831888648    -0.287865279145    14.003074004430
         N            1.360246864993    -1.264461111352     0.282243720855    14.003074004430
         C           -0.862625235007    -0.373933311352    -0.027135679145    12.000000000000
         C            0.625424864993    -0.167788111352    -0.002688279145    12.000000000000
         C           -2.982257135007     0.118337888648    -0.002351279145    12.000000000000
         C           -2.771816135007    -1.237449111352    -0.168973279145    12.000000000000
         C            2.442969864993     1.192587888648    -0.284559279145    12.000000000000
         C            2.688832864993    -1.100965111352     0.256134720855    12.000000000000
         C            3.294521864993     0.124168888648    -0.025069279145    12.000000000000
         H           -3.880783135007     0.715829888648     0.068024720855     1.007825032230
         H           -3.516491135007    -2.014597111352    -0.283653279145     1.007825032230
         H            2.828183864993     2.186110888648    -0.509160279145     1.007825032230
         H            3.282491864993    -1.986401111352     0.478903720855     1.007825032230
         H            4.373735864993     0.238742888648    -0.035872279145     1.007825032230
         C           -1.501742135007     2.111273888648     0.299991720855    12.000000000000
         H           -0.804681135007     2.258086888648     1.124205720855     1.007825032230
         H           -1.084051135007     2.567745888648    -0.596217279145     1.007825032230
         H           -2.461538135007     2.568230888648     0.546521720855     1.007825032230

  Basis Set: AUG-CC-PVTZ
    Blend: AUG-CC-PVTZ
  Basis Set: (AUG-CC-PVTZ AUX)
    Blend: AUG-CC-PVTZ-JKFIT
	 Reference Energy          =    -525.5586538192399075 [Eh]
	 Singles Energy            =      -0.0000000000000000 [Eh]
	 Same-Spin Energy          =      -0.5765034062279326 [Eh]
	 Opposite-Spin Energy      =      -1.7360646985645936 [Eh]
	 Correlation Energy        =      -2.3125681047925264 [Eh]
	 Total Energy              =    -527.8712219240323975 [Eh]

	 ================> DF-SCS-MP2 Energies <==================
	-----------------------------------------------------------
	 SCS Same-Spin Scale       =       0.3333333333333333 [-]
	 SCS Opposite-Spin Scale   =       1.2000000000000000 [-]
	 SCS Same-Spin Energy      =      -0.1921678020759775 [Eh]
	 SCS Opposite-Spin Energy  =      -2.0832776382775120 [Eh]
	 SCS Correlation Energy    =      -2.2754454403534896 [Eh]
	 SCS Total Energy          =    -527.8340992595933585 [Eh]
	-----------------------------------------------------------

  Dipole Moment: [D]
     X:     1.5279      Y:     4.0686      Z:     0.4729     Total:     4.3717

*** Psi4 exiting successfully. Buy a developer a beer!
