                               Psi4 1.3.2 release

  ==> Input File <==

--------------------------------------------------------------------------
#psi4
#
memory 32 gb

molecule  {
0 1
  N       -1.6570063     0.7053264     0.0906722
  N       -1.4345640    -1.5648400    -0.1846490
  N        1.1113180     1.0210360    -0.2929590
  N        1.3650780    -1.3052570     0.2771500
  C       -0.8211750    -0.3840720    -0.0264870
  C        0.6302560    -0.2085840    -0.0077820
  C       -2.9774260     0.0775420    -0.0074450
  C       -2.7669850    -1.2782450    -0.1740670
  C        2.4478010     1.1517920    -0.2896530
  C        2.6936640    -1.1417610     0.2510410
  C        3.2993530     0.0833730    -0.0301630
  H       -3.8759520     0.6750340     0.0629310
  H       -3.5116600    -2.0553930    -0.2887470
  H        2.8330150     2.1453150    -0.5142540
  H        3.2873230    -2.0271970     0.4738100
  H        4.3785670     0.1979470    -0.0409660
  C       -1.4969110     2.0704780     0.2948980
  H       -0.7998500     2.2172910     1.1191120
  H       -1.0792200     2.5269500    -0.6013110
  H       -2.4567070     2.5274350     0.5414280
units angstrom
no_reorient  #important for SAPT in psi4, default
symmetry c1  #important for SAPT in psi4, default
}

set PROPERTIES_ORIGIN ["COM"]
properties('MP2/aug-cc-pvtz', properties = ['dipole'])
--------------------------------------------------------------------------

    Molecular point group: c1
  Charge       = 0
  Multiplicity = 1
  Basis Set: AUG-CC-PVTZ
    Blend: AUG-CC-PVTZ
  Basis Set: (AUG-CC-PVTZ AUX)
    Blend: AUG-CC-PVTZ-JKFIT

    Orbital Energies [Eh]
    ---------------------

    Doubly Occupied:

       1A    -15.622907     2A    -15.581535     3A    -15.576070
       4A    -15.547304     5A    -11.332258     6A    -11.306627
       7A    -11.305008     8A    -11.303583     9A    -11.265339
      10A    -11.264196    11A    -11.253338    12A    -11.248309
      13A     -1.337458    14A     -1.305391    15A     -1.201109
      16A     -1.185927    17A     -1.089163    18A     -1.001502
      19A     -0.973740    20A     -0.899982    21A     -0.893994
      22A     -0.798557    23A     -0.785286    24A     -0.726258
      25A     -0.703402    26A     -0.683583    27A     -0.648560
      28A     -0.637396    29A     -0.609810    30A     -0.608919
      31A     -0.591619    32A     -0.580114    33A     -0.566427
      34A     -0.540409    35A     -0.535417    36A     -0.479881
      37A     -0.438330    38A     -0.424790    39A     -0.413555
      40A     -0.392904    41A     -0.375591    42A     -0.303253

  @DF-RHF Final Energy:  -525.54390191721279

   => Energetics <=

    Nuclear Repulsion Energy =            653.9895053108280081
    One-Electron Energy =               -2010.3892083808375446
    Two-Electron Energy =                 830.8558011527967437
    Total Energy =                       -525.5439019172127928
  Basis Set: (AUG-CC-PVTZ AUX)
    Blend: AUG-CC-PVTZ-RI
    Molecular point group: c1

    Geometry (in Angstrom), charge = 0, multiplicity = 1:

       Center              X                  Y                   Z               Mass
    ------------   -----------------  -----------------  -----------------  -----------------
         N           -1.671090501690     0.738520669712     0.094766203804    14.003074004430
         N           -1.448648201690    -1.531645730288    -0.180554996196    14.003074004430
         N            1.097233798310     1.054230269712    -0.288864996196    14.003074004430
         N            1.350993798310    -1.272062730288     0.281244003804    14.003074004430
         C           -0.835259201690    -0.350877730288    -0.022392996196    12.000000000000
         C            0.616171798310    -0.175389730288    -0.003687996196    12.000000000000
         C           -2.991510201690     0.110736269712    -0.003350996196    12.000000000000
         C           -2.781069201690    -1.245050730288    -0.169972996196    12.000000000000
         C            2.433716798310     1.184986269712    -0.285558996196    12.000000000000
         C            2.679579798310    -1.108566730288     0.255135003804    12.000000000000
         C            3.285268798310     0.116567269712    -0.026068996196    12.000000000000
         H           -3.890036201690     0.708228269712     0.067025003804     1.007825032230
         H           -3.525744201690    -2.022198730288    -0.284652996196     1.007825032230
         H            2.818930798310     2.178509269712    -0.510159996196     1.007825032230
         H            3.273238798310    -1.994002730288     0.477904003804     1.007825032230
         H            4.364482798310     0.231141269712    -0.036871996196     1.007825032230
         C           -1.510995201690     2.103672269712     0.298992003804    12.000000000000
         H           -0.813934201690     2.250485269712     1.123206003804     1.007825032230
         H           -1.093304201690     2.560144269712    -0.597216996196     1.007825032230
         H           -2.470791201690     2.560629269712     0.545522003804     1.007825032230

  Basis Set: AUG-CC-PVTZ
    Blend: AUG-CC-PVTZ
  Basis Set: (AUG-CC-PVTZ AUX)
    Blend: AUG-CC-PVTZ-JKFIT
	 Reference Energy          =    -525.5439019172127928 [Eh]
	 Singles Energy            =      -0.0000000000000000 [Eh]
	 Same-Spin Energy          =      -0.5783360115272186 [Eh]
	 Opposite-Spin Energy      =      -1.7402390831892620 [Eh]
	 Correlation Energy        =      -2.3185750947164805 [Eh]
	 Total Energy              =    -527.8624770119292862 [Eh]

	 ================> DF-SCS-MP2 Energies <==================
	-----------------------------------------------------------
	 SCS Same-Spin Scale       =       0.3333333333333333 [-]
	 SCS Opposite-Spin Scale   =       1.2000000000000000 [-]
	 SCS Same-Spin Energy      =      -0.1927786705090729 [Eh]
	 SCS Opposite-Spin Energy  =      -2.0882868998271142 [Eh]
	 SCS Correlation Energy    =      -2.2810655703361871 [Eh]
	 SCS Total Energy          =    -527.8249674875489745 [Eh]
	-----------------------------------------------------------

  Dipole Moment: [D]
     X:     1.3941      Y:     3.8639      Z:     0.4506     Total:     4.1324

*** Psi4 exiting successfully. Buy a developer a beer!
