                               Psi4 1.3.2 release

  ==> Input File <==

--------------------------------------------------------------------------
#psi4
#
memory 32 gb

molecule  {
0 1
  N       -1.7629856     0.6564579     0.0459291
  N       -1.4345640    -1.5648400    -0.1846490
  N        1.1113180     1.0210360    -0.2929590
  N        1.3650780    -1.3052570     0.2771500
  C       -0.8211750    -0.3840720    -0.0264870
  C        0.6302560    -0.2085840    -0.0077820
  C       -2.9774260     0.0775420    -0.0074450
  C       -2.7669850    -1.2782450    -0.1740670
  C        2.4478010     1.1517920    -0.2896530
  C        2.6936640    -1.1417610     0.2510410
  C        3.2993530     0.0833730    -0.0301630
  H       -3.8759520     0.6750340     0.0629310
  H       -3.5116600    -2.0553930    -0.2887470
  H        2.8330150     2.1453150    -0.5142540
  H        3.2873230    -2.0271970     0.4738100
  H        4.3785670     0.1979470    -0.0409660
  C       -1.4969110     2.0704780     0.2948980
  H       -0.7998500     2.2172910     1.1191120
  H       -1.0792200     2.5269500    -0.6013110
  H       -2.4567070     2.5274350     0.5414280
units angstrom
no_reorient  #important for SAPT in psi4, default
symmetry c1  #important for SAPT in psi4, default
}

set PROPERTIES_ORIGIN ["COM"]
properties('MP2/aug-cc-pvtz', properties = ['dipole'])
--------------------------------------------------------------------------

    Molecular point group: c1
  Charge       = 0
  Multiplicity = 1
  Basis Set: AUG-CC-PVTZ
    Blend: AUG-CC-PVTZ
  Basis Set: (AUG-CC-PVTZ AUX)
    Blend: AUG-CC-PVTZ-JKFIT

    Orbital Energies [Eh]
    ---------------------

    Doubly Occupied:

       1A    -15.626464     2A    -15.578993     3A    -15.574142
       4A    -15.550268     5A    -11.333531     6A    -11.305271
       7A    -11.302534     8A    -11.295305     9A    -11.273539
      10A    -11.261210    11A    -11.250876    12A    -11.238794
      13A     -1.344397    14A     -1.307997    15A     -1.197556
      16A     -1.180118    17A     -1.088375    18A     -1.009990
      19A     -0.966314    20A     -0.898789    21A     -0.892443
      22A     -0.802491    23A     -0.784690    24A     -0.727650
      25A     -0.702038    26A     -0.686294    27A     -0.646377
      28A     -0.640548    29A     -0.606892    30A     -0.592956
      31A     -0.584862    32A     -0.577564    33A     -0.571242
      34A     -0.558183    35A     -0.542913    36A     -0.480610
      37A     -0.437576    38A     -0.423850    39A     -0.412186
      40A     -0.399510    41A     -0.378213    42A     -0.295755

  @DF-RHF Final Energy:  -525.55581178409818

   => Energetics <=

    Nuclear Repulsion Energy =            653.7627268461164931
    One-Electron Energy =               -2009.9784667475059905
    Two-Electron Energy =                 830.6599281172913152
    Total Energy =                       -525.5558117840981822
  Basis Set: (AUG-CC-PVTZ AUX)
    Blend: AUG-CC-PVTZ-RI
    Molecular point group: c1

    Geometry (in Angstrom), charge = 0, multiplicity = 1:

       Center              X                  Y                   Z               Mass
    ------------   -----------------  -----------------  -----------------  -----------------
         N           -1.767798916527     0.693927101246     0.053937152509    14.003074004430
         N           -1.439377316527    -1.527370798754    -0.176640947491    14.003074004430
         N            1.106504683473     1.058505201246    -0.284950947491    14.003074004430
         N            1.360264683473    -1.267787798754     0.285158052509    14.003074004430
         C           -0.825988316527    -0.346602798754    -0.018478947491    12.000000000000
         C            0.625442683473    -0.171114798754     0.000226052509    12.000000000000
         C           -2.982239316527     0.115011201246     0.000563052509    12.000000000000
         C           -2.771798316527    -1.240775798754    -0.166058947491    12.000000000000
         C            2.442987683473     1.189261201246    -0.281644947491    12.000000000000
         C            2.688850683473    -1.104291798754     0.259049052509    12.000000000000
         C            3.294539683473     0.120842201246    -0.022154947491    12.000000000000
         H           -3.880765316527     0.712503201246     0.070939052509     1.007825032230
         H           -3.516473316527    -2.017923798754    -0.280738947491     1.007825032230
         H            2.828201683473     2.182784201246    -0.506245947491     1.007825032230
         H            3.282509683473    -1.989727798754     0.481818052509     1.007825032230
         H            4.373753683473     0.235416201246    -0.032957947491     1.007825032230
         C           -1.501724316527     2.107947201246     0.302906052509    12.000000000000
         H           -0.804663316527     2.254760201246     1.127120052509     1.007825032230
         H           -1.084033316527     2.564419201246    -0.593302947491     1.007825032230
         H           -2.461520316527     2.564904201246     0.549436052509     1.007825032230

  Basis Set: AUG-CC-PVTZ
    Blend: AUG-CC-PVTZ
  Basis Set: (AUG-CC-PVTZ AUX)
    Blend: AUG-CC-PVTZ-JKFIT
	 Reference Energy          =    -525.5558117840981822 [Eh]
	 Singles Energy            =      -0.0000000000000000 [Eh]
	 Same-Spin Energy          =      -0.5782227462219159 [Eh]
	 Opposite-Spin Energy      =      -1.7385682496618866 [Eh]
	 Correlation Energy        =      -2.3167909958838027 [Eh]
	 Total Energy              =    -527.8726027799820031 [Eh]

	 ================> DF-SCS-MP2 Energies <==================
	-----------------------------------------------------------
	 SCS Same-Spin Scale       =       0.3333333333333333 [-]
	 SCS Opposite-Spin Scale   =       1.2000000000000000 [-]
	 SCS Same-Spin Energy      =      -0.1927409154073053 [Eh]
	 SCS Opposite-Spin Energy  =      -2.0862818995942640 [Eh]
	 SCS Correlation Energy    =      -2.2790228150015692 [Eh]
	 SCS Total Energy          =    -527.8348345990997359 [Eh]
	-----------------------------------------------------------

  Dipole Moment: [D]
     X:     1.3548      Y:     4.1035      Z:     0.4968     Total:     4.3498

*** Psi4 exiting successfully. Buy a developer a beer!
