                               Psi4 1.3.2 release

  ==> Input File <==

--------------------------------------------------------------------------
#psi4
#
memory 32 gb

molecule  {
0 1
  N       -1.7314010     0.6447010     0.0841650
  N       -1.4345640    -1.5648400    -0.1846490
  N        1.1113180     1.0210360    -0.2929590
  N        1.3650780    -1.3052570     0.2771500
  C       -0.8872249    -0.3094199    -0.0184576
  C        0.6302560    -0.2085840    -0.0077820
  C       -2.9774260     0.0775420    -0.0074450
  C       -2.7669850    -1.2782450    -0.1740670
  C        2.4478010     1.1517920    -0.2896530
  C        2.6936640    -1.1417610     0.2510410
  C        3.2993530     0.0833730    -0.0301630
  H       -3.8759520     0.6750340     0.0629310
  H       -3.5116600    -2.0553930    -0.2887470
  H        2.8330150     2.1453150    -0.5142540
  H        3.2873230    -2.0271970     0.4738100
  H        4.3785670     0.1979470    -0.0409660
  C       -1.4969110     2.0704780     0.2948980
  H       -0.7998500     2.2172910     1.1191120
  H       -1.0792200     2.5269500    -0.6013110
  H       -2.4567070     2.5274350     0.5414280
units angstrom
no_reorient  #important for SAPT in psi4, default
symmetry c1  #important for SAPT in psi4, default
}

set PROPERTIES_ORIGIN ["COM"]
properties('MP2/aug-cc-pvtz', properties = ['dipole'])
--------------------------------------------------------------------------

    Molecular point group: c1
  Charge       = 0
  Multiplicity = 1
  Basis Set: AUG-CC-PVTZ
    Blend: AUG-CC-PVTZ
  Basis Set: (AUG-CC-PVTZ AUX)
    Blend: AUG-CC-PVTZ-JKFIT

    Orbital Energies [Eh]
    ---------------------

    Doubly Occupied:

       1A    -15.631816     2A    -15.579428     3A    -15.576300
       4A    -15.539904     5A    -11.337058     6A    -11.305409
       7A    -11.303729     8A    -11.294796     9A    -11.279487
      10A    -11.252182    11A    -11.250586    12A    -11.241350
      13A     -1.367032    14A     -1.309559    15A     -1.197263
      16A     -1.176539    17A     -1.085018    18A     -1.005236
      19A     -0.983148    20A     -0.898644    21A     -0.891331
      22A     -0.809862    23A     -0.777555    24A     -0.732376
      25A     -0.702391    26A     -0.686141    27A     -0.658860
      28A     -0.637217    29A     -0.606609    30A     -0.596359
      31A     -0.591728    32A     -0.580193    33A     -0.565729
      34A     -0.549754    35A     -0.545031    36A     -0.477460
      37A     -0.436478    38A     -0.424154    39A     -0.412439
      40A     -0.390696    41A     -0.381808    42A     -0.299134

  @DF-RHF Final Energy:  -525.54700887171475

   => Energetics <=

    Nuclear Repulsion Energy =            654.5928026906688046
    One-Electron Energy =               -2011.5440413116077707
    Two-Electron Energy =                 831.4042297492242142
    Total Energy =                       -525.5470088717147519
  Basis Set: (AUG-CC-PVTZ AUX)
    Blend: AUG-CC-PVTZ-RI
    Molecular point group: c1

    Geometry (in Angstrom), charge = 0, multiplicity = 1:

       Center              X                  Y                   Z               Mass
    ------------   -----------------  -----------------  -----------------  -----------------
         N           -1.734025857769     0.677602386578     0.088226319124    14.003074004430
         N           -1.437188857769    -1.531938613422    -0.180587680876    14.003074004430
         N            1.108693142231     1.053937386578    -0.288897680876    14.003074004430
         N            1.362453142231    -1.272355613422     0.281211319124    14.003074004430
         C           -0.889849757769    -0.276518513422    -0.014396280876    12.000000000000
         C            0.627631142231    -0.175682613422    -0.003720680876    12.000000000000
         C           -2.980050857769     0.110443386578    -0.003383680876    12.000000000000
         C           -2.769609857769    -1.245343613422    -0.170005680876    12.000000000000
         C            2.445176142231     1.184693386578    -0.285591680876    12.000000000000
         C            2.691039142231    -1.108859613422     0.255102319124    12.000000000000
         C            3.296728142231     0.116274386578    -0.026101680876    12.000000000000
         H           -3.878576857769     0.707935386578     0.066992319124     1.007825032230
         H           -3.514284857769    -2.022491613422    -0.284685680876     1.007825032230
         H            2.830390142231     2.178216386578    -0.510192680876     1.007825032230
         H            3.284698142231    -1.994295613422     0.477871319124     1.007825032230
         H            4.375942142231     0.230848386578    -0.036904680876     1.007825032230
         C           -1.499535857769     2.103379386578     0.298959319124    12.000000000000
         H           -0.802474857769     2.250192386578     1.123173319124     1.007825032230
         H           -1.081844857769     2.559851386578    -0.597249680876     1.007825032230
         H           -2.459331857769     2.560336386578     0.545489319124     1.007825032230

  Basis Set: AUG-CC-PVTZ
    Blend: AUG-CC-PVTZ
  Basis Set: (AUG-CC-PVTZ AUX)
    Blend: AUG-CC-PVTZ-JKFIT
	 Reference Energy          =    -525.5470088717147519 [Eh]
	 Singles Energy            =      -0.0000000000000000 [Eh]
	 Same-Spin Energy          =      -0.5773787500964046 [Eh]
	 Opposite-Spin Energy      =      -1.7373622301089526 [Eh]
	 Correlation Energy        =      -2.3147409802053573 [Eh]
	 Total Energy              =    -527.8617498519200808 [Eh]

	 ================> DF-SCS-MP2 Energies <==================
	-----------------------------------------------------------
	 SCS Same-Spin Scale       =       0.3333333333333333 [-]
	 SCS Opposite-Spin Scale   =       1.2000000000000000 [-]
	 SCS Same-Spin Energy      =      -0.1924595833654682 [Eh]
	 SCS Opposite-Spin Energy  =      -2.0848346761307432 [Eh]
	 SCS Correlation Energy    =      -2.2772942594962116 [Eh]
	 SCS Total Energy          =    -527.8243031312109679 [Eh]
	-----------------------------------------------------------

  Dipole Moment: [D]
     X:     1.4670      Y:     4.2989      Z:     0.5148     Total:     4.5714

*** Psi4 exiting successfully. Buy a developer a beer!
