                               Psi4 1.3.2 release

  ==> Input File <==

--------------------------------------------------------------------------
#psi4
#
memory 32 gb

molecule  {
0 1
  N       -1.7215718     0.6230144     0.0816059
  N       -1.4345640    -1.5648400    -0.1846490
  N        1.1113180     1.0210360    -0.2929590
  N        1.3650780    -1.3052570     0.2771500
  C       -0.8211750    -0.3840720    -0.0264870
  C        0.6302560    -0.2085840    -0.0077820
  C       -2.9774260     0.0775420    -0.0074450
  C       -2.7669850    -1.2782450    -0.1740670
  C        2.4478010     1.1517920    -0.2896530
  C        2.6936640    -1.1417610     0.2510410
  C        3.2993530     0.0833730    -0.0301630
  H       -3.8759520     0.6750340     0.0629310
  H       -3.5116600    -2.0553930    -0.2887470
  H        2.8330150     2.1453150    -0.5142540
  H        3.2873230    -2.0271970     0.4738100
  H        4.3785670     0.1979470    -0.0409660
  C       -1.4969110     2.0704780     0.2948980
  H       -0.7998500     2.2172910     1.1191120
  H       -1.0792200     2.5269500    -0.6013110
  H       -2.4567070     2.5274350     0.5414280
units angstrom
no_reorient  #important for SAPT in psi4, default
symmetry c1  #important for SAPT in psi4, default
}

set PROPERTIES_ORIGIN ["COM"]
properties('MP2/aug-cc-pvtz', properties = ['dipole'])
--------------------------------------------------------------------------

    Molecular point group: c1
  Charge       = 0
  Multiplicity = 1
  Basis Set: AUG-CC-PVTZ
    Blend: AUG-CC-PVTZ
  Basis Set: (AUG-CC-PVTZ AUX)
    Blend: AUG-CC-PVTZ-JKFIT

    Orbital Energies [Eh]
    ---------------------

    Doubly Occupied:

       1A    -15.625891     2A    -15.580260     3A    -15.575064
       4A    -15.543220     5A    -11.333442     6A    -11.305995
       7A    -11.303061     8A    -11.293131     9A    -11.275574
      10A    -11.257889    11A    -11.252044    12A    -11.239857
      13A     -1.348240    14A     -1.308582    15A     -1.197697
      16A     -1.174092    17A     -1.089257    18A     -1.008278
      19A     -0.968859    20A     -0.899419    21A     -0.895003
      22A     -0.803369    23A     -0.783827    24A     -0.726456
      25A     -0.702816    26A     -0.686057    27A     -0.646318
      28A     -0.640055    29A     -0.607147    30A     -0.592108
      31A     -0.586488    32A     -0.581003    33A     -0.568792
      34A     -0.555192    35A     -0.545425    36A     -0.481560
      37A     -0.434504    38A     -0.424303    39A     -0.412164
      40A     -0.395813    41A     -0.377746    42A     -0.299425

  @DF-RHF Final Energy:  -525.55801842226094

   => Energetics <=

    Nuclear Repulsion Energy =            654.4819602776817646
    One-Electron Energy =               -2011.4291087421447628
    Two-Electron Energy =                 831.3891300422020549
    Total Energy =                       -525.5580184222609432
  Basis Set: (AUG-CC-PVTZ AUX)
    Blend: AUG-CC-PVTZ-RI
    Molecular point group: c1

    Geometry (in Angstrom), charge = 0, multiplicity = 1:

       Center              X                  Y                   Z               Mass
    ------------   -----------------  -----------------  -----------------  -----------------
         N           -1.730007923849     0.663409180562     0.086493007987    14.003074004430
         N           -1.443000123849    -1.524445219438    -0.179761892013    14.003074004430
         N            1.102881876151     1.061430780562    -0.288071892013    14.003074004430
         N            1.356641876151    -1.264862219438     0.282037107987    14.003074004430
         C           -0.829611123849    -0.343677219438    -0.021599892013    12.000000000000
         C            0.621819876151    -0.168189219438    -0.002894892013    12.000000000000
         C           -2.985862123849     0.117936780562    -0.002557892013    12.000000000000
         C           -2.775421123849    -1.237850219438    -0.169179892013    12.000000000000
         C            2.439364876151     1.192186780562    -0.284765892013    12.000000000000
         C            2.685227876151    -1.101366219438     0.255928107987    12.000000000000
         C            3.290916876151     0.123767780562    -0.025275892013    12.000000000000
         H           -3.884388123849     0.715428780562     0.067818107987     1.007825032230
         H           -3.520096123849    -2.014998219438    -0.283859892013     1.007825032230
         H            2.824578876151     2.185709780562    -0.509366892013     1.007825032230
         H            3.278886876151    -1.986802219438     0.478697107987     1.007825032230
         H            4.370130876151     0.238341780562    -0.036078892013     1.007825032230
         C           -1.505347123849     2.110872780562     0.299785107987    12.000000000000
         H           -0.808286123849     2.257685780562     1.123999107987     1.007825032230
         H           -1.087656123849     2.567344780562    -0.596423892013     1.007825032230
         H           -2.465143123849     2.567829780562     0.546315107987     1.007825032230

  Basis Set: AUG-CC-PVTZ
    Blend: AUG-CC-PVTZ
  Basis Set: (AUG-CC-PVTZ AUX)
    Blend: AUG-CC-PVTZ-JKFIT
	 Reference Energy          =    -525.5580184222609432 [Eh]
	 Singles Energy            =      -0.0000000000000000 [Eh]
	 Same-Spin Energy          =      -0.5777837227631257 [Eh]
	 Opposite-Spin Energy      =      -1.7379456742234305 [Eh]
	 Correlation Energy        =      -2.3157293969865562 [Eh]
	 Total Energy              =    -527.8737478192474555 [Eh]

	 ================> DF-SCS-MP2 Energies <==================
	-----------------------------------------------------------
	 SCS Same-Spin Scale       =       0.3333333333333333 [-]
	 SCS Opposite-Spin Scale   =       1.2000000000000000 [-]
	 SCS Same-Spin Energy      =      -0.1925945742543752 [Eh]
	 SCS Opposite-Spin Energy  =      -2.0855348090681165 [Eh]
	 SCS Correlation Energy    =      -2.2781293833224918 [Eh]
	 SCS Total Energy          =    -527.8361478055834368 [Eh]
	-----------------------------------------------------------

  Dipole Moment: [D]
     X:     1.4067      Y:     4.1736      Z:     0.4889     Total:     4.4313

*** Psi4 exiting successfully. Buy a developer a beer!
