                               Psi4 1.4a3.dev225

  ==> Input File <==

--------------------------------------------------------------------------
#psi4
#
memory 32 gb

molecule  {
0 1
  N       -1.7314010     0.6447010     0.0841650
  N       -1.4345640    -1.5648400    -0.1846490
  N        1.1113180     1.0210360    -0.2929590
  N        1.3650780    -1.3052570     0.2771500
  C       -0.8211750    -0.3840720    -0.0264870
  C        0.6302560    -0.2085840    -0.0077820
  C       -2.9774260     0.0775420    -0.0074450
  C       -2.7669850    -1.2782450    -0.1740670
  C        2.4478010     1.1517920    -0.2896530
  C        2.6936640    -1.1417610     0.2510410
  C        3.3115995     0.0680076    -0.0264312
  H       -3.8759520     0.6750340     0.0629310
  H       -3.5116600    -2.0553930    -0.2887470
  H        2.8330150     2.1453150    -0.5142540
  H        3.2873230    -2.0271970     0.4738100
  H        4.3785670     0.1979470    -0.0409660
  C       -1.4969110     2.0704780     0.2948980
  H       -0.7998500     2.2172910     1.1191120
  H       -1.0792200     2.5269500    -0.6013110
  H       -2.4567070     2.5274350     0.5414280
units angstrom
no_reorient  #important for SAPT in psi4, default
symmetry c1  #important for SAPT in psi4, default
}

set PROPERTIES_ORIGIN ["COM"]
properties('MP2/aug-cc-pvtz', properties = ['dipole'])
--------------------------------------------------------------------------

    Molecular point group: c1
  Charge       = 0
  Multiplicity = 1
  Basis Set: AUG-CC-PVTZ
    Blend: AUG-CC-PVTZ
  Basis Set: (AUG-CC-PVTZ AUX)
    Blend: AUG-CC-PVTZ-JKFIT

    Orbital Energies [Eh]
    ---------------------

    Doubly Occupied:

       1A    -15.625971     2A    -15.580777     3A    -15.574350
       4A    -15.546629     5A    -11.333562     6A    -11.309095
       7A    -11.300985     8A    -11.295498     9A    -11.273590
      10A    -11.260052    11A    -11.252097    12A    -11.240478
      13A     -1.344895    14A     -1.307686    15A     -1.197812
      16A     -1.177950    17A     -1.088007    18A     -1.008009
      19A     -0.968767    20A     -0.899378    21A     -0.893351
      22A     -0.802457    23A     -0.784300    24A     -0.726889
      25A     -0.702215    26A     -0.686614    27A     -0.646401
      28A     -0.641792    29A     -0.608258    30A     -0.591179
      31A     -0.586606    32A     -0.579066    33A     -0.569740
      34A     -0.556496    35A     -0.543264    36A     -0.482059
      37A     -0.436192    38A     -0.424384    39A     -0.412133
      40A     -0.395848    41A     -0.377740    42A     -0.298550

  @DF-RHF Final Energy:  -525.55732887839292

   => Energetics <=

    Nuclear Repulsion Energy =            653.8808425270789257
    One-Electron Energy =               -2010.2140980616848083
    Two-Electron Energy =                 830.7759266562130733
    Total Energy =                       -525.5573288783929229
  Basis Set: (AUG-CC-PVTZ AUX)
    Blend: AUG-CC-PVTZ-RI
    Molecular point group: c1

    Geometry (in Angstrom), charge = 0, multiplicity = 1:

       Center              X                  Y                   Z               Mass
    ------------   -----------------  -----------------  -----------------  -----------------
         N           -1.739895340254     0.684350540255     0.088548488316    14.003074004430
         N           -1.443058340254    -1.525190459745    -0.180265511684    14.003074004430
         N            1.102823659746     1.060685540255    -0.288575511684    14.003074004430
         N            1.356583659746    -1.265607459745     0.281533488316    14.003074004430
         C           -0.829669340254    -0.344422459745    -0.022103511684    12.000000000000
         C            0.621761659746    -0.168934459745    -0.003398511684    12.000000000000
         C           -2.985920340254     0.117191540255    -0.003061511684    12.000000000000
         C           -2.775479340254    -1.238595459745    -0.169683511684    12.000000000000
         C            2.439306659746     1.191441540255    -0.285269511684    12.000000000000
         C            2.685169659746    -1.102111459745     0.255424488316    12.000000000000
         C            3.303105159746     0.107657140255    -0.022047711684    12.000000000000
         H           -3.884446340254     0.714683540255     0.067314488316     1.007825032230
         H           -3.520154340254    -2.015743459745    -0.284363511684     1.007825032230
         H            2.824520659746     2.184964540255    -0.509870511684     1.007825032230
         H            3.278828659746    -1.987547459745     0.478193488316     1.007825032230
         H            4.370072659746     0.237596540255    -0.036582511684     1.007825032230
         C           -1.505405340254     2.110127540255     0.299281488316    12.000000000000
         H           -0.808344340254     2.256940540255     1.123495488316     1.007825032230
         H           -1.087714340254     2.566599540255    -0.596927511684     1.007825032230
         H           -2.465201340254     2.567084540255     0.545811488316     1.007825032230

  Basis Set: AUG-CC-PVTZ
    Blend: AUG-CC-PVTZ
  Basis Set: (AUG-CC-PVTZ AUX)
    Blend: AUG-CC-PVTZ-JKFIT
	 Reference Energy          =    -525.5573288783929229 [Eh]
	 Singles Energy            =      -0.0000000000000000 [Eh]
	 Same-Spin Energy          =      -0.5779664462850881 [Eh]
	 Opposite-Spin Energy      =      -1.7383996254111445 [Eh]
	 Correlation Energy        =      -2.3163660716962324 [Eh]
	 Total Energy              =    -527.8736949500892024 [Eh]

	 ================> DF-SCS-MP2 Energies <==================
	-----------------------------------------------------------
	 SCS Same-Spin Scale       =       0.3333333333333333 [-]
	 SCS Opposite-Spin Scale   =       1.2000000000000000 [-]
	 SCS Same-Spin Energy      =      -0.1926554820950294 [Eh]
	 SCS Opposite-Spin Energy  =      -2.0860795504933733 [Eh]
	 SCS Correlation Energy    =      -2.2787350325884028 [Eh]
	 SCS Total Energy          =    -527.8360639109813519 [Eh]
	-----------------------------------------------------------

  Dipole Moment: [D]
     X:     1.3847      Y:     4.1391      Z:     0.4723     Total:     4.3901

*** Psi4 exiting successfully. Buy a developer a beer!
