                               Psi4 1.3.2 release

  ==> Input File <==

--------------------------------------------------------------------------
#psi4
#
memory 32 gb

molecule  {
0 1
  N       -1.7314010     0.6447010     0.0841650
  N       -1.4345640    -1.5648400    -0.1846490
  N        1.1113180     1.0210360    -0.2929590
  N        1.3650780    -1.3052570     0.2771500
  C       -0.8211750    -0.3840720    -0.0264870
  C        0.6302560    -0.2085840    -0.0077820
  C       -2.9774260     0.0775420    -0.0074450
  C       -2.7365327    -1.4744370    -0.1981784
  C        2.4478010     1.1517920    -0.2896530
  C        2.6936640    -1.1417610     0.2510410
  C        3.2993530     0.0833730    -0.0301630
  H       -3.8759520     0.6750340     0.0629310
  H       -3.5116600    -2.0553930    -0.2887470
  H        2.8330150     2.1453150    -0.5142540
  H        3.2873230    -2.0271970     0.4738100
  H        4.3785670     0.1979470    -0.0409660
  C       -1.4969110     2.0704780     0.2948980
  H       -0.7998500     2.2172910     1.1191120
  H       -1.0792200     2.5269500    -0.6013110
  H       -2.4567070     2.5274350     0.5414280
units angstrom
no_reorient  #important for SAPT in psi4, default
symmetry c1  #important for SAPT in psi4, default
}

set PROPERTIES_ORIGIN ["COM"]
properties('MP2/aug-cc-pvtz', properties = ['dipole'])
--------------------------------------------------------------------------

    Molecular point group: c1
  Charge       = 0
  Multiplicity = 1
  Basis Set: AUG-CC-PVTZ
    Blend: AUG-CC-PVTZ
  Basis Set: (AUG-CC-PVTZ AUX)
    Blend: AUG-CC-PVTZ-JKFIT

    Orbital Energies [Eh]
    ---------------------

    Doubly Occupied:

       1A    -15.643376     2A    -15.574009     3A    -15.568543
       4A    -15.551385     5A    -11.329897     6A    -11.302063
       7A    -11.298901     8A    -11.287542     9A    -11.279161
      10A    -11.278317    11A    -11.257003    12A    -11.245710
      13A     -1.342707    14A     -1.303380    15A     -1.200550
      16A     -1.186532    17A     -1.083411    18A     -0.990511
      19A     -0.979240    20A     -0.895632    21A     -0.885964
      22A     -0.823341    23A     -0.779921    24A     -0.724831
      25A     -0.702250    26A     -0.685107    27A     -0.648421
      28A     -0.640078    29A     -0.637830    30A     -0.590471
      31A     -0.585253    32A     -0.578713    33A     -0.571156
      34A     -0.558303    35A     -0.541677    36A     -0.477113
      37A     -0.421457    38A     -0.418106    39A     -0.403542
      40A     -0.399842    41A     -0.385142    42A     -0.272842

  @DF-RHF Final Energy:  -525.50963731117758

   => Energetics <=

    Nuclear Repulsion Energy =            651.8884109423572681
    One-Electron Energy =               -2006.1376289685931624
    Two-Electron Energy =                 828.7395807150583096
    Total Energy =                       -525.5096373111775847
  Basis Set: (AUG-CC-PVTZ AUX)
    Blend: AUG-CC-PVTZ-RI
    Molecular point group: c1

    Geometry (in Angstrom), charge = 0, multiplicity = 1:

       Center              X                  Y                   Z               Mass
    ------------   -----------------  -----------------  -----------------  -----------------
         N           -1.741260136390     0.697906189833     0.090635751264    14.003074004430
         N           -1.444423136390    -1.511634810167    -0.178178248736    14.003074004430
         N            1.101458863610     1.074241189833    -0.286488248736    14.003074004430
         N            1.355218863610    -1.252051810167     0.283620751264    14.003074004430
         C           -0.831034136390    -0.330866810167    -0.020016248736    12.000000000000
         C            0.620396863610    -0.155378810167    -0.001311248736    12.000000000000
         C           -2.987285136390     0.130747189833    -0.000974248736    12.000000000000
         C           -2.746391836390    -1.421231810167    -0.191707648736    12.000000000000
         C            2.437941863610     1.204997189833    -0.283182248736    12.000000000000
         C            2.683804863610    -1.088555810167     0.257511751264    12.000000000000
         C            3.289493863610     0.136578189833    -0.023692248736    12.000000000000
         H           -3.885811136390     0.728239189833     0.069401751264     1.007825032230
         H           -3.521519136390    -2.002187810167    -0.282276248736     1.007825032230
         H            2.823155863610     2.198520189833    -0.507783248736     1.007825032230
         H            3.277463863610    -1.973991810167     0.480280751264     1.007825032230
         H            4.368707863610     0.251152189833    -0.034495248736     1.007825032230
         C           -1.506770136390     2.123683189833     0.301368751264    12.000000000000
         H           -0.809709136390     2.270496189833     1.125582751264     1.007825032230
         H           -1.089079136390     2.580155189833    -0.594840248736     1.007825032230
         H           -2.466566136390     2.580640189833     0.547898751264     1.007825032230

  Basis Set: AUG-CC-PVTZ
    Blend: AUG-CC-PVTZ
  Basis Set: (AUG-CC-PVTZ AUX)
    Blend: AUG-CC-PVTZ-JKFIT
	 Reference Energy          =    -525.5096373111775847 [Eh]
	 Singles Energy            =      -0.0000000000000000 [Eh]
	 Same-Spin Energy          =      -0.5809069719944173 [Eh]
	 Opposite-Spin Energy      =      -1.7432692818412168 [Eh]
	 Correlation Energy        =      -2.3241762538356339 [Eh]
	 Total Energy              =    -527.8338135650132017 [Eh]

	 ================> DF-SCS-MP2 Energies <==================
	-----------------------------------------------------------
	 SCS Same-Spin Scale       =       0.3333333333333333 [-]
	 SCS Opposite-Spin Scale   =       1.2000000000000000 [-]
	 SCS Same-Spin Energy      =      -0.1936356573314724 [Eh]
	 SCS Opposite-Spin Energy  =      -2.0919231382094599 [Eh]
	 SCS Correlation Energy    =      -2.2855587955409322 [Eh]
	 SCS Total Energy          =    -527.7951961067185493 [Eh]
	-----------------------------------------------------------

  Dipole Moment: [D]
     X:     1.1527      Y:     3.8828      Z:     0.4516     Total:     4.0754

*** Psi4 exiting successfully. Buy a developer a beer!
