                               Psi4 1.3.2 release

  ==> Input File <==

--------------------------------------------------------------------------
#psi4
#
memory 32 gb

molecule  {
0 1
  N       -1.7314010     0.6447010     0.0841650
  N       -1.4757663    -1.5429278    -0.1815283
  N        1.1113180     1.0210360    -0.2929590
  N        1.3650780    -1.3052570     0.2771500
  C       -0.8211750    -0.3840720    -0.0264870
  C        0.6302560    -0.2085840    -0.0077820
  C       -2.9774260     0.0775420    -0.0074450
  C       -2.7669850    -1.2782450    -0.1740670
  C        2.4478010     1.1517920    -0.2896530
  C        2.6936640    -1.1417610     0.2510410
  C        3.2993530     0.0833730    -0.0301630
  H       -3.8759520     0.6750340     0.0629310
  H       -3.5116600    -2.0553930    -0.2887470
  H        2.8330150     2.1453150    -0.5142540
  H        3.2873230    -2.0271970     0.4738100
  H        4.3785670     0.1979470    -0.0409660
  C       -1.4969110     2.0704780     0.2948980
  H       -0.7998500     2.2172910     1.1191120
  H       -1.0792200     2.5269500    -0.6013110
  H       -2.4567070     2.5274350     0.5414280
units angstrom
no_reorient  #important for SAPT in psi4, default
symmetry c1  #important for SAPT in psi4, default
}

set PROPERTIES_ORIGIN ["COM"]
properties('MP2/aug-cc-pvtz', properties = ['dipole'])
--------------------------------------------------------------------------

    Molecular point group: c1
  Charge       = 0
  Multiplicity = 1
  Basis Set: AUG-CC-PVTZ
    Blend: AUG-CC-PVTZ
  Basis Set: (AUG-CC-PVTZ AUX)
    Blend: AUG-CC-PVTZ-JKFIT

    Orbital Energies [Eh]
    ---------------------

    Doubly Occupied:

       1A    -15.627430     2A    -15.579691     3A    -15.574642
       4A    -15.540829     5A    -11.334062     6A    -11.305803
       7A    -11.302868     8A    -11.293203     9A    -11.273111
      10A    -11.258042    11A    -11.251387    12A    -11.236388
      13A     -1.348956    14A     -1.308789    15A     -1.198702
      16A     -1.183575    17A     -1.089188    18A     -1.006665
      19A     -0.971221    20A     -0.899224    21A     -0.893899
      22A     -0.801572    23A     -0.786166    24A     -0.729897
      25A     -0.702507    26A     -0.686204    27A     -0.646748
      28A     -0.640289    29A     -0.608291    30A     -0.593225
      31A     -0.587875    32A     -0.579058    33A     -0.573024
      34A     -0.560641    35A     -0.545971    36A     -0.481262
      37A     -0.429958    38A     -0.424115    39A     -0.411326
      40A     -0.395895    41A     -0.383501    42A     -0.295419

  @DF-RHF Final Energy:  -525.55738924432649

   => Energetics <=

    Nuclear Repulsion Energy =            654.7679622692777457
    One-Electron Energy =               -2011.9694724616977055
    Two-Electron Energy =                 831.6441209480933594
    Total Energy =                       -525.5573892443264867
  Basis Set: (AUG-CC-PVTZ AUX)
    Blend: AUG-CC-PVTZ-RI
    Molecular point group: c1

    Geometry (in Angstrom), charge = 0, multiplicity = 1:

       Center              X                  Y                   Z               Mass
    ------------   -----------------  -----------------  -----------------  -----------------
         N           -1.735372976830     0.681281833234     0.088555248945    14.003074004430
         N           -1.479738276830    -1.506346966766    -0.177138051055    14.003074004430
         N            1.107346023170     1.057616833234    -0.288568751055    14.003074004430
         N            1.361106023170    -1.268676166766     0.281540248945    14.003074004430
         C           -0.825146976830    -0.347491166766    -0.022096751055    12.000000000000
         C            0.626284023170    -0.172003166766    -0.003391751055    12.000000000000
         C           -2.981397976830     0.114122833234    -0.003054751055    12.000000000000
         C           -2.770956976830    -1.241664166766    -0.169676751055    12.000000000000
         C            2.443829023170     1.188372833234    -0.285262751055    12.000000000000
         C            2.689692023170    -1.105180166766     0.255431248945    12.000000000000
         C            3.295381023170     0.119953833234    -0.025772751055    12.000000000000
         H           -3.879923976830     0.711614833234     0.067321248945     1.007825032230
         H           -3.515631976830    -2.018812166766    -0.284356751055     1.007825032230
         H            2.829043023170     2.181895833234    -0.509863751055     1.007825032230
         H            3.283351023170    -1.990616166766     0.478200248945     1.007825032230
         H            4.374595023170     0.234527833234    -0.036575751055     1.007825032230
         C           -1.500882976830     2.107058833234     0.299288248945    12.000000000000
         H           -0.803821976830     2.253871833234     1.123502248945     1.007825032230
         H           -1.083191976830     2.563530833234    -0.596920751055     1.007825032230
         H           -2.460678976830     2.564015833234     0.545818248945     1.007825032230

  Basis Set: AUG-CC-PVTZ
    Blend: AUG-CC-PVTZ
  Basis Set: (AUG-CC-PVTZ AUX)
    Blend: AUG-CC-PVTZ-JKFIT
	 Reference Energy          =    -525.5573892443264867 [Eh]
	 Singles Energy            =      -0.0000000000000000 [Eh]
	 Same-Spin Energy          =      -0.5781699049962545 [Eh]
	 Opposite-Spin Energy      =      -1.7375382431775874 [Eh]
	 Correlation Energy        =      -2.3157081481738420 [Eh]
	 Total Energy              =    -527.8730973925003127 [Eh]

	 ================> DF-SCS-MP2 Energies <==================
	-----------------------------------------------------------
	 SCS Same-Spin Scale       =       0.3333333333333333 [-]
	 SCS Opposite-Spin Scale   =       1.2000000000000000 [-]
	 SCS Same-Spin Energy      =      -0.1927233016654182 [Eh]
	 SCS Opposite-Spin Energy  =      -2.0850458918131047 [Eh]
	 SCS Correlation Energy    =      -2.2777691934785231 [Eh]
	 SCS Total Energy          =    -527.8351584378050347 [Eh]
	-----------------------------------------------------------

  Dipole Moment: [D]
     X:     1.4078      Y:     4.0507      Z:     0.4686     Total:     4.3139

*** Psi4 exiting successfully. Buy a developer a beer!
