                               Psi4 1.3.2 release

  ==> Input File <==

--------------------------------------------------------------------------
#psi4
#
memory 32 gb

molecule  {
0 1
  N       -1.6943761     0.5571200     0.0727302
  N       -1.4345640    -1.5648400    -0.1846490
  N        1.1113180     1.0210360    -0.2929590
  N        1.3650780    -1.3052570     0.2771500
  C       -0.8211750    -0.3840720    -0.0264870
  C        0.6302560    -0.2085840    -0.0077820
  C       -2.9774260     0.0775420    -0.0074450
  C       -2.7669850    -1.2782450    -0.1740670
  C        2.4478010     1.1517920    -0.2896530
  C        2.6936640    -1.1417610     0.2510410
  C        3.2993530     0.0833730    -0.0301630
  H       -3.8759520     0.6750340     0.0629310
  H       -3.5116600    -2.0553930    -0.2887470
  H        2.8330150     2.1453150    -0.5142540
  H        3.2873230    -2.0271970     0.4738100
  H        4.3785670     0.1979470    -0.0409660
  C       -1.4969110     2.0704780     0.2948980
  H       -0.7998500     2.2172910     1.1191120
  H       -1.0792200     2.5269500    -0.6013110
  H       -2.4567070     2.5274350     0.5414280
units angstrom
no_reorient  #important for SAPT in psi4, default
symmetry c1  #important for SAPT in psi4, default
}

set PROPERTIES_ORIGIN ["COM"]
properties('MP2/aug-cc-pvtz', properties = ['dipole'])
--------------------------------------------------------------------------

    Molecular point group: c1
  Charge       = 0
  Multiplicity = 1
  Basis Set: AUG-CC-PVTZ
    Blend: AUG-CC-PVTZ
  Basis Set: (AUG-CC-PVTZ AUX)
    Blend: AUG-CC-PVTZ-JKFIT

    Orbital Energies [Eh]
    ---------------------

    Doubly Occupied:

       1A    -15.625568     2A    -15.581213     3A    -15.575755
       4A    -15.533097     5A    -11.333822     6A    -11.306599
       7A    -11.303483     8A    -11.285762     9A    -11.282067
      10A    -11.252853    11A    -11.251968    12A    -11.238335
      13A     -1.361255    14A     -1.310212    15A     -1.197718
      16A     -1.162857    17A     -1.090435    18A     -1.012317
      19A     -0.968541    20A     -0.899937    21A     -0.898282
      22A     -0.806063    23A     -0.782091    24A     -0.724787
      25A     -0.703288    26A     -0.687098    27A     -0.647993
      28A     -0.641931    29A     -0.606814    30A     -0.594695
      31A     -0.591198    32A     -0.580850    33A     -0.562009
      34A     -0.552587    35A     -0.545989    36A     -0.482626
      37A     -0.429553    38A     -0.424520    39A     -0.410847
      40A     -0.393942    41A     -0.376761    42A     -0.301772

  @DF-RHF Final Energy:  -525.54796475379044

   => Energetics <=

    Nuclear Repulsion Energy =            655.6381555323041539
    One-Electron Energy =               -2013.7332607847197323
    Two-Electron Energy =                 832.5471404986251400
    Total Energy =                       -525.5479647537904384
  Basis Set: (AUG-CC-PVTZ AUX)
    Blend: AUG-CC-PVTZ-RI
    Molecular point group: c1

    Geometry (in Angstrom), charge = 0, multiplicity = 1:

       Center              X                  Y                   Z               Mass
    ------------   -----------------  -----------------  -----------------  -----------------
         N           -1.705191256468     0.603279108268     0.078393738813    14.003074004430
         N           -1.445379156468    -1.518680891732    -0.178985461187    14.003074004430
         N            1.100502843532     1.067195108268    -0.287295461187    14.003074004430
         N            1.354262843532    -1.259097891732     0.282813538813    14.003074004430
         C           -0.831990156468    -0.337912891732    -0.020823461187    12.000000000000
         C            0.619440843532    -0.162424891732    -0.002118461187    12.000000000000
         C           -2.988241156468     0.123701108268    -0.001781461187    12.000000000000
         C           -2.777800156468    -1.232085891732    -0.168403461187    12.000000000000
         C            2.436985843532     1.197951108268    -0.283989461187    12.000000000000
         C            2.682848843532    -1.095601891732     0.256704538813    12.000000000000
         C            3.288537843532     0.129532108268    -0.024499461187    12.000000000000
         H           -3.886767156468     0.721193108268     0.068594538813     1.007825032230
         H           -3.522475156468    -2.009233891732    -0.283083461187     1.007825032230
         H            2.822199843532     2.191474108268    -0.508590461187     1.007825032230
         H            3.276507843532    -1.981037891732     0.479473538813     1.007825032230
         H            4.367751843532     0.244106108268    -0.035302461187     1.007825032230
         C           -1.507726156468     2.116637108268     0.300561538813    12.000000000000
         H           -0.810665156468     2.263450108268     1.124775538813     1.007825032230
         H           -1.090035156468     2.573109108268    -0.595647461187     1.007825032230
         H           -2.467522156468     2.573594108268     0.547091538813     1.007825032230

  Basis Set: AUG-CC-PVTZ
    Blend: AUG-CC-PVTZ
  Basis Set: (AUG-CC-PVTZ AUX)
    Blend: AUG-CC-PVTZ-JKFIT
	 Reference Energy          =    -525.5479647537904384 [Eh]
	 Singles Energy            =      -0.0000000000000000 [Eh]
	 Same-Spin Energy          =      -0.5774885145290625 [Eh]
	 Opposite-Spin Energy      =      -1.7373389264787307 [Eh]
	 Correlation Energy        =      -2.3148274410077931 [Eh]
	 Total Energy              =    -527.8627921947982031 [Eh]

	 ================> DF-SCS-MP2 Energies <==================
	-----------------------------------------------------------
	 SCS Same-Spin Scale       =       0.3333333333333333 [-]
	 SCS Opposite-Spin Scale   =       1.2000000000000000 [-]
	 SCS Same-Spin Energy      =      -0.1924961715096875 [Eh]
	 SCS Opposite-Spin Energy  =      -2.0848067117744766 [Eh]
	 SCS Correlation Energy    =      -2.2773028832841642 [Eh]
	 SCS Total Energy          =    -527.8252676370746030 [Eh]
	-----------------------------------------------------------

  Dipole Moment: [D]
     X:     1.4757      Y:     4.3607      Z:     0.5162     Total:     4.6324

*** Psi4 exiting successfully. Buy a developer a beer!
