                               Psi4 1.3.2 release

  ==> Input File <==

--------------------------------------------------------------------------
#psi4
#
memory 32 gb

molecule  {
0 1
  N       -1.6947469     0.6755211     0.0886813
  N       -1.4345640    -1.5648400    -0.1846490
  N        1.1113180     1.0210360    -0.2929590
  N        1.3650780    -1.3052570     0.2771500
  C       -0.8211750    -0.3840720    -0.0264870
  C        0.6302560    -0.2085840    -0.0077820
  C       -2.9774260     0.0775420    -0.0074450
  C       -2.7669850    -1.2782450    -0.1740670
  C        2.4478010     1.1517920    -0.2896530
  C        2.6936640    -1.1417610     0.2510410
  C        3.2993530     0.0833730    -0.0301630
  H       -3.8759520     0.6750340     0.0629310
  H       -3.5116600    -2.0553930    -0.2887470
  H        2.8330150     2.1453150    -0.5142540
  H        3.2873230    -2.0271970     0.4738100
  H        4.3785670     0.1979470    -0.0409660
  C       -1.4969110     2.0704780     0.2948980
  H       -0.7998500     2.2172910     1.1191120
  H       -1.0792200     2.5269500    -0.6013110
  H       -2.4567070     2.5274350     0.5414280
units angstrom
no_reorient  #important for SAPT in psi4, default
symmetry c1  #important for SAPT in psi4, default
}

set PROPERTIES_ORIGIN ["COM"]
properties('MP2/aug-cc-pvtz', properties = ['dipole'])
--------------------------------------------------------------------------

    Molecular point group: c1
  Charge       = 0
  Multiplicity = 1
  Basis Set: AUG-CC-PVTZ
    Blend: AUG-CC-PVTZ
  Basis Set: (AUG-CC-PVTZ AUX)
    Blend: AUG-CC-PVTZ-JKFIT

    Orbital Energies [Eh]
    ---------------------

    Doubly Occupied:

       1A    -15.624380     2A    -15.580829     3A    -15.575552
       4A    -15.546939     5A    -11.332848     6A    -11.306264
       7A    -11.303311     8A    -11.300180     9A    -11.269210
      10A    -11.262122    11A    -11.252647    12A    -11.244364
      13A     -1.340308    14A     -1.306806    15A     -1.199250
      16A     -1.181738    17A     -1.089053    18A     -1.004420
      19A     -0.971255    20A     -0.899696    21A     -0.893978
      22A     -0.800046    23A     -0.785101    24A     -0.726614
      25A     -0.703138    26A     -0.684522    27A     -0.647008
      28A     -0.638257    29A     -0.608321    30A     -0.599892
      31A     -0.590690    32A     -0.579767    33A     -0.566773
      34A     -0.550841    35A     -0.539002    36A     -0.480764
      37A     -0.437290    38A     -0.424538    39A     -0.413006
      40A     -0.394309    41A     -0.377209    42A     -0.301066

  @DF-RHF Final Energy:  -525.55388735961492

   => Energetics <=

    Nuclear Repulsion Energy =            654.0238049986454598
    One-Electron Energy =               -2010.4887775091708590
    Two-Electron Energy =                 830.9110851509105942
    Total Energy =                       -525.5538873596149188
  Basis Set: (AUG-CC-PVTZ AUX)
    Blend: AUG-CC-PVTZ-RI
    Molecular point group: c1

    Geometry (in Angstrom), charge = 0, multiplicity = 1:

       Center              X                  Y                   Z               Mass
    ------------   -----------------  -----------------  -----------------  -----------------
         N           -1.705529619528     0.711322685608     0.092949464280    14.003074004430
         N           -1.445346719528    -1.529038414392    -0.180380835720    14.003074004430
         N            1.100535280472     1.056837585608    -0.288690835720    14.003074004430
         N            1.354295280472    -1.269455414392     0.281418164280    14.003074004430
         C           -0.831957719528    -0.348270414392    -0.022218835720    12.000000000000
         C            0.619473280472    -0.172782414392    -0.003513835720    12.000000000000
         C           -2.988208719528     0.113343585608    -0.003176835720    12.000000000000
         C           -2.777767719528    -1.242443414392    -0.169798835720    12.000000000000
         C            2.437018280472     1.187593585608    -0.285384835720    12.000000000000
         C            2.682881280472    -1.105959414392     0.255309164280    12.000000000000
         C            3.288570280472     0.119174585608    -0.025894835720    12.000000000000
         H           -3.886734719528     0.710835585608     0.067199164280     1.007825032230
         H           -3.522442719528    -2.019591414392    -0.284478835720     1.007825032230
         H            2.822232280472     2.181116585608    -0.509985835720     1.007825032230
         H            3.276540280472    -1.991395414392     0.478078164280     1.007825032230
         H            4.367784280472     0.233748585608    -0.036697835720     1.007825032230
         C           -1.507693719528     2.106279585608     0.299166164280    12.000000000000
         H           -0.810632719528     2.253092585608     1.123380164280     1.007825032230
         H           -1.090002719528     2.562751585608    -0.597042835720     1.007825032230
         H           -2.467489719528     2.563236585608     0.545696164280     1.007825032230

  Basis Set: AUG-CC-PVTZ
    Blend: AUG-CC-PVTZ
  Basis Set: (AUG-CC-PVTZ AUX)
    Blend: AUG-CC-PVTZ-JKFIT
	 Reference Energy          =    -525.5538873596149188 [Eh]
	 Singles Energy            =      -0.0000000000000000 [Eh]
	 Same-Spin Energy          =      -0.5780615954555097 [Eh]
	 Opposite-Spin Energy      =      -1.7391124430183336 [Eh]
	 Correlation Energy        =      -2.3171740384738433 [Eh]
	 Total Energy              =    -527.8710613980887274 [Eh]

	 ================> DF-SCS-MP2 Energies <==================
	-----------------------------------------------------------
	 SCS Same-Spin Scale       =       0.3333333333333333 [-]
	 SCS Opposite-Spin Scale   =       1.2000000000000000 [-]
	 SCS Same-Spin Energy      =      -0.1926871984851699 [Eh]
	 SCS Opposite-Spin Energy  =      -2.0869349316220003 [Eh]
	 SCS Correlation Energy    =      -2.2796221301071702 [Eh]
	 SCS Total Energy          =    -527.8335094897221325 [Eh]
	-----------------------------------------------------------

  Dipole Moment: [D]
     X:     1.3979      Y:     3.9826      Z:     0.4640     Total:     4.2462

*** Psi4 exiting successfully. Buy a developer a beer!
