                               Psi4 1.4a3.dev225

  ==> Input File <==

--------------------------------------------------------------------------
#psi4
#
memory 32 gb

molecule  {
0 1
  N       -1.7314010     0.6447010     0.0841650
  N       -1.4345640    -1.5648400    -0.1846490
  N        1.1113180     1.0210360    -0.2929590
  N        1.3650780    -1.3052570     0.2771500
  C       -0.8211750    -0.3840720    -0.0264870
  C        0.6480623    -0.1630701    -0.0183377
  C       -2.9774260     0.0775420    -0.0074450
  C       -2.7669850    -1.2782450    -0.1740670
  C        2.4478010     1.1517920    -0.2896530
  C        2.6936640    -1.1417610     0.2510410
  C        3.2993530     0.0833730    -0.0301630
  H       -3.8759520     0.6750340     0.0629310
  H       -3.5116600    -2.0553930    -0.2887470
  H        2.8330150     2.1453150    -0.5142540
  H        3.2873230    -2.0271970     0.4738100
  H        4.3785670     0.1979470    -0.0409660
  C       -1.4969110     2.0704780     0.2948980
  H       -0.7998500     2.2172910     1.1191120
  H       -1.0792200     2.5269500    -0.6013110
  H       -2.4567070     2.5274350     0.5414280
units angstrom
no_reorient  #important for SAPT in psi4, default
symmetry c1  #important for SAPT in psi4, default
}

set PROPERTIES_ORIGIN ["COM"]
properties('MP2/aug-cc-pvtz', properties = ['dipole'])
--------------------------------------------------------------------------

    Molecular point group: c1
  Charge       = 0
  Multiplicity = 1
  Basis Set: AUG-CC-PVTZ
    Blend: AUG-CC-PVTZ
  Basis Set: (AUG-CC-PVTZ AUX)
    Blend: AUG-CC-PVTZ-JKFIT

    Orbital Energies [Eh]
    ---------------------

    Doubly Occupied:

       1A    -15.623532     2A    -15.579083     3A    -15.577368
       4A    -15.545022     5A    -11.332858     6A    -11.307650
       7A    -11.302899     8A    -11.295587     9A    -11.273218
      10A    -11.257710    11A    -11.253368    12A    -11.239060
      13A     -1.344331    14A     -1.314058    15A     -1.201388
      16A     -1.176812    17A     -1.088788    18A     -1.005958
      19A     -0.967342    20A     -0.904886    21A     -0.890025
      22A     -0.801352    23A     -0.782344    24A     -0.726124
      25A     -0.706673    26A     -0.683945    27A     -0.645584
      28A     -0.639231    29A     -0.606675    30A     -0.593337
      31A     -0.587424    32A     -0.579854    33A     -0.570000
      34A     -0.555632    35A     -0.543031    36A     -0.480553
      37A     -0.436313    38A     -0.427468    39A     -0.414065
      40A     -0.395441    41A     -0.377152    42A     -0.298535

  @DF-RHF Final Energy:  -525.55613190641066

   => Energetics <=

    Nuclear Repulsion Energy =            654.2389040916335716
    One-Electron Energy =               -2010.9267170380908283
    Two-Electron Energy =                 831.1316810400464874
    Total Energy =                       -525.5561319064106556
  Basis Set: (AUG-CC-PVTZ AUX)
    Blend: AUG-CC-PVTZ-RI
    Molecular point group: c1

    Geometry (in Angstrom), charge = 0, multiplicity = 1:

       Center              X                  Y                   Z               Mass
    ------------   -----------------  -----------------  -----------------  -----------------
         N           -1.740312130154     0.679786729083     0.089619549450    14.003074004430
         N           -1.443475130154    -1.529754270917    -0.179194450550    14.003074004430
         N            1.102406869846     1.056121729083    -0.287504450550    14.003074004430
         N            1.356166869846    -1.270171270917     0.282604549450    14.003074004430
         C           -0.830086130154    -0.348986270917    -0.021032450550    12.000000000000
         C            0.639151169846    -0.127984370917    -0.012883150550    12.000000000000
         C           -2.986337130154     0.112627729083    -0.001990450550    12.000000000000
         C           -2.775896130154    -1.243159270917    -0.168612450550    12.000000000000
         C            2.438889869846     1.186877729083    -0.284198450550    12.000000000000
         C            2.684752869846    -1.106675270917     0.256495549450    12.000000000000
         C            3.290441869846     0.118458729083    -0.024708450550    12.000000000000
         H           -3.884863130154     0.710119729083     0.068385549450     1.007825032230
         H           -3.520571130154    -2.020307270917    -0.283292450550     1.007825032230
         H            2.824103869846     2.180400729083    -0.508799450550     1.007825032230
         H            3.278411869846    -1.992111270917     0.479264549450     1.007825032230
         H            4.369655869846     0.233032729083    -0.035511450550     1.007825032230
         C           -1.505822130154     2.105563729083     0.300352549450    12.000000000000
         H           -0.808761130154     2.252376729083     1.124566549450     1.007825032230
         H           -1.088131130154     2.562035729083    -0.595856450550     1.007825032230
         H           -2.465618130154     2.562520729083     0.546882549450     1.007825032230

  Basis Set: AUG-CC-PVTZ
    Blend: AUG-CC-PVTZ
  Basis Set: (AUG-CC-PVTZ AUX)
    Blend: AUG-CC-PVTZ-JKFIT
	 Reference Energy          =    -525.5561319064106556 [Eh]
	 Singles Energy            =      -0.0000000000000000 [Eh]
	 Same-Spin Energy          =      -0.5774213622667437 [Eh]
	 Opposite-Spin Energy      =      -1.7378047300801174 [Eh]
	 Correlation Energy        =      -2.3152260923468608 [Eh]
	 Total Energy              =    -527.8713579987575031 [Eh]

	 ================> DF-SCS-MP2 Energies <==================
	-----------------------------------------------------------
	 SCS Same-Spin Scale       =       0.3333333333333333 [-]
	 SCS Opposite-Spin Scale   =       1.2000000000000000 [-]
	 SCS Same-Spin Energy      =      -0.1924737874222479 [Eh]
	 SCS Opposite-Spin Energy  =      -2.0853656760961408 [Eh]
	 SCS Correlation Energy    =      -2.2778394635183887 [Eh]
	 SCS Total Energy          =    -527.8339713699290314 [Eh]
	-----------------------------------------------------------

  Dipole Moment: [D]
     X:     1.5527      Y:     4.1558      Z:     0.4654     Total:     4.4607

*** Psi4 exiting successfully. Buy a developer a beer!
