                               Psi4 1.3.2 release

  ==> Input File <==

--------------------------------------------------------------------------
#psi4
#
memory 32 gb

molecule  {
0 1
  N       -1.7314010     0.6447010     0.0841650
  N       -1.4345640    -1.5648400    -0.1846490
  N        1.1113180     1.0210360    -0.2929590
  N        1.3650780    -1.3052570     0.2771500
  C       -0.7395856    -0.4296080    -0.0306108
  C        0.6302560    -0.2085840    -0.0077820
  C       -2.9774260     0.0775420    -0.0074450
  C       -2.7669850    -1.2782450    -0.1740670
  C        2.4478010     1.1517920    -0.2896530
  C        2.6936640    -1.1417610     0.2510410
  C        3.2993530     0.0833730    -0.0301630
  H       -3.8759520     0.6750340     0.0629310
  H       -3.5116600    -2.0553930    -0.2887470
  H        2.8330150     2.1453150    -0.5142540
  H        3.2873230    -2.0271970     0.4738100
  H        4.3785670     0.1979470    -0.0409660
  C       -1.4969110     2.0704780     0.2948980
  H       -0.7998500     2.2172910     1.1191120
  H       -1.0792200     2.5269500    -0.6013110
  H       -2.4567070     2.5274350     0.5414280
units angstrom
no_reorient  #important for SAPT in psi4, default
symmetry c1  #important for SAPT in psi4, default
}

set PROPERTIES_ORIGIN ["COM"]
properties('MP2/aug-cc-pvtz', properties = ['dipole'])
--------------------------------------------------------------------------

    Molecular point group: c1
  Charge       = 0
  Multiplicity = 1
  Basis Set: AUG-CC-PVTZ
    Blend: AUG-CC-PVTZ
  Basis Set: (AUG-CC-PVTZ AUX)
    Blend: AUG-CC-PVTZ-JKFIT

    Orbital Energies [Eh]
    ---------------------

    Doubly Occupied:

       1A    -15.622759     2A    -15.579433     3A    -15.573176
       4A    -15.555005     5A    -11.328191     6A    -11.305635
       7A    -11.301954     8A    -11.296641     9A    -11.269019
      10A    -11.268363    11A    -11.250692    12A    -11.241565
      13A     -1.332718    14A     -1.303658    15A     -1.197584
      16A     -1.173637    17A     -1.095602    18A     -1.010774
      19A     -0.962358    20A     -0.899965    21A     -0.897406
      22A     -0.794592    23A     -0.791041    24A     -0.723129
      25A     -0.702989    26A     -0.685042    27A     -0.644643
      28A     -0.638077    29A     -0.607957    30A     -0.593811
      31A     -0.588484    32A     -0.577037    33A     -0.570381
      34A     -0.557433    35A     -0.536885    36A     -0.483011
      37A     -0.431955    38A     -0.424077    39A     -0.411017
      40A     -0.402950    41A     -0.375014    42A     -0.293896

  @DF-RHF Final Energy:  -525.54167817657037

   => Energetics <=

    Nuclear Repulsion Energy =            653.8404346135789638
    One-Electron Energy =               -2010.1651207698073449
    Two-Electron Energy =                 830.7830079796580094
    Total Energy =                       -525.5416781765703718
  Basis Set: (AUG-CC-PVTZ AUX)
    Blend: AUG-CC-PVTZ-RI
    Molecular point group: c1

    Geometry (in Angstrom), charge = 0, multiplicity = 1:

       Center              X                  Y                   Z               Mass
    ------------   -----------------  -----------------  -----------------  -----------------
         N           -1.745093624428     0.686612276533     0.089137382653    14.003074004430
         N           -1.448256624428    -1.522928723467    -0.179676617347    14.003074004430
         N            1.097625375572     1.062947276533    -0.287986617347    14.003074004430
         N            1.351385375572    -1.263345723467     0.282122382653    14.003074004430
         C           -0.753278224428    -0.387696723467    -0.025638417347    12.000000000000
         C            0.616563375572    -0.166672723467    -0.002809617347    12.000000000000
         C           -2.991118624428     0.119453276533    -0.002472617347    12.000000000000
         C           -2.780677624428    -1.236333723467    -0.169094617347    12.000000000000
         C            2.434108375572     1.193703276533    -0.284680617347    12.000000000000
         C            2.679971375572    -1.099849723467     0.256013382653    12.000000000000
         C            3.285660375572     0.125284276533    -0.025190617347    12.000000000000
         H           -3.889644624428     0.716945276533     0.067903382653     1.007825032230
         H           -3.525352624428    -2.013481723467    -0.283774617347     1.007825032230
         H            2.819322375572     2.187226276533    -0.509281617347     1.007825032230
         H            3.273630375572    -1.985285723467     0.478782382653     1.007825032230
         H            4.364874375572     0.239858276533    -0.035993617347     1.007825032230
         C           -1.510603624428     2.112389276533     0.299870382653    12.000000000000
         H           -0.813542624428     2.259202276533     1.124084382653     1.007825032230
         H           -1.092912624428     2.568861276533    -0.596338617347     1.007825032230
         H           -2.470399624428     2.569346276533     0.546400382653     1.007825032230

  Basis Set: AUG-CC-PVTZ
    Blend: AUG-CC-PVTZ
  Basis Set: (AUG-CC-PVTZ AUX)
    Blend: AUG-CC-PVTZ-JKFIT
	 Reference Energy          =    -525.5416781765703718 [Eh]
	 Singles Energy            =      -0.0000000000000000 [Eh]
	 Same-Spin Energy          =      -0.5800203733175744 [Eh]
	 Opposite-Spin Energy      =      -1.7419025681812310 [Eh]
	 Correlation Energy        =      -2.3219229414988054 [Eh]
	 Total Energy              =    -527.8636011180691412 [Eh]

	 ================> DF-SCS-MP2 Energies <==================
	-----------------------------------------------------------
	 SCS Same-Spin Scale       =       0.3333333333333333 [-]
	 SCS Opposite-Spin Scale   =       1.2000000000000000 [-]
	 SCS Same-Spin Energy      =      -0.1933401244391915 [Eh]
	 SCS Opposite-Spin Energy  =      -2.0902830818174771 [Eh]
	 SCS Correlation Energy    =      -2.2836232062566686 [Eh]
	 SCS Total Energy          =    -527.8253013828270923 [Eh]
	-----------------------------------------------------------

  Dipole Moment: [D]
     X:     1.2493      Y:     3.9641      Z:     0.4536     Total:     4.1809

*** Psi4 exiting successfully. Buy a developer a beer!
