                               Psi4 1.4a3.dev225

  ==> Input File <==

--------------------------------------------------------------------------
#psi4
#
memory 32 gb

molecule  {
0 1
  N       -1.7314010     0.6447010     0.0841650
  N       -1.4345640    -1.5648400    -0.1846490
  N        1.1113180     1.0210360    -0.2929590
  N        1.3650780    -1.3052570     0.2771500
  C       -0.8211750    -0.3840720    -0.0264870
  C        0.6501098    -0.2061835    -0.0075261
  C       -2.9774260     0.0775420    -0.0074450
  C       -2.7669850    -1.2782450    -0.1740670
  C        2.4478010     1.1517920    -0.2896530
  C        2.6936640    -1.1417610     0.2510410
  C        3.2993530     0.0833730    -0.0301630
  H       -3.8759520     0.6750340     0.0629310
  H       -3.5116600    -2.0553930    -0.2887470
  H        2.8330150     2.1453150    -0.5142540
  H        3.2873230    -2.0271970     0.4738100
  H        4.3785670     0.1979470    -0.0409660
  C       -1.4969110     2.0704780     0.2948980
  H       -0.7998500     2.2172910     1.1191120
  H       -1.0792200     2.5269500    -0.6013110
  H       -2.4567070     2.5274350     0.5414280
units angstrom
no_reorient  #important for SAPT in psi4, default
symmetry c1  #important for SAPT in psi4, default
}

set PROPERTIES_ORIGIN ["COM"]
properties('MP2/aug-cc-pvtz', properties = ['dipole'])
--------------------------------------------------------------------------

    Molecular point group: c1
  Charge       = 0
  Multiplicity = 1
  Basis Set: AUG-CC-PVTZ
    Blend: AUG-CC-PVTZ
  Basis Set: (AUG-CC-PVTZ AUX)
    Blend: AUG-CC-PVTZ-JKFIT

    Orbital Energies [Eh]
    ---------------------

    Doubly Occupied:

       1A    -15.624333     2A    -15.580590     3A    -15.575533
       4A    -15.544737     5A    -11.333207     6A    -11.307057
       7A    -11.304249     8A    -11.295318     9A    -11.272792
      10A    -11.258134    11A    -11.252836    12A    -11.238994
      13A     -1.343820    14A     -1.311918    15A     -1.201623
      16A     -1.176993    17A     -1.088734    18A     -1.006118
      19A     -0.967048    20A     -0.901972    21A     -0.893004
      22A     -0.800932    23A     -0.782851    24A     -0.726216
      25A     -0.704927    26A     -0.685475    27A     -0.645237
      28A     -0.639364    29A     -0.607404    30A     -0.593005
      31A     -0.586936    32A     -0.580141    33A     -0.569183
      34A     -0.554806    35A     -0.542682    36A     -0.480781
      37A     -0.435621    38A     -0.426184    39A     -0.415316
      40A     -0.396499    41A     -0.377194    42A     -0.298451

  @DF-RHF Final Energy:  -525.55863988468548

   => Energetics <=

    Nuclear Repulsion Energy =            654.1332863228873293
    One-Electron Energy =               -2010.7274232508930254
    Two-Electron Energy =                 831.0354970433203334
    Total Energy =                       -525.5586398846854763
  Basis Set: (AUG-CC-PVTZ AUX)
    Blend: AUG-CC-PVTZ-RI
    Molecular point group: c1

    Geometry (in Angstrom), charge = 0, multiplicity = 1:

       Center              X                  Y                   Z               Mass
    ------------   -----------------  -----------------  -----------------  -----------------
         N           -1.740465620805     0.683018721182     0.088809058842    14.003074004430
         N           -1.443628620805    -1.526522278818    -0.180004941158    14.003074004430
         N            1.102253379195     1.059353721182    -0.288314941158    14.003074004430
         N            1.356013379195    -1.266939278818     0.281794058842    14.003074004430
         C           -0.830239620805    -0.345754278818    -0.021842941158    12.000000000000
         C            0.641045179195    -0.167865778818    -0.002882041158    12.000000000000
         C           -2.986490620805     0.115859721182    -0.002800941158    12.000000000000
         C           -2.776049620805    -1.239927278818    -0.169422941158    12.000000000000
         C            2.438736379195     1.190109721182    -0.285008941158    12.000000000000
         C            2.684599379195    -1.103443278818     0.255685058842    12.000000000000
         C            3.290288379195     0.121690721182    -0.025518941158    12.000000000000
         H           -3.885016620805     0.713351721182     0.067575058842     1.007825032230
         H           -3.520724620805    -2.017075278818    -0.284102941158     1.007825032230
         H            2.823950379195     2.183632721182    -0.509609941158     1.007825032230
         H            3.278258379195    -1.988879278818     0.478454058842     1.007825032230
         H            4.369502379195     0.236264721182    -0.036321941158     1.007825032230
         C           -1.505975620805     2.108795721182     0.299542058842    12.000000000000
         H           -0.808914620805     2.255608721182     1.123756058842     1.007825032230
         H           -1.088284620805     2.565267721182    -0.596666941158     1.007825032230
         H           -2.465771620805     2.565752721182     0.546072058842     1.007825032230

  Basis Set: AUG-CC-PVTZ
    Blend: AUG-CC-PVTZ
  Basis Set: (AUG-CC-PVTZ AUX)
    Blend: AUG-CC-PVTZ-JKFIT
	 Reference Energy          =    -525.5586398846854763 [Eh]
	 Singles Energy            =      -0.0000000000000000 [Eh]
	 Same-Spin Energy          =      -0.5775271554668902 [Eh]
	 Opposite-Spin Energy      =      -1.7376596690635984 [Eh]
	 Correlation Energy        =      -2.3151868245304885 [Eh]
	 Total Energy              =    -527.8738267092160186 [Eh]

	 ================> DF-SCS-MP2 Energies <==================
	-----------------------------------------------------------
	 SCS Same-Spin Scale       =       0.3333333333333333 [-]
	 SCS Opposite-Spin Scale   =       1.2000000000000000 [-]
	 SCS Same-Spin Energy      =      -0.1925090518222967 [Eh]
	 SCS Opposite-Spin Energy  =      -2.0851916028763178 [Eh]
	 SCS Correlation Energy    =      -2.2777006546986143 [Eh]
	 SCS Total Energy          =    -527.8363405393840821 [Eh]
	-----------------------------------------------------------

  Dipole Moment: [D]
     X:     1.5518      Y:     4.1165      Z:     0.4813     Total:     4.4255

*** Psi4 exiting successfully. Buy a developer a beer!
