                               Psi4 1.4a3.dev225

  ==> Input File <==

--------------------------------------------------------------------------
#psi4
#
memory 32 gb

molecule  {
0 1
  N       -1.7314010     0.6447010     0.0841650
  N       -1.4345640    -1.5648400    -0.1846490
  N        1.1113180     1.0210360    -0.2929590
  N        1.3650780    -1.3052570     0.2771500
  C       -0.8211750    -0.3840720    -0.0264870
  C        0.6302560    -0.2085840    -0.0077820
  C       -2.9774260     0.0775420    -0.0074450
  C       -2.7669850    -1.2782450    -0.1740670
  C        2.4478010     1.1517920    -0.2896530
  C        2.6936640    -1.1417610     0.2510410
  C        3.2687366     0.1217865    -0.0394926
  H       -3.8759520     0.6750340     0.0629310
  H       -3.5116600    -2.0553930    -0.2887470
  H        2.8330150     2.1453150    -0.5142540
  H        3.2873230    -2.0271970     0.4738100
  H        4.3785670     0.1979470    -0.0409660
  C       -1.4969110     2.0704780     0.2948980
  H       -0.7998500     2.2172910     1.1191120
  H       -1.0792200     2.5269500    -0.6013110
  H       -2.4567070     2.5274350     0.5414280
units angstrom
no_reorient  #important for SAPT in psi4, default
symmetry c1  #important for SAPT in psi4, default
}

set PROPERTIES_ORIGIN ["COM"]
properties('MP2/aug-cc-pvtz', properties = ['dipole'])
--------------------------------------------------------------------------

    Molecular point group: c1
  Charge       = 0
  Multiplicity = 1
  Basis Set: AUG-CC-PVTZ
    Blend: AUG-CC-PVTZ
  Basis Set: (AUG-CC-PVTZ AUX)
    Blend: AUG-CC-PVTZ-JKFIT

    Orbital Energies [Eh]
    ---------------------

    Doubly Occupied:

       1A    -15.625457     2A    -15.577942     3A    -15.576249
       4A    -15.546350     5A    -11.332979     6A    -11.307899
       7A    -11.296923     8A    -11.295247     9A    -11.272900
      10A    -11.259668    11A    -11.250947    12A    -11.240130
      13A     -1.344645    14A     -1.309068    15A     -1.198316
      16A     -1.177655    17A     -1.091738    18A     -1.007890
      19A     -0.968145    20A     -0.902679    21A     -0.891407
      22A     -0.802137    23A     -0.784812    24A     -0.727077
      25A     -0.704615    26A     -0.683797    27A     -0.645942
      28A     -0.635997    29A     -0.603664    30A     -0.597226
      31A     -0.587008    32A     -0.580195    33A     -0.570169
      34A     -0.555938    35A     -0.543251    36A     -0.477994
      37A     -0.436221    38A     -0.424753    39A     -0.412725
      40A     -0.398409    41A     -0.378143    42A     -0.298698

  @DF-RHF Final Energy:  -525.55493060925528

   => Energetics <=

    Nuclear Repulsion Energy =            654.7327761435918774
    One-Electron Energy =               -2011.9294083551587846
    Two-Electron Energy =                 831.6417016023115139
    Total Energy =                       -525.5549306092552797
  Basis Set: (AUG-CC-PVTZ AUX)
    Blend: AUG-CC-PVTZ-RI
    Molecular point group: c1

    Geometry (in Angstrom), charge = 0, multiplicity = 1:

       Center              X                  Y                   Z               Mass
    ------------   -----------------  -----------------  -----------------  -----------------
         N           -1.736682126865     0.680319009922     0.089527634976    14.003074004430
         N           -1.439845126865    -1.529221990078    -0.179286365024    14.003074004430
         N            1.106036873135     1.056654009922    -0.287596365024    14.003074004430
         N            1.359796873135    -1.269638990078     0.282512634976    14.003074004430
         C           -0.826456126865    -0.348453990078    -0.021124365024    12.000000000000
         C            0.624974873135    -0.172965990078    -0.002419365024    12.000000000000
         C           -2.982707126865     0.113160009922    -0.002082365024    12.000000000000
         C           -2.772266126865    -1.242626990078    -0.168704365024    12.000000000000
         C            2.442519873135     1.187410009922    -0.284290365024    12.000000000000
         C            2.688382873135    -1.106142990078     0.256403634976    12.000000000000
         C            3.263455473135     0.157404509922    -0.034129965024    12.000000000000
         H           -3.881233126865     0.710652009922     0.068293634976     1.007825032230
         H           -3.516941126865    -2.019774990078    -0.283384365024     1.007825032230
         H            2.827733873135     2.180933009922    -0.508891365024     1.007825032230
         H            3.282041873135    -1.991578990078     0.479172634976     1.007825032230
         H            4.373285873135     0.233565009922    -0.035603365024     1.007825032230
         C           -1.502192126865     2.106096009922     0.300260634976    12.000000000000
         H           -0.805131126865     2.252909009922     1.124474634976     1.007825032230
         H           -1.084501126865     2.562568009922    -0.595948365024     1.007825032230
         H           -2.461988126865     2.563053009922     0.546790634976     1.007825032230

  Basis Set: AUG-CC-PVTZ
    Blend: AUG-CC-PVTZ
  Basis Set: (AUG-CC-PVTZ AUX)
    Blend: AUG-CC-PVTZ-JKFIT
	 Reference Energy          =    -525.5549306092552797 [Eh]
	 Singles Energy            =      -0.0000000000000000 [Eh]
	 Same-Spin Energy          =      -0.5779387373906186 [Eh]
	 Opposite-Spin Energy      =      -1.7383182371968002 [Eh]
	 Correlation Energy        =      -2.3162569745874189 [Eh]
	 Total Energy              =    -527.8711875838426977 [Eh]

	 ================> DF-SCS-MP2 Energies <==================
	-----------------------------------------------------------
	 SCS Same-Spin Scale       =       0.3333333333333333 [-]
	 SCS Opposite-Spin Scale   =       1.2000000000000000 [-]
	 SCS Same-Spin Energy      =      -0.1926462457968729 [Eh]
	 SCS Opposite-Spin Energy  =      -2.0859818846361602 [Eh]
	 SCS Correlation Energy    =      -2.2786281304330331 [Eh]
	 SCS Total Energy          =    -527.8335587396883284 [Eh]
	-----------------------------------------------------------

  Dipole Moment: [D]
     X:     1.4015      Y:     4.0299      Z:     0.4986     Total:     4.2957

*** Psi4 exiting successfully. Buy a developer a beer!
