                               Psi4 1.4a3.dev225

  ==> Input File <==

--------------------------------------------------------------------------
#psi4
#
memory 32 gb

molecule  {
0 1
  N       -1.7314010     0.6447010     0.0841650
  N       -1.4345640    -1.5648400    -0.1846490
  N        1.1113180     1.0210360    -0.2929590
  N        1.3650780    -1.3052570     0.2771500
  C       -0.8211750    -0.3840720    -0.0264870
  C        0.6302560    -0.2085840    -0.0077820
  C       -2.9774260     0.0775420    -0.0074450
  C       -2.7669850    -1.2782450    -0.1740670
  C        2.4478010     1.1517920    -0.2896530
  C        2.6440478    -1.1478668     0.2520160
  C        3.2993530     0.0833730    -0.0301630
  H       -3.8759520     0.6750340     0.0629310
  H       -3.5116600    -2.0553930    -0.2887470
  H        2.8330150     2.1453150    -0.5142540
  H        3.2873230    -2.0271970     0.4738100
  H        4.3785670     0.1979470    -0.0409660
  C       -1.4969110     2.0704780     0.2948980
  H       -0.7998500     2.2172910     1.1191120
  H       -1.0792200     2.5269500    -0.6013110
  H       -2.4567070     2.5274350     0.5414280
units angstrom
no_reorient  #important for SAPT in psi4, default
symmetry c1  #important for SAPT in psi4, default
}

set PROPERTIES_ORIGIN ["COM"]
properties('MP2/aug-cc-pvtz', properties = ['dipole'])
--------------------------------------------------------------------------

    Molecular point group: c1
  Charge       = 0
  Multiplicity = 1
  Basis Set: AUG-CC-PVTZ
    Blend: AUG-CC-PVTZ
  Basis Set: (AUG-CC-PVTZ AUX)
    Blend: AUG-CC-PVTZ-JKFIT

    Orbital Energies [Eh]
    ---------------------

    Doubly Occupied:

       1A    -15.626655     2A    -15.579440     3A    -15.572468
       4A    -15.547817     5A    -11.335647     6A    -11.302654
       7A    -11.302494     8A    -11.296289     9A    -11.273770
      10A    -11.261050    11A    -11.252273    12A    -11.241304
      13A     -1.346589    14A     -1.315080    15A     -1.207218
      16A     -1.179989    17A     -1.084881    18A     -1.007841
      19A     -0.969252    20A     -0.899106    21A     -0.893266
      22A     -0.803167    23A     -0.784686    24A     -0.726872
      25A     -0.705737    26A     -0.684751    27A     -0.646973
      28A     -0.640176    29A     -0.607982    30A     -0.590235
      31A     -0.588159    32A     -0.580043    33A     -0.570014
      34A     -0.557014    35A     -0.544139    36A     -0.483420
      37A     -0.437328    38A     -0.432105    39A     -0.409845
      40A     -0.393838    41A     -0.377546    42A     -0.298586

  @DF-RHF Final Energy:  -525.55659397377428

   => Energetics <=

    Nuclear Repulsion Energy =            654.9053719080662859
    One-Electron Energy =               -2012.2085385323152877
    Two-Electron Energy =                 831.7465726504748318
    Total Energy =                       -525.5565939737742838
  Basis Set: (AUG-CC-PVTZ AUX)
    Blend: AUG-CC-PVTZ-RI
    Molecular point group: c1

    Geometry (in Angstrom), charge = 0, multiplicity = 1:

       Center              X                  Y                   Z               Mass
    ------------   -----------------  -----------------  -----------------  -----------------
         N           -1.735257808590     0.683656395186     0.088755151576    14.003074004430
         N           -1.438420808590    -1.525884604814    -0.180058848424    14.003074004430
         N            1.107461191410     1.059991395186    -0.288368848424    14.003074004430
         N            1.361221191410    -1.266301604814     0.281740151576    14.003074004430
         C           -0.825031808590    -0.345116604814    -0.021896848424    12.000000000000
         C            0.626399191410    -0.169628604814    -0.003191848424    12.000000000000
         C           -2.981282808590     0.116497395186    -0.002854848424    12.000000000000
         C           -2.770841808590    -1.239289604814    -0.169476848424    12.000000000000
         C            2.443944191410     1.190747395186    -0.285062848424    12.000000000000
         C            2.640190991410    -1.108911404814     0.256606151576    12.000000000000
         C            3.295496191410     0.122328395186    -0.025572848424    12.000000000000
         H           -3.879808808590     0.713989395186     0.067521151576     1.007825032230
         H           -3.515516808590    -2.016437604814    -0.284156848424     1.007825032230
         H            2.829158191410     2.184270395186    -0.509663848424     1.007825032230
         H            3.283466191410    -1.988241604814     0.478400151576     1.007825032230
         H            4.374710191410     0.236902395186    -0.036375848424     1.007825032230
         C           -1.500767808590     2.109433395186     0.299488151576    12.000000000000
         H           -0.803706808590     2.256246395186     1.123702151576     1.007825032230
         H           -1.083076808590     2.565905395186    -0.596720848424     1.007825032230
         H           -2.460563808590     2.566390395186     0.546018151576     1.007825032230

  Basis Set: AUG-CC-PVTZ
    Blend: AUG-CC-PVTZ
  Basis Set: (AUG-CC-PVTZ AUX)
    Blend: AUG-CC-PVTZ-JKFIT
	 Reference Energy          =    -525.5565939737742838 [Eh]
	 Singles Energy            =      -0.0000000000000000 [Eh]
	 Same-Spin Energy          =      -0.5775227448141593 [Eh]
	 Opposite-Spin Energy      =      -1.7373759140199960 [Eh]
	 Correlation Energy        =      -2.3148986588341556 [Eh]
	 Total Energy              =    -527.8714926326084651 [Eh]

	 ================> DF-SCS-MP2 Energies <==================
	-----------------------------------------------------------
	 SCS Same-Spin Scale       =       0.3333333333333333 [-]
	 SCS Opposite-Spin Scale   =       1.2000000000000000 [-]
	 SCS Same-Spin Energy      =      -0.1925075816047198 [Eh]
	 SCS Opposite-Spin Energy  =      -2.0848510968239951 [Eh]
	 SCS Correlation Energy    =      -2.2773586784287150 [Eh]
	 SCS Total Energy          =    -527.8339526522030383 [Eh]
	-----------------------------------------------------------

  Dipole Moment: [D]
     X:     1.2847      Y:     4.0855      Z:     0.4846     Total:     4.3101

*** Psi4 exiting successfully. Buy a developer a beer!
