                               Psi4 1.3.2 release

  ==> Input File <==

--------------------------------------------------------------------------
#psi4
#
memory 32 gb

molecule  {
0 1
  N       -1.7314010     0.6447010     0.0841650
  N       -1.4345640    -1.5648400    -0.1846490
  N        1.1113180     1.0210360    -0.2929590
  N        1.3650780    -1.3052570     0.2771500
  C       -0.8211750    -0.3840720    -0.0264870
  C        0.6302560    -0.2085840    -0.0077820
  C       -2.9774260     0.0775420    -0.0074450
  C       -2.7669850    -1.2782450    -0.1740670
  C        2.2487520     1.1323179    -0.2901454
  C        2.6936640    -1.1417610     0.2510410
  C        3.2993530     0.0833730    -0.0301630
  H       -3.8759520     0.6750340     0.0629310
  H       -3.5116600    -2.0553930    -0.2887470
  H        2.8330150     2.1453150    -0.5142540
  H        3.2873230    -2.0271970     0.4738100
  H        4.3785670     0.1979470    -0.0409660
  C       -1.4969110     2.0704780     0.2948980
  H       -0.7998500     2.2172910     1.1191120
  H       -1.0792200     2.5269500    -0.6013110
  H       -2.4567070     2.5274350     0.5414280
units angstrom
no_reorient  #important for SAPT in psi4, default
symmetry c1  #important for SAPT in psi4, default
}

set PROPERTIES_ORIGIN ["COM"]
properties('MP2/aug-cc-pvtz', properties = ['dipole'])
--------------------------------------------------------------------------

    Molecular point group: c1
  Charge       = 0
  Multiplicity = 1
  Basis Set: AUG-CC-PVTZ
    Blend: AUG-CC-PVTZ
  Basis Set: (AUG-CC-PVTZ AUX)
    Blend: AUG-CC-PVTZ-JKFIT

    Orbital Energies [Eh]
    ---------------------

    Doubly Occupied:

       1A    -15.630282     2A    -15.575187     3A    -15.570462
       4A    -15.550130     5A    -11.340914     6A    -11.302552
       7A    -11.298992     8A    -11.291095     9A    -11.278703
      10A    -11.264058    11A    -11.253134    12A    -11.244159
      13A     -1.370015    14A     -1.340173    15A     -1.232300
      16A     -1.183341    17A     -1.075812    18A     -1.006241
      19A     -0.973822    20A     -0.916869    21A     -0.875213
      22A     -0.803946    23A     -0.790972    24A     -0.729499
      25A     -0.711817    26A     -0.683193    27A     -0.652655
      28A     -0.641446    29A     -0.612746    30A     -0.601281
      31A     -0.595626    32A     -0.588516    33A     -0.562153
      34A     -0.557487    35A     -0.550454    36A     -0.480608
      37A     -0.459140    38A     -0.436127    39A     -0.395979
      40A     -0.390076    41A     -0.373714    42A     -0.296814

  @DF-RHF Final Energy:  -525.49986643531895

   => Energetics <=

    Nuclear Repulsion Energy =            657.8052691218025529
    One-Electron Energy =               -2017.6348690389584135
    Two-Electron Energy =                 834.3297334818370246
    Total Energy =                       -525.4998664353189497
  Basis Set: (AUG-CC-PVTZ AUX)
    Blend: AUG-CC-PVTZ-RI
    Molecular point group: c1

    Geometry (in Angstrom), charge = 0, multiplicity = 1:

       Center              X                  Y                   Z               Mass
    ------------   -----------------  -----------------  -----------------  -----------------
         N           -1.724055592367     0.684658548576     0.088865155084    14.003074004430
         N           -1.427218592367    -1.524882451424    -0.179948844916    14.003074004430
         N            1.118663407633     1.060993548576    -0.288258844916    14.003074004430
         N            1.372423407633    -1.265299451424     0.281850155084    14.003074004430
         C           -0.813829592367    -0.344114451424    -0.021786844916    12.000000000000
         C            0.637601407633    -0.168626451424    -0.003081844916    12.000000000000
         C           -2.970080592367     0.117499548576    -0.002744844916    12.000000000000
         C           -2.759639592367    -1.238287451424    -0.169366844916    12.000000000000
         C            2.256097407633     1.172275448576    -0.285445244916    12.000000000000
         C            2.701009407633    -1.101803451424     0.255741155084    12.000000000000
         C            3.306698407633     0.123330548576    -0.025462844916    12.000000000000
         H           -3.868606592367     0.714991548576     0.067631155084     1.007825032230
         H           -3.504314592367    -2.015435451424    -0.284046844916     1.007825032230
         H            2.840360407633     2.185272548576    -0.509553844916     1.007825032230
         H            3.294668407633    -1.987239451424     0.478510155084     1.007825032230
         H            4.385912407633     0.237904548576    -0.036265844916     1.007825032230
         C           -1.489565592367     2.110435548576     0.299598155084    12.000000000000
         H           -0.792504592367     2.257248548576     1.123812155084     1.007825032230
         H           -1.071874592367     2.566907548576    -0.596610844916     1.007825032230
         H           -2.449361592367     2.567392548576     0.546128155084     1.007825032230

  Basis Set: AUG-CC-PVTZ
    Blend: AUG-CC-PVTZ
  Basis Set: (AUG-CC-PVTZ AUX)
    Blend: AUG-CC-PVTZ-JKFIT
	 Reference Energy          =    -525.4998664353189497 [Eh]
	 Singles Energy            =      -0.0000000000000000 [Eh]
	 Same-Spin Energy          =      -0.5765783246639746 [Eh]
	 Opposite-Spin Energy      =      -1.7368300545742028 [Eh]
	 Correlation Energy        =      -2.3134083792381777 [Eh]
	 Total Energy              =    -527.8132748145570758 [Eh]

	 ================> DF-SCS-MP2 Energies <==================
	-----------------------------------------------------------
	 SCS Same-Spin Scale       =       0.3333333333333333 [-]
	 SCS Opposite-Spin Scale   =       1.2000000000000000 [-]
	 SCS Same-Spin Energy      =      -0.1921927748879915 [Eh]
	 SCS Opposite-Spin Energy  =      -2.0841960654890435 [Eh]
	 SCS Correlation Energy    =      -2.2763888403770349 [Eh]
	 SCS Total Energy          =    -527.7762552756960304 [Eh]
	-----------------------------------------------------------

  Dipole Moment: [D]
     X:     0.8078      Y:     4.1080      Z:     0.4692     Total:     4.2129

*** Psi4 exiting successfully. Buy a developer a beer!
