                               Psi4 1.3.2 release

  ==> Input File <==

--------------------------------------------------------------------------
#psi4
#
memory 32 gb

molecule  {
0 1
  N       -1.7314010     0.6447010     0.0841650
  N       -1.4345640    -1.5648400    -0.1846490
  N        1.1113180     1.0210360    -0.2929590
  N        1.3650780    -1.3052570     0.2771500
  C       -0.8211750    -0.3840720    -0.0264870
  C        0.6523505    -0.2164274    -0.0053045
  C       -2.9774260     0.0775420    -0.0074450
  C       -2.7669850    -1.2782450    -0.1740670
  C        2.4478010     1.1517920    -0.2896530
  C        2.6936640    -1.1417610     0.2510410
  C        3.2993530     0.0833730    -0.0301630
  H       -3.8759520     0.6750340     0.0629310
  H       -3.5116600    -2.0553930    -0.2887470
  H        2.8330150     2.1453150    -0.5142540
  H        3.2873230    -2.0271970     0.4738100
  H        4.3785670     0.1979470    -0.0409660
  C       -1.4969110     2.0704780     0.2948980
  H       -0.7998500     2.2172910     1.1191120
  H       -1.0792200     2.5269500    -0.6013110
  H       -2.4567070     2.5274350     0.5414280
units angstrom
no_reorient  #important for SAPT in psi4, default
symmetry c1  #important for SAPT in psi4, default
}

set PROPERTIES_ORIGIN ["COM"]
properties('MP2/aug-cc-pvtz', properties = ['dipole'])
--------------------------------------------------------------------------

    Molecular point group: c1
  Charge       = 0
  Multiplicity = 1
  Basis Set: AUG-CC-PVTZ
    Blend: AUG-CC-PVTZ
  Basis Set: (AUG-CC-PVTZ AUX)
    Blend: AUG-CC-PVTZ-JKFIT

    Orbital Energies [Eh]
    ---------------------

    Doubly Occupied:

       1A    -15.624388     2A    -15.580941     3A    -15.575085
       4A    -15.544498     5A    -11.333156     6A    -11.307003
       7A    -11.304663     8A    -11.295240     9A    -11.272639
      10A    -11.258064    11A    -11.252838    12A    -11.238845
      13A     -1.343701    14A     -1.312137    15A     -1.201888
      16A     -1.176942    17A     -1.088672    18A     -1.005998
      19A     -0.966835    20A     -0.902174    21A     -0.892968
      22A     -0.800735    23A     -0.782815    24A     -0.726178
      25A     -0.704932    26A     -0.685566    27A     -0.645078
      28A     -0.639355    29A     -0.607630    30A     -0.592965
      31A     -0.586905    32A     -0.580323    33A     -0.568899
      34A     -0.554437    35A     -0.542545    36A     -0.480806
      37A     -0.435369    38A     -0.426416    39A     -0.415629
      40A     -0.396493    41A     -0.377108    42A     -0.298433

  @DF-RHF Final Energy:  -525.55854823823131

   => Energetics <=

    Nuclear Repulsion Energy =            654.1144787765459796
    One-Electron Energy =               -2010.6914706899710836
    Two-Electron Energy =                 831.0184436751936801
    Total Energy =                       -525.5585482382313103
  Basis Set: (AUG-CC-PVTZ AUX)
    Blend: AUG-CC-PVTZ-RI
    Molecular point group: c1

    Geometry (in Angstrom), charge = 0, multiplicity = 1:

       Center              X                  Y                   Z               Mass
    ------------   -----------------  -----------------  -----------------  -----------------
         N           -1.740633594676     0.683786654211     0.088642516801    14.003074004430
         N           -1.443796594676    -1.525754345789    -0.180171483199    14.003074004430
         N            1.102085405324     1.060121654211    -0.288481483199    14.003074004430
         N            1.355845405324    -1.266171345789     0.281627516801    14.003074004430
         C           -0.830407594676    -0.344986345789    -0.022009483199    12.000000000000
         C            0.643117905324    -0.177341745789    -0.000826983199    12.000000000000
         C           -2.986658594676     0.116627654211    -0.002967483199    12.000000000000
         C           -2.776217594676    -1.239159345789    -0.169589483199    12.000000000000
         C            2.438568405324     1.190877654211    -0.285175483199    12.000000000000
         C            2.684431405324    -1.102675345789     0.255518516801    12.000000000000
         C            3.290120405324     0.122458654211    -0.025685483199    12.000000000000
         H           -3.885184594676     0.714119654211     0.067408516801     1.007825032230
         H           -3.520892594676    -2.016307345789    -0.284269483199     1.007825032230
         H            2.823782405324     2.184400654211    -0.509776483199     1.007825032230
         H            3.278090405324    -1.988111345789     0.478287516801     1.007825032230
         H            4.369334405324     0.237032654211    -0.036488483199     1.007825032230
         C           -1.506143594676     2.109563654211     0.299375516801    12.000000000000
         H           -0.809082594676     2.256376654211     1.123589516801     1.007825032230
         H           -1.088452594676     2.566035654211    -0.596833483199     1.007825032230
         H           -2.465939594676     2.566520654211     0.545905516801     1.007825032230

  Basis Set: AUG-CC-PVTZ
    Blend: AUG-CC-PVTZ
  Basis Set: (AUG-CC-PVTZ AUX)
    Blend: AUG-CC-PVTZ-JKFIT
	 Reference Energy          =    -525.5585482382313103 [Eh]
	 Singles Energy            =      -0.0000000000000000 [Eh]
	 Same-Spin Energy          =      -0.5774973852322228 [Eh]
	 Opposite-Spin Energy      =      -1.7376048836531619 [Eh]
	 Correlation Energy        =      -2.3151022688853846 [Eh]
	 Total Energy              =    -527.8736505071167358 [Eh]

	 ================> DF-SCS-MP2 Energies <==================
	-----------------------------------------------------------
	 SCS Same-Spin Scale       =       0.3333333333333333 [-]
	 SCS Opposite-Spin Scale   =       1.2000000000000000 [-]
	 SCS Same-Spin Energy      =      -0.1924991284107409 [Eh]
	 SCS Opposite-Spin Energy  =      -2.0851258603837941 [Eh]
	 SCS Correlation Energy    =      -2.2776249887945350 [Eh]
	 SCS Total Energy          =    -527.8361732270258244 [Eh]
	-----------------------------------------------------------

  Dipole Moment: [D]
     X:     1.5648      Y:     4.1080      Z:     0.4849     Total:     4.4225

*** Psi4 exiting successfully. Buy a developer a beer!
