                               Psi4 1.3.2 release

  ==> Input File <==

--------------------------------------------------------------------------
#psi4
#
memory 32 gb

molecule  {
0 1
  N       -1.7314010     0.6447010     0.0841650
  N       -1.4345640    -1.5648400    -0.1846490
  N        1.1113180     1.0210360    -0.2929590
  N        1.3650780    -1.3052570     0.2771500
  C       -0.8211750    -0.3840720    -0.0264870
  C        0.6302560    -0.2085840    -0.0077820
  C       -3.0144614     0.1649623     0.0051288
  C       -2.7669850    -1.2782450    -0.1740670
  C        2.4478010     1.1517920    -0.2896530
  C        2.6936640    -1.1417610     0.2510410
  C        3.2993530     0.0833730    -0.0301630
  H       -3.8759520     0.6750340     0.0629310
  H       -3.5116600    -2.0553930    -0.2887470
  H        2.8330150     2.1453150    -0.5142540
  H        3.2873230    -2.0271970     0.4738100
  H        4.3785670     0.1979470    -0.0409660
  C       -1.4969110     2.0704780     0.2948980
  H       -0.7998500     2.2172910     1.1191120
  H       -1.0792200     2.5269500    -0.6013110
  H       -2.4567070     2.5274350     0.5414280
units angstrom
no_reorient  #important for SAPT in psi4, default
symmetry c1  #important for SAPT in psi4, default
}

set PROPERTIES_ORIGIN ["COM"]
properties('MP2/aug-cc-pvtz', properties = ['dipole'])
--------------------------------------------------------------------------

    Molecular point group: c1
  Charge       = 0
  Multiplicity = 1
  Basis Set: AUG-CC-PVTZ
    Blend: AUG-CC-PVTZ
  Basis Set: (AUG-CC-PVTZ AUX)
    Blend: AUG-CC-PVTZ-JKFIT

    Orbital Energies [Eh]
    ---------------------

    Doubly Occupied:

       1A    -15.633427     2A    -15.579322     3A    -15.574519
       4A    -15.551296     5A    -11.333789     6A    -11.305569
       7A    -11.302830     8A    -11.295653     9A    -11.272729
      10A    -11.264859    11A    -11.252734    12A    -11.251143
      13A     -1.342585    14A     -1.307268    15A     -1.198030
      16A     -1.180523    17A     -1.087731    18A     -1.002255
      19A     -0.968609    20A     -0.899186    21A     -0.892853
      22A     -0.809994    23A     -0.784373    24A     -0.724230
      25A     -0.703449    26A     -0.691303    27A     -0.651396
      28A     -0.646051    29A     -0.612973    30A     -0.593046
      31A     -0.584401    32A     -0.581969    33A     -0.568625
      34A     -0.547695    35A     -0.540044    36A     -0.481197
      37A     -0.437065    38A     -0.424157    39A     -0.412360
      40A     -0.397533    41A     -0.379028    42A     -0.288400

  @DF-RHF Final Energy:  -525.54052157225726

   => Energetics <=

    Nuclear Repulsion Energy =            652.8305076327391134
    One-Electron Energy =               -2008.0296555608369999
    Two-Electron Energy =                 829.6586263558405108
    Total Energy =                       -525.5405215722572621
  Basis Set: (AUG-CC-PVTZ AUX)
    Blend: AUG-CC-PVTZ-RI
    Molecular point group: c1

    Geometry (in Angstrom), charge = 0, multiplicity = 1:

       Center              X                  Y                   Z               Mass
    ------------   -----------------  -----------------  -----------------  -----------------
         N           -1.736200927115     0.676645219629     0.087885648592    14.003074004430
         N           -1.439363927115    -1.532895780371    -0.180928351408    14.003074004430
         N            1.106518072885     1.052980219629    -0.289238351408    14.003074004430
         N            1.360278072885    -1.273312780371     0.280870648592    14.003074004430
         C           -0.825974927115    -0.352127780371    -0.022766351408    12.000000000000
         C            0.625456072885    -0.176639780371    -0.004061351408    12.000000000000
         C           -3.019261327115     0.196906519629     0.008849448592    12.000000000000
         C           -2.771784927115    -1.246300780371    -0.170346351408    12.000000000000
         C            2.443001072885     1.183736219629    -0.285932351408    12.000000000000
         C            2.688864072885    -1.109816780371     0.254761648592    12.000000000000
         C            3.294553072885     0.115317219629    -0.026442351408    12.000000000000
         H           -3.880751927115     0.706978219629     0.066651648592     1.007825032230
         H           -3.516459927115    -2.023448780371    -0.285026351408     1.007825032230
         H            2.828215072885     2.177259219629    -0.510533351408     1.007825032230
         H            3.282523072885    -1.995252780371     0.477530648592     1.007825032230
         H            4.373767072885     0.229891219629    -0.037245351408     1.007825032230
         C           -1.501710927115     2.102422219629     0.298618648592    12.000000000000
         H           -0.804649927115     2.249235219629     1.122832648592     1.007825032230
         H           -1.084019927115     2.558894219629    -0.597590351408     1.007825032230
         H           -2.461506927115     2.559379219629     0.545148648592     1.007825032230

  Basis Set: AUG-CC-PVTZ
    Blend: AUG-CC-PVTZ
  Basis Set: (AUG-CC-PVTZ AUX)
    Blend: AUG-CC-PVTZ-JKFIT
	 Reference Energy          =    -525.5405215722572621 [Eh]
	 Singles Energy            =      -0.0000000000000000 [Eh]
	 Same-Spin Energy          =      -0.5795008276269255 [Eh]
	 Opposite-Spin Energy      =      -1.7413214335525136 [Eh]
	 Correlation Energy        =      -2.3208222611794391 [Eh]
	 Total Energy              =    -527.8613438334366492 [Eh]

	 ================> DF-SCS-MP2 Energies <==================
	-----------------------------------------------------------
	 SCS Same-Spin Scale       =       0.3333333333333333 [-]
	 SCS Opposite-Spin Scale   =       1.2000000000000000 [-]
	 SCS Same-Spin Energy      =      -0.1931669425423085 [Eh]
	 SCS Opposite-Spin Energy  =      -2.0895857202630164 [Eh]
	 SCS Correlation Energy    =      -2.2827526628053247 [Eh]
	 SCS Total Energy          =    -527.8232742350626268 [Eh]
	-----------------------------------------------------------

  Dipole Moment: [D]
     X:     1.3764      Y:     4.1063      Z:     0.4761     Total:     4.3569

*** Psi4 exiting successfully. Buy a developer a beer!
