                               Psi4 1.3.2 release

  ==> Input File <==

--------------------------------------------------------------------------
#psi4
#
memory 32 gb

molecule  {
0 1
  O       -1.2482290     1.5306510     0.0000030
  N        1.4640540     0.4968240    -0.0000070
  N        0.6053200    -1.5732460     0.0000100
  N       -1.9984820    -0.6503890    -0.0000010
  C        0.3259400    -0.2627350     0.0000100
  C        2.5213300    -0.3786110    -0.0000100
  C        1.5711040     1.9546380     0.0000020
  C       -1.0383326     0.3066706    -0.1999980
  C        1.9690460    -1.6456460     0.0000000
  C       -3.4103270    -0.3314980    -0.0000060
  H        3.5447240    -0.0301030    -0.0000120
  H        1.0842430     2.3633630    -0.8839110
  H        1.0842880     2.3633490     0.8839480
  H        2.6322840     2.2067670    -0.0000220
  H        2.4866360    -2.5959740    -0.0000050
  H       -1.6732310    -1.6118380    -0.0000010
  H       -3.9026090    -0.7325290     0.8908020
  H       -3.9026030    -0.7325320    -0.8908160
  H       -3.4966990     0.7550430    -0.0000090
units angstrom
no_reorient  #important for SAPT in psi4, default
symmetry c1  #important for SAPT in psi4, default
}

set PROPERTIES_ORIGIN ["COM"]
properties('MP2/aug-cc-pvtz', properties = ['dipole'])
--------------------------------------------------------------------------

    Molecular point group: c1
  Charge       = 0
  Multiplicity = 1
  Basis Set: AUG-CC-PVTZ
    Blend: AUG-CC-PVTZ
  Basis Set: (AUG-CC-PVTZ AUX)
    Blend: AUG-CC-PVTZ-JKFIT

    Orbital Energies [Eh]
    ---------------------

    Doubly Occupied:

       1A    -20.525237     2A    -15.637243     3A    -15.586317
       4A    -15.564874     5A    -11.367734     6A    -11.306965
       7A    -11.274724     8A    -11.272309     9A    -11.257947
      10A    -11.255255    11A     -1.376155    12A     -1.344299
      13A     -1.230116    14A     -1.190166    15A     -1.034070
      16A     -0.978641    17A     -0.948975    18A     -0.838956
      19A     -0.814147    20A     -0.770187    21A     -0.733297
      22A     -0.660658    23A     -0.653814    24A     -0.642688
      25A     -0.617933    26A     -0.604499    27A     -0.594966
      28A     -0.581141    29A     -0.563252    30A     -0.558782
      31A     -0.544786    32A     -0.526708    33A     -0.457476
      34A     -0.432679    35A     -0.398226    36A     -0.387031
      37A     -0.322086

  @DF-RHF Final Energy:  -470.81600466541272

   => Energetics <=

    Nuclear Repulsion Energy =            526.4493055475046503
    One-Electron Energy =               -1684.8219390108522475
    Two-Electron Energy =                 687.5566287979347635
    Total Energy =                       -470.8160046654127200
  Basis Set: (AUG-CC-PVTZ AUX)
    Blend: AUG-CC-PVTZ-RI
    Molecular point group: c1

    Geometry (in Angstrom), charge = 0, multiplicity = 1:

       Center              X                  Y                   Z               Mass
    ------------   -----------------  -----------------  -----------------  -----------------
         O           -1.263564505116     1.544910430182     0.017259744723    15.994914619570
         N            1.448718494884     0.511083430182     0.017249744723    14.003074004430
         N            0.589984494884    -1.558986569818     0.017266744723    14.003074004430
         N           -2.013817505116    -0.636129569818     0.017255744723    14.003074004430
         C            0.310604494884    -0.248475569818     0.017266744723    12.000000000000
         C            2.505994494884    -0.364351569818     0.017246744723    12.000000000000
         C            1.555768494884     1.968897430182     0.017258744723    12.000000000000
         C           -1.053668105116     0.320930030182    -0.182741255277    12.000000000000
         C            1.953710494884    -1.631386569818     0.017256744723    12.000000000000
         C           -3.425662505116    -0.317238569818     0.017250744723    12.000000000000
         H            3.529388494884    -0.015843569818     0.017244744723     1.007825032230
         H            1.068907494884     2.377622430182    -0.866654255277     1.007825032230
         H            1.068952494884     2.377608430182     0.901204744723     1.007825032230
         H            2.616948494884     2.221026430182     0.017234744723     1.007825032230
         H            2.471300494884    -2.581714569818     0.017251744723     1.007825032230
         H           -1.688566505116    -1.597578569818     0.017255744723     1.007825032230
         H           -3.917944505116    -0.718269569818     0.908058744723     1.007825032230
         H           -3.917938505116    -0.718272569818    -0.873559255277     1.007825032230
         H           -3.512034505116     0.769302430182     0.017247744723     1.007825032230

  Basis Set: AUG-CC-PVTZ
    Blend: AUG-CC-PVTZ
  Basis Set: (AUG-CC-PVTZ AUX)
    Blend: AUG-CC-PVTZ-JKFIT
	 Reference Energy          =    -470.8160046654127200 [Eh]
	 Singles Energy            =      -0.0000000000000000 [Eh]
	 Same-Spin Energy          =      -0.5005090286847096 [Eh]
	 Opposite-Spin Energy      =      -1.5400330325741851 [Eh]
	 Correlation Energy        =      -2.0405420612588947 [Eh]
	 Total Energy              =    -472.8565467266716382 [Eh]

	 ================> DF-SCS-MP2 Energies <==================
	-----------------------------------------------------------
	 SCS Same-Spin Scale       =       0.3333333333333333 [-]
	 SCS Opposite-Spin Scale   =       1.2000000000000000 [-]
	 SCS Same-Spin Energy      =      -0.1668363428949032 [Eh]
	 SCS Opposite-Spin Energy  =      -1.8480396390890221 [Eh]
	 SCS Correlation Energy    =      -2.0148759819839253 [Eh]
	 SCS Total Energy          =    -472.8308806473966683 [Eh]
	-----------------------------------------------------------

  Dipole Moment: [D]
     X:     1.3623      Y:     0.0339      Z:    -0.1732     Total:     1.3737

*** Psi4 exiting successfully. Buy a developer a beer!
