                               Psi4 1.3.2 release

  ==> Input File <==

--------------------------------------------------------------------------
#psi4
#
memory 32 gb

molecule  {
0 1
  O       -1.2482290     1.5306510     0.0000030
  N        1.4640540     0.4968240    -0.0000070
  N        0.6053200    -1.5732460     0.0000100
  N       -1.9984820    -0.6503890    -0.0000010
  C        0.3259400    -0.2627350     0.0000100
  C        2.5213300    -0.3786110    -0.0000100
  C        1.5711040     1.9546380     0.0000020
  C       -1.0383320     0.3066720     0.0000020
  C        1.9690460    -1.6456460     0.0000000
  C       -3.4103270    -0.3314980    -0.0000060
  H        3.5447240    -0.0301030    -0.0000120
  H        1.0842430     2.3633630    -0.8839110
  H        1.0842880     2.3633490     0.8839480
  H        2.6322840     2.2067670    -0.0000220
  H        2.4866333    -2.5959746    -0.3000050
  H       -1.6732310    -1.6118380    -0.0000010
  H       -3.9026090    -0.7325290     0.8908020
  H       -3.9026030    -0.7325320    -0.8908160
  H       -3.4966990     0.7550430    -0.0000090
units angstrom
no_reorient  #important for SAPT in psi4, default
symmetry c1  #important for SAPT in psi4, default
}

set PROPERTIES_ORIGIN ["COM"]
properties('MP2/aug-cc-pvtz', properties = ['dipole'])
--------------------------------------------------------------------------

    Molecular point group: c1
  Charge       = 0
  Multiplicity = 1
  Basis Set: AUG-CC-PVTZ
    Blend: AUG-CC-PVTZ
  Basis Set: (AUG-CC-PVTZ AUX)
    Blend: AUG-CC-PVTZ-JKFIT

    Orbital Energies [Eh]
    ---------------------

    Doubly Occupied:

       1A    -20.522679     2A    -15.638565     3A    -15.585100
       4A    -15.565903     5A    -11.362537     6A    -11.305499
       7A    -11.275348     8A    -11.273690     9A    -11.258518
      10A    -11.258515    11A     -1.382121    12A     -1.347027
      13A     -1.234924    14A     -1.191074    15A     -1.035870
      16A     -0.979782    17A     -0.950375    18A     -0.839840
      19A     -0.812493    20A     -0.773248    21A     -0.733430
      22A     -0.659785    23A     -0.657050    24A     -0.645433
      25A     -0.619463    26A     -0.601829    27A     -0.595060
      28A     -0.583065    29A     -0.564966    30A     -0.555642
      31A     -0.545840    32A     -0.529441    33A     -0.457912
      34A     -0.434219    35A     -0.399304    36A     -0.388884
      37A     -0.323215

  @DF-RHF Final Energy:  -470.82924588558592

   => Energetics <=

    Nuclear Repulsion Energy =            526.9790573236927003
    One-Electron Energy =               -1685.8413100887164546
    Two-Electron Energy =                 688.0330068794377212
    Total Energy =                       -470.8292458855859195
  Basis Set: (AUG-CC-PVTZ AUX)
    Blend: AUG-CC-PVTZ-RI
    Molecular point group: c1

    Geometry (in Angstrom), charge = 0, multiplicity = 1:

       Center              X                  Y                   Z               Mass
    ------------   -----------------  -----------------  -----------------  -----------------
         O           -1.263564537320     1.544910313732     0.002176810351    15.994914619570
         N            1.448718462680     0.511083313732     0.002166810351    14.003074004430
         N            0.589984462680    -1.558986686268     0.002183810351    14.003074004430
         N           -2.013817537320    -0.636129686268     0.002172810351    14.003074004430
         C            0.310604462680    -0.248475686268     0.002183810351    12.000000000000
         C            2.505994462680    -0.364351686268     0.002163810351    12.000000000000
         C            1.555768462680     1.968897313732     0.002175810351    12.000000000000
         C           -1.053667537320     0.320931313732     0.002175810351    12.000000000000
         C            1.953710462680    -1.631386686268     0.002173810351    12.000000000000
         C           -3.425662537320    -0.317238686268     0.002167810351    12.000000000000
         H            3.529388462680    -0.015843686268     0.002161810351     1.007825032230
         H            1.068907462680     2.377622313732    -0.881737189649     1.007825032230
         H            1.068952462680     2.377608313732     0.886121810351     1.007825032230
         H            2.616948462680     2.221026313732     0.002151810351     1.007825032230
         H            2.471297762680    -2.581715286268    -0.297831189649     1.007825032230
         H           -1.688566537320    -1.597578686268     0.002172810351     1.007825032230
         H           -3.917944537320    -0.718269686268     0.892975810351     1.007825032230
         H           -3.917938537320    -0.718272686268    -0.888642189649     1.007825032230
         H           -3.512034537320     0.769302313732     0.002164810351     1.007825032230

  Basis Set: AUG-CC-PVTZ
    Blend: AUG-CC-PVTZ
  Basis Set: (AUG-CC-PVTZ AUX)
    Blend: AUG-CC-PVTZ-JKFIT
	 Reference Energy          =    -470.8292458855859195 [Eh]
	 Singles Energy            =      -0.0000000000000000 [Eh]
	 Same-Spin Energy          =      -0.4996115411643844 [Eh]
	 Opposite-Spin Energy      =      -1.5377633797107451 [Eh]
	 Correlation Energy        =      -2.0373749208751293 [Eh]
	 Total Energy              =    -472.8666208064610714 [Eh]

	 ================> DF-SCS-MP2 Energies <==================
	-----------------------------------------------------------
	 SCS Same-Spin Scale       =       0.3333333333333333 [-]
	 SCS Opposite-Spin Scale   =       1.2000000000000000 [-]
	 SCS Same-Spin Energy      =      -0.1665371803881281 [Eh]
	 SCS Opposite-Spin Energy  =      -1.8453160556528940 [Eh]
	 SCS Correlation Energy    =      -2.0118532360410222 [Eh]
	 SCS Total Energy          =    -472.8410991216269394 [Eh]
	-----------------------------------------------------------

  Dipole Moment: [D]
     X:     1.3428      Y:     0.0870      Z:    -0.2122     Total:     1.3623

*** Psi4 exiting successfully. Buy a developer a beer!
