                               Psi4 1.3.2 release

  ==> Input File <==

--------------------------------------------------------------------------
#psi4
#
memory 32 gb

molecule  {
0 1
  O       -1.2482290     1.5306510     0.0000030
  N        1.4640540     0.4968240    -0.0000070
  N        0.6053200    -1.5732460     0.0000100
  N       -1.9984820    -0.6503890    -0.0000010
  C        0.3259400    -0.2627350     0.0000100
  C        2.5213300    -0.3786110    -0.0000100
  C        1.5711040     1.9546380     0.0000020
  C       -1.0383320     0.3066720     0.0000020
  C        1.9690460    -1.6456460     0.0000000
  C       -3.4103270    -0.3314980    -0.0000060
  H        3.5447240    -0.0301030    -0.0000120
  H        1.0842430     2.3633630    -0.8839110
  H        1.0842880     2.3633490     0.8839480
  H        2.6322840     2.2067670    -0.0000220
  H        2.4866342    -2.5959744    -0.2000050
  H       -1.6732310    -1.6118380    -0.0000010
  H       -3.9026090    -0.7325290     0.8908020
  H       -3.9026030    -0.7325320    -0.8908160
  H       -3.4966990     0.7550430    -0.0000090
units angstrom
no_reorient  #important for SAPT in psi4, default
symmetry c1  #important for SAPT in psi4, default
}

set PROPERTIES_ORIGIN ["COM"]
properties('MP2/aug-cc-pvtz', properties = ['dipole'])
--------------------------------------------------------------------------

    Molecular point group: c1
  Charge       = 0
  Multiplicity = 1
  Basis Set: AUG-CC-PVTZ
    Blend: AUG-CC-PVTZ
  Basis Set: (AUG-CC-PVTZ AUX)
    Blend: AUG-CC-PVTZ-JKFIT

    Orbital Energies [Eh]
    ---------------------

    Doubly Occupied:

       1A    -20.522470     2A    -15.638164     3A    -15.584942
       4A    -15.565667     5A    -11.362339     6A    -11.305160
       7A    -11.275105     8A    -11.273060     9A    -11.258408
      10A    -11.256785    11A     -1.381885    12A     -1.346687
      13A     -1.234755    14A     -1.190870    15A     -1.035852
      16A     -0.979575    17A     -0.950430    18A     -0.840343
      19A     -0.813590    20A     -0.773075    21A     -0.734095
      22A     -0.659659    23A     -0.656641    24A     -0.645589
      25A     -0.619295    26A     -0.603458    27A     -0.595436
      28A     -0.583344    29A     -0.564406    30A     -0.558003
      31A     -0.545762    32A     -0.529767    33A     -0.457965
      34A     -0.434010    35A     -0.399240    36A     -0.388865
      37A     -0.323165

  @DF-RHF Final Energy:  -470.83275773115935

   => Energetics <=

    Nuclear Repulsion Energy =            527.0628318484215242
    One-Electron Energy =               -1686.0154584783881546
    Two-Electron Energy =                 688.1198688988074537
    Total Energy =                       -470.8327577311592904
  Basis Set: (AUG-CC-PVTZ AUX)
    Blend: AUG-CC-PVTZ-RI
    Molecular point group: c1

    Geometry (in Angstrom), charge = 0, multiplicity = 1:

       Center              X                  Y                   Z               Mass
    ------------   -----------------  -----------------  -----------------  -----------------
         O           -1.263564543842     1.544910312282     0.001452145093    15.994914619570
         N            1.448718456158     0.511083312282     0.001442145093    14.003074004430
         N            0.589984456158    -1.558986687718     0.001459145093    14.003074004430
         N           -2.013817543842    -0.636129687718     0.001448145093    14.003074004430
         C            0.310604456158    -0.248475687718     0.001459145093    12.000000000000
         C            2.505994456158    -0.364351687718     0.001439145093    12.000000000000
         C            1.555768456158     1.968897312282     0.001451145093    12.000000000000
         C           -1.053667543842     0.320931312282     0.001451145093    12.000000000000
         C            1.953710456158    -1.631386687718     0.001449145093    12.000000000000
         C           -3.425662543842    -0.317238687718     0.001443145093    12.000000000000
         H            3.529388456158    -0.015843687718     0.001437145093     1.007825032230
         H            1.068907456158     2.377622312282    -0.882461854907     1.007825032230
         H            1.068952456158     2.377608312282     0.885397145093     1.007825032230
         H            2.616948456158     2.221026312282     0.001427145093     1.007825032230
         H            2.471298656158    -2.581715087718    -0.198555854907     1.007825032230
         H           -1.688566543842    -1.597578687718     0.001448145093     1.007825032230
         H           -3.917944543842    -0.718269687718     0.892251145093     1.007825032230
         H           -3.917938543842    -0.718272687718    -0.889366854907     1.007825032230
         H           -3.512034543842     0.769302312282     0.001440145093     1.007825032230

  Basis Set: AUG-CC-PVTZ
    Blend: AUG-CC-PVTZ
  Basis Set: (AUG-CC-PVTZ AUX)
    Blend: AUG-CC-PVTZ-JKFIT
	 Reference Energy          =    -470.8327577311593473 [Eh]
	 Singles Energy            =      -0.0000000000000000 [Eh]
	 Same-Spin Energy          =      -0.4994543201766267 [Eh]
	 Opposite-Spin Energy      =      -1.5373585486572992 [Eh]
	 Correlation Energy        =      -2.0368128688339260 [Eh]
	 Total Energy              =    -472.8695705999932670 [Eh]

	 ================> DF-SCS-MP2 Energies <==================
	-----------------------------------------------------------
	 SCS Same-Spin Scale       =       0.3333333333333333 [-]
	 SCS Opposite-Spin Scale   =       1.2000000000000000 [-]
	 SCS Same-Spin Energy      =      -0.1664847733922089 [Eh]
	 SCS Opposite-Spin Energy  =      -1.8448302583887588 [Eh]
	 SCS Correlation Energy    =      -2.0113150317809678 [Eh]
	 SCS Total Energy          =    -472.8440727629403000 [Eh]
	-----------------------------------------------------------

  Dipole Moment: [D]
     X:     1.3714      Y:     0.0472      Z:    -0.1432     Total:     1.3797

*** Psi4 exiting successfully. Buy a developer a beer!
