                               Psi4 1.3.2 release

  ==> Input File <==

--------------------------------------------------------------------------
#psi4
#
memory 32 gb

molecule  {
0 1
  O       -1.2482290     1.5306510     0.0000030
  N        1.4640540     0.4968240    -0.0000070
  N        0.6053200    -1.5732460     0.0000100
  N       -1.9984820    -0.6503890    -0.0000010
  C        0.3259400    -0.2627350     0.0000100
  C        2.5213300    -0.3786110    -0.0000100
  C        1.5711040     1.9546380     0.0000020
  C       -1.0383320     0.3066720     0.0000020
  C        1.9690460    -1.6456460     0.0000000
  C       -3.4103270    -0.3314980    -0.0000060
  H        3.5447250    -0.0301018     0.2999880
  H        1.0842430     2.3633630    -0.8839110
  H        1.0842880     2.3633490     0.8839480
  H        2.6322840     2.2067670    -0.0000220
  H        2.4866360    -2.5959740    -0.0000050
  H       -1.6732310    -1.6118380    -0.0000010
  H       -3.9026090    -0.7325290     0.8908020
  H       -3.9026030    -0.7325320    -0.8908160
  H       -3.4966990     0.7550430    -0.0000090
units angstrom
no_reorient  #important for SAPT in psi4, default
symmetry c1  #important for SAPT in psi4, default
}

set PROPERTIES_ORIGIN ["COM"]
properties('MP2/aug-cc-pvtz', properties = ['dipole'])
--------------------------------------------------------------------------

    Molecular point group: c1
  Charge       = 0
  Multiplicity = 1
  Basis Set: AUG-CC-PVTZ
    Blend: AUG-CC-PVTZ
  Basis Set: (AUG-CC-PVTZ AUX)
    Blend: AUG-CC-PVTZ-JKFIT

    Orbital Energies [Eh]
    ---------------------

    Doubly Occupied:

       1A    -20.522859     2A    -15.637847     3A    -15.585403
       4A    -15.566014     5A    -11.362729     6A    -11.306102
       7A    -11.275001     8A    -11.274577     9A    -11.258698
      10A    -11.256627    11A     -1.382199    12A     -1.346790
      13A     -1.235134    14A     -1.191098    15A     -1.035435
      16A     -0.979397    17A     -0.950309    18A     -0.841054
      19A     -0.811463    20A     -0.772878    21A     -0.734215
      22A     -0.660338    23A     -0.652412    24A     -0.644148
      25A     -0.619576    26A     -0.603948    27A     -0.593379
      28A     -0.582761    29A     -0.563717    30A     -0.559315
      31A     -0.546041    32A     -0.529742    33A     -0.458123
      34A     -0.434337    35A     -0.399397    36A     -0.389242
      37A     -0.323507

  @DF-RHF Final Energy:  -470.82982829648142

   => Energetics <=

    Nuclear Repulsion Energy =            526.9733921471171243
    One-Electron Energy =               -1685.8348171299824116
    Two-Electron Energy =                 688.0315966863837502
    Total Energy =                       -470.8298282964814234
  Basis Set: (AUG-CC-PVTZ AUX)
    Blend: AUG-CC-PVTZ-RI
    Molecular point group: c1

    Geometry (in Angstrom), charge = 0, multiplicity = 1:

       Center              X                  Y                   Z               Mass
    ------------   -----------------  -----------------  -----------------  -----------------
         O           -1.263564564133     1.544910300688    -0.002171181194    15.994914619570
         N            1.448718435867     0.511083300688    -0.002181181194    14.003074004430
         N            0.589984435867    -1.558986699312    -0.002164181194    14.003074004430
         N           -2.013817564133    -0.636129699312    -0.002175181194    14.003074004430
         C            0.310604435867    -0.248475699312    -0.002164181194    12.000000000000
         C            2.505994435867    -0.364351699312    -0.002184181194    12.000000000000
         C            1.555768435867     1.968897300688    -0.002172181194    12.000000000000
         C           -1.053667564133     0.320931300688    -0.002172181194    12.000000000000
         C            1.953710435867    -1.631386699312    -0.002174181194    12.000000000000
         C           -3.425662564133    -0.317238699312    -0.002180181194    12.000000000000
         H            3.529389435867    -0.015842499312     0.297813818806     1.007825032230
         H            1.068907435867     2.377622300688    -0.886085181194     1.007825032230
         H            1.068952435867     2.377608300688     0.881773818806     1.007825032230
         H            2.616948435867     2.221026300688    -0.002196181194     1.007825032230
         H            2.471300435867    -2.581714699312    -0.002179181194     1.007825032230
         H           -1.688566564133    -1.597578699312    -0.002175181194     1.007825032230
         H           -3.917944564133    -0.718269699312     0.888627818806     1.007825032230
         H           -3.917938564133    -0.718272699312    -0.892990181194     1.007825032230
         H           -3.512034564133     0.769302300688    -0.002183181194     1.007825032230

  Basis Set: AUG-CC-PVTZ
    Blend: AUG-CC-PVTZ
  Basis Set: (AUG-CC-PVTZ AUX)
    Blend: AUG-CC-PVTZ-JKFIT
	 Reference Energy          =    -470.8298282964814234 [Eh]
	 Singles Energy            =      -0.0000000000000000 [Eh]
	 Same-Spin Energy          =      -0.4996593508177974 [Eh]
	 Opposite-Spin Energy      =      -1.5378543132606075 [Eh]
	 Correlation Energy        =      -2.0375136640784048 [Eh]
	 Total Energy              =    -472.8673419605598269 [Eh]

	 ================> DF-SCS-MP2 Energies <==================
	-----------------------------------------------------------
	 SCS Same-Spin Scale       =       0.3333333333333333 [-]
	 SCS Opposite-Spin Scale   =       1.2000000000000000 [-]
	 SCS Same-Spin Energy      =      -0.1665531169392658 [Eh]
	 SCS Opposite-Spin Energy  =      -1.8454251759127289 [Eh]
	 SCS Correlation Energy    =      -2.0119782928519947 [Eh]
	 SCS Total Energy          =    -472.8418065893334301 [Eh]
	-----------------------------------------------------------

  Dipole Moment: [D]
     X:     1.3071      Y:    -0.0167      Z:     0.2496     Total:     1.3308

*** Psi4 exiting successfully. Buy a developer a beer!
