                               Psi4 1.3.2 release

  ==> Input File <==

--------------------------------------------------------------------------
#psi4
#
memory 32 gb

molecule  {
0 1
  O       -1.2482290     1.5306510     0.0000030
  N        1.4640540     0.4968240    -0.0000070
  N        0.6053200    -1.5732460     0.0000100
  N       -1.9984820    -0.6503890    -0.0000010
  C        0.3259400    -0.2627350     0.0000100
  C        2.5213300    -0.3786110    -0.0000100
  C        1.5711040     1.9546380     0.0000020
  C       -1.0383320     0.3066720     0.0000020
  C        1.9690460    -1.6456460     0.0000000
  C       -3.4103270    -0.3314980    -0.0000060
  H        3.5447240    -0.0301030    -0.0000120
  H        1.0842430     2.3633630    -0.8839110
  H        1.0842880     2.3633490     0.8839480
  H        2.6322840     2.2067670    -0.0000220
  H        2.4866360    -2.5959740    -0.0000050
  H       -1.6732310    -1.6118380    -0.0000010
  H       -3.9026090    -0.7325290     0.8908020
  H       -3.9026030    -0.7325320    -0.8908160
  H       -3.4966990     0.7550430    -0.0000090
units angstrom
no_reorient  #important for SAPT in psi4, default
symmetry c1  #important for SAPT in psi4, default
}

set PROPERTIES_ORIGIN ["COM"]
properties('MP2/aug-cc-pvtz', properties = ['dipole'])
--------------------------------------------------------------------------

    Molecular point group: c1
  Charge       = 0
  Multiplicity = 1
  Basis Set: AUG-CC-PVTZ
    Blend: AUG-CC-PVTZ
  Basis Set: (AUG-CC-PVTZ AUX)
    Blend: AUG-CC-PVTZ-JKFIT

    Orbital Energies [Eh]
    ---------------------

    Doubly Occupied:

       1A    -20.522301     2A    -15.637837     3A    -15.584815
       4A    -15.565484     5A    -11.362181     6A    -11.304886
       7A    -11.274908     8A    -11.272549     9A    -11.258319
      10A    -11.255361    11A     -1.381694    12A     -1.346411
      13A     -1.234619    14A     -1.190711    15A     -1.035855
      16A     -0.979411    17A     -0.950495    18A     -0.840869
      19A     -0.814531    20A     -0.772935    21A     -0.734683
      22A     -0.659569    23A     -0.656288    24A     -0.645767
      25A     -0.619151    26A     -0.605200    27A     -0.595598
      28A     -0.583526    29A     -0.563542    30A     -0.560172
      31A     -0.545688    32A     -0.529978    33A     -0.457984
      34A     -0.433842    35A     -0.399193    36A     -0.388853
      37A     -0.323134

  @DF-RHF Final Energy:  -470.83526085688339

   => Energetics <=

    Nuclear Repulsion Energy =            527.1327182004188217
    One-Electron Energy =               -1686.1592829236883517
    Two-Electron Energy =                 688.1913038663860789
    Total Energy =                       -470.8352608568834512
  Basis Set: (AUG-CC-PVTZ AUX)
    Blend: AUG-CC-PVTZ-RI
    Molecular point group: c1

    Geometry (in Angstrom), charge = 0, multiplicity = 1:

       Center              X                  Y                   Z               Mass
    ------------   -----------------  -----------------  -----------------  -----------------
         O           -1.263564556886     1.544910309384     0.000002814578    15.994914619570
         N            1.448718443114     0.511083309384    -0.000007185422    14.003074004430
         N            0.589984443114    -1.558986690616     0.000009814578    14.003074004430
         N           -2.013817556886    -0.636129690616    -0.000001185422    14.003074004430
         C            0.310604443114    -0.248475690616     0.000009814578    12.000000000000
         C            2.505994443114    -0.364351690616    -0.000010185422    12.000000000000
         C            1.555768443114     1.968897309384     0.000001814578    12.000000000000
         C           -1.053667556886     0.320931309384     0.000001814578    12.000000000000
         C            1.953710443114    -1.631386690616    -0.000000185422    12.000000000000
         C           -3.425662556886    -0.317238690616    -0.000006185422    12.000000000000
         H            3.529388443114    -0.015843690616    -0.000012185422     1.007825032230
         H            1.068907443114     2.377622309384    -0.883911185422     1.007825032230
         H            1.068952443114     2.377608309384     0.883947814578     1.007825032230
         H            2.616948443114     2.221026309384    -0.000022185422     1.007825032230
         H            2.471300443114    -2.581714690616    -0.000005185422     1.007825032230
         H           -1.688566556886    -1.597578690616    -0.000001185422     1.007825032230
         H           -3.917944556886    -0.718269690616     0.890801814578     1.007825032230
         H           -3.917938556886    -0.718272690616    -0.890816185422     1.007825032230
         H           -3.512034556886     0.769302309384    -0.000009185422     1.007825032230

  Basis Set: AUG-CC-PVTZ
    Blend: AUG-CC-PVTZ
  Basis Set: (AUG-CC-PVTZ AUX)
    Blend: AUG-CC-PVTZ-JKFIT
	 Reference Energy          =    -470.8352608568833944 [Eh]
	 Singles Energy            =      -0.0000000000000000 [Eh]
	 Same-Spin Energy          =      -0.4993253628442757 [Eh]
	 Opposite-Spin Energy      =      -1.5370784696062487 [Eh]
	 Correlation Energy        =      -2.0364038324505245 [Eh]
	 Total Energy              =    -472.8716646893338975 [Eh]

	 ================> DF-SCS-MP2 Energies <==================
	-----------------------------------------------------------
	 SCS Same-Spin Scale       =       0.3333333333333333 [-]
	 SCS Opposite-Spin Scale   =       1.2000000000000000 [-]
	 SCS Same-Spin Energy      =      -0.1664417876147586 [Eh]
	 SCS Opposite-Spin Energy  =      -1.8444941635274983 [Eh]
	 SCS Correlation Energy    =      -2.0109359511422569 [Eh]
	 SCS Total Energy          =    -472.8461968080256383 [Eh]
	-----------------------------------------------------------

  Dipole Moment: [D]
     X:     1.3948      Y:     0.0143      Z:    -0.0000     Total:     1.3949

*** Psi4 exiting successfully. Buy a developer a beer!
