                               Psi4 1.3.2 release

  ==> Input File <==

--------------------------------------------------------------------------
#psi4
#
memory 32 gb

molecule  {
0 1
  O       -1.2482290     1.5306510     0.0000030
  N        1.4640540     0.4968240    -0.0000070
  N        0.6053200    -1.5732460     0.0000100
  N       -1.9984820    -0.6503890    -0.0000010
  C        0.3259400    -0.2627350     0.0000100
  C        2.5213300    -0.3786110    -0.0000100
  C        1.5711040     1.9546380     0.0000020
  C       -1.0383325     0.3066710    -0.1499980
  C        1.9690460    -1.6456460     0.0000000
  C       -3.4103270    -0.3314980    -0.0000060
  H        3.5447240    -0.0301030    -0.0000120
  H        1.0842430     2.3633630    -0.8839110
  H        1.0842880     2.3633490     0.8839480
  H        2.6322840     2.2067670    -0.0000220
  H        2.4866360    -2.5959740    -0.0000050
  H       -1.6732310    -1.6118380    -0.0000010
  H       -3.9026090    -0.7325290     0.8908020
  H       -3.9026030    -0.7325320    -0.8908160
  H       -3.4966990     0.7550430    -0.0000090
units angstrom
no_reorient  #important for SAPT in psi4, default
symmetry c1  #important for SAPT in psi4, default
}

set PROPERTIES_ORIGIN ["COM"]
properties('MP2/aug-cc-pvtz', properties = ['dipole'])
--------------------------------------------------------------------------

    Molecular point group: c1
  Charge       = 0
  Multiplicity = 1
  Basis Set: AUG-CC-PVTZ
    Blend: AUG-CC-PVTZ
  Basis Set: (AUG-CC-PVTZ AUX)
    Blend: AUG-CC-PVTZ-JKFIT

    Orbital Energies [Eh]
    ---------------------

    Doubly Occupied:

       1A    -20.523950     2A    -15.637500     3A    -15.585669
       4A    -15.565137     5A    -11.365362     6A    -11.306066
       7A    -11.274803     8A    -11.272413     9A    -11.258107
      10A    -11.255301    11A     -1.378489    12A     -1.345277
      13A     -1.232044    14A     -1.190407    15A     -1.034837
      16A     -0.978975    17A     -0.949638    18A     -0.839771
      19A     -0.814314    20A     -0.771362    21A     -0.733918
      22A     -0.660331    23A     -0.654726    24A     -0.644032
      25A     -0.618448    26A     -0.604812    27A     -0.595232
      28A     -0.582183    29A     -0.563380    30A     -0.559400
      31A     -0.545189    32A     -0.528114    33A     -0.457692
      34A     -0.433166    35A     -0.398613    36A     -0.387842
      37A     -0.322537

  @DF-RHF Final Energy:  -470.82444305223584

   => Energetics <=

    Nuclear Repulsion Energy =            526.7458457773323062
    One-Electron Energy =               -1685.4025087430386520
    Two-Electron Energy =                 687.8322199134705670
    Total Energy =                       -470.8244430522357789
  Basis Set: (AUG-CC-PVTZ AUX)
    Blend: AUG-CC-PVTZ-RI
    Molecular point group: c1

    Geometry (in Angstrom), charge = 0, multiplicity = 1:

       Center              X                  Y                   Z               Mass
    ------------   -----------------  -----------------  -----------------  -----------------
         O           -1.263564513744     1.544910395668     0.012945512187    15.994914619570
         N            1.448718486256     0.511083395668     0.012935512187    14.003074004430
         N            0.589984486256    -1.558986604332     0.012952512187    14.003074004430
         N           -2.013817513744    -0.636129604332     0.012941512187    14.003074004430
         C            0.310604486256    -0.248475604332     0.012952512187    12.000000000000
         C            2.505994486256    -0.364351604332     0.012932512187    12.000000000000
         C            1.555768486256     1.968897395668     0.012944512187    12.000000000000
         C           -1.053668013744     0.320930395668    -0.137055487813    12.000000000000
         C            1.953710486256    -1.631386604332     0.012942512187    12.000000000000
         C           -3.425662513744    -0.317238604332     0.012936512187    12.000000000000
         H            3.529388486256    -0.015843604332     0.012930512187     1.007825032230
         H            1.068907486256     2.377622395668    -0.870968487813     1.007825032230
         H            1.068952486256     2.377608395668     0.896890512187     1.007825032230
         H            2.616948486256     2.221026395668     0.012920512187     1.007825032230
         H            2.471300486256    -2.581714604332     0.012937512187     1.007825032230
         H           -1.688566513744    -1.597578604332     0.012941512187     1.007825032230
         H           -3.917944513744    -0.718269604332     0.903744512187     1.007825032230
         H           -3.917938513744    -0.718272604332    -0.877873487813     1.007825032230
         H           -3.512034513744     0.769302395668     0.012933512187     1.007825032230

  Basis Set: AUG-CC-PVTZ
    Blend: AUG-CC-PVTZ
  Basis Set: (AUG-CC-PVTZ AUX)
    Blend: AUG-CC-PVTZ-JKFIT
	 Reference Energy          =    -470.8244430522358357 [Eh]
	 Singles Energy            =      -0.0000000000000000 [Eh]
	 Same-Spin Energy          =      -0.4999927178625559 [Eh]
	 Opposite-Spin Energy      =      -1.5386793894385544 [Eh]
	 Correlation Energy        =      -2.0386721073011103 [Eh]
	 Total Energy              =    -472.8631151595369602 [Eh]

	 ================> DF-SCS-MP2 Energies <==================
	-----------------------------------------------------------
	 SCS Same-Spin Scale       =       0.3333333333333333 [-]
	 SCS Opposite-Spin Scale   =       1.2000000000000000 [-]
	 SCS Same-Spin Energy      =      -0.1666642392875186 [Eh]
	 SCS Opposite-Spin Energy  =      -1.8464152673262653 [Eh]
	 SCS Correlation Energy    =      -2.0130795066137841 [Eh]
	 SCS Total Energy          =    -472.8375225588496278 [Eh]
	-----------------------------------------------------------

  Dipole Moment: [D]
     X:     1.3768      Y:     0.0252      Z:    -0.1331     Total:     1.3834

*** Psi4 exiting successfully. Buy a developer a beer!
