                               Psi4 1.3.2 release

  ==> Input File <==

--------------------------------------------------------------------------
#psi4
#
memory 32 gb

molecule  {
0 1
  O       -1.2482290     1.5306510     0.0000030
  N        1.4640540     0.4968240    -0.0000070
  N        0.6053200    -1.5732460     0.0000100
  N       -1.9984820    -0.6503890    -0.0000010
  C        0.3259400    -0.2627350     0.0000100
  C        2.5213300    -0.3786110    -0.0000100
  C        1.5711040     1.9546380     0.0000020
  C       -1.0383320     0.3066720     0.0000020
  C        1.9690460    -1.6456460     0.0000000
  C       -3.4103270    -0.3314980    -0.0000060
  H        3.5447242    -0.0301028     0.0499880
  H        1.0842430     2.3633630    -0.8839110
  H        1.0842880     2.3633490     0.8839480
  H        2.6322840     2.2067670    -0.0000220
  H        2.4866360    -2.5959740    -0.0000050
  H       -1.6732310    -1.6118380    -0.0000010
  H       -3.9026090    -0.7325290     0.8908020
  H       -3.9026030    -0.7325320    -0.8908160
  H       -3.4966990     0.7550430    -0.0000090
units angstrom
no_reorient  #important for SAPT in psi4, default
symmetry c1  #important for SAPT in psi4, default
}

set PROPERTIES_ORIGIN ["COM"]
properties('MP2/aug-cc-pvtz', properties = ['dipole'])
--------------------------------------------------------------------------

    Molecular point group: c1
  Charge       = 0
  Multiplicity = 1
  Basis Set: AUG-CC-PVTZ
    Blend: AUG-CC-PVTZ
  Basis Set: (AUG-CC-PVTZ AUX)
    Blend: AUG-CC-PVTZ-JKFIT

    Orbital Energies [Eh]
    ---------------------

    Doubly Occupied:

       1A    -20.522317     2A    -15.637836     3A    -15.584831
       4A    -15.565499     5A    -11.362196     6A    -11.304920
       7A    -11.274898     8A    -11.272618     9A    -11.258330
      10A    -11.255397    11A     -1.381708    12A     -1.346422
      13A     -1.234633    14A     -1.190721    15A     -1.035841
      16A     -0.979410    17A     -0.950489    18A     -0.840872
      19A     -0.814435    20A     -0.772933    21A     -0.734668
      22A     -0.659638    23A     -0.656099    24A     -0.645739
      25A     -0.619163    26A     -0.605158    27A     -0.595542
      28A     -0.583514    29A     -0.563548    30A     -0.560150
      31A     -0.545699    32A     -0.529973    33A     -0.457989
      34A     -0.433856    35A     -0.399199    36A     -0.388864
      37A     -0.323145

  @DF-RHF Final Energy:  -470.83513065594951

   => Energetics <=

    Nuclear Repulsion Energy =            527.1281116221446155
    One-Electron Energy =               -1686.1499876120010413
    Two-Electron Energy =                 688.1867453339068561
    Total Energy =                       -470.8351306559495697
  Basis Set: (AUG-CC-PVTZ AUX)
    Blend: AUG-CC-PVTZ-RI
    Molecular point group: c1

    Geometry (in Angstrom), charge = 0, multiplicity = 1:

       Center              X                  Y                   Z               Mass
    ------------   -----------------  -----------------  -----------------  -----------------
         O           -1.263564558336     1.544910307934    -0.000359518050    15.994914619570
         N            1.448718441664     0.511083307934    -0.000369518050    14.003074004430
         N            0.589984441664    -1.558986692066    -0.000352518050    14.003074004430
         N           -2.013817558336    -0.636129692066    -0.000363518050    14.003074004430
         C            0.310604441664    -0.248475692066    -0.000352518050    12.000000000000
         C            2.505994441664    -0.364351692066    -0.000372518050    12.000000000000
         C            1.555768441664     1.968897307934    -0.000360518050    12.000000000000
         C           -1.053667558336     0.320931307934    -0.000360518050    12.000000000000
         C            1.953710441664    -1.631386692066    -0.000362518050    12.000000000000
         C           -3.425662558336    -0.317238692066    -0.000368518050    12.000000000000
         H            3.529388641664    -0.015843492066     0.049625481950     1.007825032230
         H            1.068907441664     2.377622307934    -0.884273518050     1.007825032230
         H            1.068952441664     2.377608307934     0.883585481950     1.007825032230
         H            2.616948441664     2.221026307934    -0.000384518050     1.007825032230
         H            2.471300441664    -2.581714692066    -0.000367518050     1.007825032230
         H           -1.688566558336    -1.597578692066    -0.000363518050     1.007825032230
         H           -3.917944558336    -0.718269692066     0.890439481950     1.007825032230
         H           -3.917938558336    -0.718272692066    -0.891178518050     1.007825032230
         H           -3.512034558336     0.769302307934    -0.000371518050     1.007825032230

  Basis Set: AUG-CC-PVTZ
    Blend: AUG-CC-PVTZ
  Basis Set: (AUG-CC-PVTZ AUX)
    Blend: AUG-CC-PVTZ-JKFIT
	 Reference Energy          =    -470.8351306559495129 [Eh]
	 Singles Energy            =      -0.0000000000000000 [Eh]
	 Same-Spin Energy          =      -0.4993348607196577 [Eh]
	 Opposite-Spin Energy      =      -1.5370973602333893 [Eh]
	 Correlation Energy        =      -2.0364322209530470 [Eh]
	 Total Energy              =    -472.8715628769025443 [Eh]

	 ================> DF-SCS-MP2 Energies <==================
	-----------------------------------------------------------
	 SCS Same-Spin Scale       =       0.3333333333333333 [-]
	 SCS Opposite-Spin Scale   =       1.2000000000000000 [-]
	 SCS Same-Spin Energy      =      -0.1664449535732192 [Eh]
	 SCS Opposite-Spin Energy  =      -1.8445168322800671 [Eh]
	 SCS Correlation Energy    =      -2.0109617858532864 [Eh]
	 SCS Total Energy          =    -472.8460924418027957 [Eh]
	-----------------------------------------------------------

  Dipole Moment: [D]
     X:     1.3923      Y:     0.0134      Z:     0.0427     Total:     1.3930

*** Psi4 exiting successfully. Buy a developer a beer!
