                               Psi4 1.3.2 release

  ==> Input File <==

--------------------------------------------------------------------------
#psi4
#
memory 32 gb

molecule  {
0 1
  O       -1.2482290     1.5306510     0.0000030
  N        1.4640540     0.4968240    -0.0000070
  N        0.6053200    -1.5732460     0.0000100
  N       -1.9984820    -0.6503890    -0.0000010
  C        0.3259388    -0.2627351     0.2500100
  C        2.5213300    -0.3786110    -0.0000100
  C        1.5711040     1.9546380     0.0000020
  C       -1.0383320     0.3066720     0.0000020
  C        1.9690460    -1.6456460     0.0000000
  C       -3.4103270    -0.3314980    -0.0000060
  H        3.5447240    -0.0301030    -0.0000120
  H        1.0842430     2.3633630    -0.8839110
  H        1.0842880     2.3633490     0.8839480
  H        2.6322840     2.2067670    -0.0000220
  H        2.4866360    -2.5959740    -0.0000050
  H       -1.6732310    -1.6118380    -0.0000010
  H       -3.9026090    -0.7325290     0.8908020
  H       -3.9026030    -0.7325320    -0.8908160
  H       -3.4966990     0.7550430    -0.0000090
units angstrom
no_reorient  #important for SAPT in psi4, default
symmetry c1  #important for SAPT in psi4, default
}

set PROPERTIES_ORIGIN ["COM"]
properties('MP2/aug-cc-pvtz', properties = ['dipole'])
--------------------------------------------------------------------------

    Molecular point group: c1
  Charge       = 0
  Multiplicity = 1
  Basis Set: AUG-CC-PVTZ
    Blend: AUG-CC-PVTZ
  Basis Set: (AUG-CC-PVTZ AUX)
    Blend: AUG-CC-PVTZ-JKFIT

    Orbital Energies [Eh]
    ---------------------

    Doubly Occupied:

       1A    -20.520526     2A    -15.639660     3A    -15.582910
       4A    -15.571538     5A    -11.361523     6A    -11.306554
       7A    -11.276864     8A    -11.273983     9A    -11.257349
      10A    -11.257182    11A     -1.378465    12A     -1.341805
      13A     -1.232296    14A     -1.187320    15A     -1.033254
      16A     -0.977545    17A     -0.947858    18A     -0.836038
      19A     -0.808681    20A     -0.771967    21A     -0.732246
      22A     -0.661845    23A     -0.651302    24A     -0.643942
      25A     -0.618843    26A     -0.605319    27A     -0.593253
      28A     -0.579482    29A     -0.562871    30A     -0.557506
      31A     -0.544548    32A     -0.526234    33A     -0.458523
      34A     -0.431680    35A     -0.395623    36A     -0.386490
      37A     -0.324383

  @DF-RHF Final Energy:  -470.81331526290370

   => Energetics <=

    Nuclear Repulsion Energy =            526.1082151212519875
    One-Electron Energy =               -1684.1682390301357373
    Two-Electron Energy =                 687.2467086459799930
    Total Energy =                       -470.8133152629037568
  Basis Set: (AUG-CC-PVTZ AUX)
    Blend: AUG-CC-PVTZ-RI
    Molecular point group: c1

    Geometry (in Angstrom), charge = 0, multiplicity = 1:

       Center              X                  Y                   Z               Mass
    ------------   -----------------  -----------------  -----------------  -----------------
         O           -1.263564453345     1.544910318012    -0.021568348102    15.994914619570
         N            1.448718546655     0.511083318012    -0.021578348102    14.003074004430
         N            0.589984546655    -1.558986681988    -0.021561348102    14.003074004430
         N           -2.013817453345    -0.636129681988    -0.021572348102    14.003074004430
         C            0.310603346655    -0.248475781988     0.228438651898    12.000000000000
         C            2.505994546655    -0.364351681988    -0.021581348102    12.000000000000
         C            1.555768546655     1.968897318012    -0.021569348102    12.000000000000
         C           -1.053667453345     0.320931318012    -0.021569348102    12.000000000000
         C            1.953710546655    -1.631386681988    -0.021571348102    12.000000000000
         C           -3.425662453345    -0.317238681988    -0.021577348102    12.000000000000
         H            3.529388546655    -0.015843681988    -0.021583348102     1.007825032230
         H            1.068907546655     2.377622318012    -0.905482348102     1.007825032230
         H            1.068952546655     2.377608318012     0.862376651898     1.007825032230
         H            2.616948546655     2.221026318012    -0.021593348102     1.007825032230
         H            2.471300546655    -2.581714681988    -0.021576348102     1.007825032230
         H           -1.688566453345    -1.597578681988    -0.021572348102     1.007825032230
         H           -3.917944453345    -0.718269681988     0.869230651898     1.007825032230
         H           -3.917938453345    -0.718272681988    -0.912387348102     1.007825032230
         H           -3.512034453345     0.769302318012    -0.021580348102     1.007825032230

  Basis Set: AUG-CC-PVTZ
    Blend: AUG-CC-PVTZ
  Basis Set: (AUG-CC-PVTZ AUX)
    Blend: AUG-CC-PVTZ-JKFIT
	 Reference Energy          =    -470.8133152629036999 [Eh]
	 Singles Energy            =      -0.0000000000000000 [Eh]
	 Same-Spin Energy          =      -0.5008551584845078 [Eh]
	 Opposite-Spin Energy      =      -1.5404305806526453 [Eh]
	 Correlation Energy        =      -2.0412857391371531 [Eh]
	 Total Energy              =    -472.8546010020408517 [Eh]

	 ================> DF-SCS-MP2 Energies <==================
	-----------------------------------------------------------
	 SCS Same-Spin Scale       =       0.3333333333333333 [-]
	 SCS Opposite-Spin Scale   =       1.2000000000000000 [-]
	 SCS Same-Spin Energy      =      -0.1669517194948359 [Eh]
	 SCS Opposite-Spin Energy  =      -1.8485166967831743 [Eh]
	 SCS Correlation Energy    =      -2.0154684162780101 [Eh]
	 SCS Total Energy          =    -472.8287836791816972 [Eh]
	-----------------------------------------------------------

  Dipole Moment: [D]
     X:     1.5284      Y:    -0.0443      Z:     0.0696     Total:     1.5306

*** Psi4 exiting successfully. Buy a developer a beer!
