                               Psi4 1.3.2 release

  ==> Input File <==

--------------------------------------------------------------------------
#psi4
#
memory 32 gb

molecule  {
0 1
  O       -1.2482290     1.5306510     0.0000030
  N        1.4640540     0.4968240    -0.0000070
  N        0.6053200    -1.5732460     0.0000100
  N       -1.9984820    -0.6503890    -0.0000010
  C        0.3259400    -0.2627350     0.0000100
  C        2.5213300    -0.3786110    -0.0000100
  C        1.5711040     1.9546380     0.0000020
  C       -1.0383328     0.3066703    -0.2499980
  C        1.9690460    -1.6456460     0.0000000
  C       -3.4103270    -0.3314980    -0.0000060
  H        3.5447240    -0.0301030    -0.0000120
  H        1.0842430     2.3633630    -0.8839110
  H        1.0842880     2.3633490     0.8839480
  H        2.6322840     2.2067670    -0.0000220
  H        2.4866360    -2.5959740    -0.0000050
  H       -1.6732310    -1.6118380    -0.0000010
  H       -3.9026090    -0.7325290     0.8908020
  H       -3.9026030    -0.7325320    -0.8908160
  H       -3.4966990     0.7550430    -0.0000090
units angstrom
no_reorient  #important for SAPT in psi4, default
symmetry c1  #important for SAPT in psi4, default
}

set PROPERTIES_ORIGIN ["COM"]
properties('MP2/aug-cc-pvtz', properties = ['dipole'])
--------------------------------------------------------------------------

    Molecular point group: c1
  Charge       = 0
  Multiplicity = 1
  Basis Set: AUG-CC-PVTZ
    Blend: AUG-CC-PVTZ
  Basis Set: (AUG-CC-PVTZ AUX)
    Blend: AUG-CC-PVTZ-JKFIT

    Orbital Energies [Eh]
    ---------------------

    Doubly Occupied:

       1A    -20.526900     2A    -15.636919     3A    -15.587128
       4A    -15.564542     5A    -11.370656     6A    -11.308095
       7A    -11.274626     8A    -11.272176     9A    -11.257746
      10A    -11.255195    11A     -1.373370    12A     -1.342905
      13A     -1.227731    14A     -1.189850    15A     -1.033112
      16A     -0.978218    17A     -0.948127    18A     -0.837955
      19A     -0.813932    20A     -0.768737    21A     -0.732466
      22A     -0.660937    23A     -0.652823    24A     -0.640973
      25A     -0.617310    26A     -0.604083    27A     -0.594638
      28A     -0.579814    29A     -0.563085    30A     -0.557961
      31A     -0.544250    32A     -0.524955    33A     -0.457212
      34A     -0.432103    35A     -0.397794    36A     -0.385971
      37A     -0.321521

  @DF-RHF Final Energy:  -470.80513461971640

   => Energetics <=

    Nuclear Repulsion Energy =            526.0734850357592904
    One-Electron Energy =               -1684.0856014461717223
    Two-Electron Energy =                 687.2069817906960907
    Total Energy =                       -470.8051346197164548
  Basis Set: (AUG-CC-PVTZ AUX)
    Blend: AUG-CC-PVTZ-RI
    Molecular point group: c1

    Geometry (in Angstrom), charge = 0, multiplicity = 1:

       Center              X                  Y                   Z               Mass
    ------------   -----------------  -----------------  -----------------  -----------------
         O           -1.263564487859     1.544910456068     0.021573977259    15.994914619570
         N            1.448718512141     0.511083456068     0.021563977259    14.003074004430
         N            0.589984512141    -1.558986543932     0.021580977259    14.003074004430
         N           -2.013817487859    -0.636129543932     0.021569977259    14.003074004430
         C            0.310604512141    -0.248475543932     0.021580977259    12.000000000000
         C            2.505994512141    -0.364351543932     0.021560977259    12.000000000000
         C            1.555768512141     1.968897456068     0.021572977259    12.000000000000
         C           -1.053668287859     0.320929756068    -0.228427022741    12.000000000000
         C            1.953710512141    -1.631386543932     0.021570977259    12.000000000000
         C           -3.425662487859    -0.317238543932     0.021564977259    12.000000000000
         H            3.529388512141    -0.015843543932     0.021558977259     1.007825032230
         H            1.068907512141     2.377622456068    -0.862340022741     1.007825032230
         H            1.068952512141     2.377608456068     0.905518977259     1.007825032230
         H            2.616948512141     2.221026456068     0.021548977259     1.007825032230
         H            2.471300512141    -2.581714543932     0.021565977259     1.007825032230
         H           -1.688566487859    -1.597578543932     0.021569977259     1.007825032230
         H           -3.917944487859    -0.718269543932     0.912372977259     1.007825032230
         H           -3.917938487859    -0.718272543932    -0.869245022741     1.007825032230
         H           -3.512034487859     0.769302456068     0.021561977259     1.007825032230

  Basis Set: AUG-CC-PVTZ
    Blend: AUG-CC-PVTZ
  Basis Set: (AUG-CC-PVTZ AUX)
    Blend: AUG-CC-PVTZ-JKFIT
	 Reference Energy          =    -470.8051346197163980 [Eh]
	 Singles Energy            =      -0.0000000000000000 [Eh]
	 Same-Spin Energy          =      -0.5011701487784156 [Eh]
	 Opposite-Spin Energy      =      -1.5418211854438972 [Eh]
	 Correlation Energy        =      -2.0429913342223127 [Eh]
	 Total Energy              =    -472.8481259539387338 [Eh]

	 ================> DF-SCS-MP2 Energies <==================
	-----------------------------------------------------------
	 SCS Same-Spin Scale       =       0.3333333333333333 [-]
	 SCS Opposite-Spin Scale   =       1.2000000000000000 [-]
	 SCS Same-Spin Energy      =      -0.1670567162594719 [Eh]
	 SCS Opposite-Spin Energy  =      -1.8501854225326766 [Eh]
	 SCS Correlation Energy    =      -2.0172421387921484 [Eh]
	 SCS Total Energy          =    -472.8223767585085398 [Eh]
	-----------------------------------------------------------

  Dipole Moment: [D]
     X:     1.3432      Y:     0.0455      Z:    -0.2097     Total:     1.3603

*** Psi4 exiting successfully. Buy a developer a beer!
