                               Psi4 1.3.2 release

  ==> Input File <==

--------------------------------------------------------------------------
#psi4
#
memory 32 gb

molecule  {
0 1
  O       -1.2482290     1.5306510     0.0000030
  N        1.4640540     0.4968240    -0.0000070
  N        0.6053200    -1.5732460     0.0000100
  N       -1.9984820    -0.6503890    -0.0000010
  C        0.3259398    -0.2627350     0.0500100
  C        2.5213300    -0.3786110    -0.0000100
  C        1.5711040     1.9546380     0.0000020
  C       -1.0383320     0.3066720     0.0000020
  C        1.9690460    -1.6456460     0.0000000
  C       -3.4103270    -0.3314980    -0.0000060
  H        3.5447240    -0.0301030    -0.0000120
  H        1.0842430     2.3633630    -0.8839110
  H        1.0842880     2.3633490     0.8839480
  H        2.6322840     2.2067670    -0.0000220
  H        2.4866360    -2.5959740    -0.0000050
  H       -1.6732310    -1.6118380    -0.0000010
  H       -3.9026090    -0.7325290     0.8908020
  H       -3.9026030    -0.7325320    -0.8908160
  H       -3.4966990     0.7550430    -0.0000090
units angstrom
no_reorient  #important for SAPT in psi4, default
symmetry c1  #important for SAPT in psi4, default
}

set PROPERTIES_ORIGIN ["COM"]
properties('MP2/aug-cc-pvtz', properties = ['dipole'])
--------------------------------------------------------------------------

    Molecular point group: c1
  Charge       = 0
  Multiplicity = 1
  Basis Set: AUG-CC-PVTZ
    Blend: AUG-CC-PVTZ
  Basis Set: (AUG-CC-PVTZ AUX)
    Blend: AUG-CC-PVTZ-JKFIT

    Orbital Energies [Eh]
    ---------------------

    Doubly Occupied:

       1A    -20.522229     2A    -15.637915     3A    -15.584736
       4A    -15.565734     5A    -11.362162     6A    -11.304965
       7A    -11.274869     8A    -11.272714     9A    -11.258273
      10A    -11.255435    11A     -1.381561    12A     -1.346223
      13A     -1.234523    14A     -1.190565    15A     -1.035746
      16A     -0.979334    17A     -0.950386    18A     -0.840662
      19A     -0.814284    20A     -0.772894    21A     -0.734586
      22A     -0.659780    23A     -0.655960    24A     -0.645694
      25A     -0.619145    26A     -0.605203    27A     -0.595499
      28A     -0.583361    29A     -0.563523    30A     -0.560058
      31A     -0.545644    32A     -0.529825    33A     -0.458004
      34A     -0.433767    35A     -0.399035    36A     -0.388761
      37A     -0.323178

  @DF-RHF Final Energy:  -470.83437526921796

   => Energetics <=

    Nuclear Repulsion Energy =            527.0909478363623748
    One-Electron Energy =               -1686.0781772858501881
    Two-Electron Energy =                 688.1528541802698555
    Total Energy =                       -470.8343752692179578
  Basis Set: (AUG-CC-PVTZ AUX)
    Blend: AUG-CC-PVTZ-RI
    Molecular point group: c1

    Geometry (in Angstrom), charge = 0, multiplicity = 1:

       Center              X                  Y                   Z               Mass
    ------------   -----------------  -----------------  -----------------  -----------------
         O           -1.263564539629     1.544910309384    -0.004311417958    15.994914619570
         N            1.448718460371     0.511083309384    -0.004321417958    14.003074004430
         N            0.589984460371    -1.558986690616    -0.004304417958    14.003074004430
         N           -2.013817539629    -0.636129690616    -0.004315417958    14.003074004430
         C            0.310604260371    -0.248475690616     0.045695582042    12.000000000000
         C            2.505994460371    -0.364351690616    -0.004324417958    12.000000000000
         C            1.555768460371     1.968897309384    -0.004312417958    12.000000000000
         C           -1.053667539629     0.320931309384    -0.004312417958    12.000000000000
         C            1.953710460371    -1.631386690616    -0.004314417958    12.000000000000
         C           -3.425662539629    -0.317238690616    -0.004320417958    12.000000000000
         H            3.529388460371    -0.015843690616    -0.004326417958     1.007825032230
         H            1.068907460371     2.377622309384    -0.888225417958     1.007825032230
         H            1.068952460371     2.377608309384     0.879633582042     1.007825032230
         H            2.616948460371     2.221026309384    -0.004336417958     1.007825032230
         H            2.471300460371    -2.581714690616    -0.004319417958     1.007825032230
         H           -1.688566539629    -1.597578690616    -0.004315417958     1.007825032230
         H           -3.917944539629    -0.718269690616     0.886487582042     1.007825032230
         H           -3.917938539629    -0.718272690616    -0.895130417958     1.007825032230
         H           -3.512034539629     0.769302309384    -0.004323417958     1.007825032230

  Basis Set: AUG-CC-PVTZ
    Blend: AUG-CC-PVTZ
  Basis Set: (AUG-CC-PVTZ AUX)
    Blend: AUG-CC-PVTZ-JKFIT
	 Reference Energy          =    -470.8343752692179578 [Eh]
	 Singles Energy            =      -0.0000000000000000 [Eh]
	 Same-Spin Energy          =      -0.4993882056712060 [Eh]
	 Opposite-Spin Energy      =      -1.5371773653775895 [Eh]
	 Correlation Energy        =      -2.0365655710487953 [Eh]
	 Total Energy              =    -472.8709408402667691 [Eh]

	 ================> DF-SCS-MP2 Energies <==================
	-----------------------------------------------------------
	 SCS Same-Spin Scale       =       0.3333333333333333 [-]
	 SCS Opposite-Spin Scale   =       1.2000000000000000 [-]
	 SCS Same-Spin Energy      =      -0.1664627352237353 [Eh]
	 SCS Opposite-Spin Energy  =      -1.8446128384531073 [Eh]
	 SCS Correlation Energy    =      -2.0110755736768429 [Eh]
	 SCS Total Energy          =    -472.8454508428948202 [Eh]
	-----------------------------------------------------------

  Dipole Moment: [D]
     X:     1.4006      Y:     0.0117      Z:     0.0180     Total:     1.4008

*** Psi4 exiting successfully. Buy a developer a beer!
