                               Psi4 1.3.2 release

  ==> Input File <==

--------------------------------------------------------------------------
#psi4
#
memory 32 gb

molecule  {
0 1
  O       -1.2482290     1.5306510     0.0000030
  N        1.4640540     0.4968240    -0.0000070
  N        0.6053200    -1.5732460     0.0000100
  N       -1.9984820    -0.6503890    -0.0000010
  C        0.3259400    -0.2627350     0.0000100
  C        2.5213300    -0.3786110    -0.0000100
  C        1.5711040     1.9546380     0.0000020
  C       -1.0383320     0.3066720     0.0000020
  C        1.9690460    -1.6456460     0.0000000
  C       -3.4103270    -0.3314980    -0.0000060
  H        3.5447243    -0.0301026     0.0999880
  H        1.0842430     2.3633630    -0.8839110
  H        1.0842880     2.3633490     0.8839480
  H        2.6322840     2.2067670    -0.0000220
  H        2.4866360    -2.5959740    -0.0000050
  H       -1.6732310    -1.6118380    -0.0000010
  H       -3.9026090    -0.7325290     0.8908020
  H       -3.9026030    -0.7325320    -0.8908160
  H       -3.4966990     0.7550430    -0.0000090
units angstrom
no_reorient  #important for SAPT in psi4, default
symmetry c1  #important for SAPT in psi4, default
}

set PROPERTIES_ORIGIN ["COM"]
properties('MP2/aug-cc-pvtz', properties = ['dipole'])
--------------------------------------------------------------------------

    Molecular point group: c1
  Charge       = 0
  Multiplicity = 1
  Basis Set: AUG-CC-PVTZ
    Blend: AUG-CC-PVTZ
  Basis Set: (AUG-CC-PVTZ AUX)
    Blend: AUG-CC-PVTZ-JKFIT

    Orbital Energies [Eh]
    ---------------------

    Doubly Occupied:

       1A    -20.522365     2A    -15.637834     3A    -15.584882
       4A    -15.565543     5A    -11.362243     6A    -11.305024
       7A    -11.274869     8A    -11.272827     9A    -11.258362
      10A    -11.255505    11A     -1.381751    12A     -1.346453
      13A     -1.234677    14A     -1.190753    15A     -1.035800
      16A     -0.979408    17A     -0.950469    18A     -0.840882
      19A     -0.814152    20A     -0.772927    21A     -0.734623
      22A     -0.659802    23A     -0.655586    24A     -0.645648
      25A     -0.619200    26A     -0.605033    27A     -0.595373
      28A     -0.583478    29A     -0.563566    30A     -0.560081
      31A     -0.545729    32A     -0.529956    33A     -0.458002
      34A     -0.433898    35A     -0.399215    36A     -0.388897
      37A     -0.323175

  @DF-RHF Final Energy:  -470.83473215903706

   => Energetics <=

    Nuclear Repulsion Energy =            527.1143582236875318
    One-Electron Energy =               -1686.1222046535262962
    Two-Electron Energy =                 688.1731142708016478
    Total Energy =                       -470.8347321590371166
  Basis Set: (AUG-CC-PVTZ AUX)
    Blend: AUG-CC-PVTZ-RI
    Molecular point group: c1

    Geometry (in Angstrom), charge = 0, multiplicity = 1:

       Center              X                  Y                   Z               Mass
    ------------   -----------------  -----------------  -----------------  -----------------
         O           -1.263564559060     1.544910306485    -0.000721850679    15.994914619570
         N            1.448718440940     0.511083306485    -0.000731850679    14.003074004430
         N            0.589984440940    -1.558986693515    -0.000714850679    14.003074004430
         N           -2.013817559060    -0.636129693515    -0.000725850679    14.003074004430
         C            0.310604440940    -0.248475693515    -0.000714850679    12.000000000000
         C            2.505994440940    -0.364351693515    -0.000734850679    12.000000000000
         C            1.555768440940     1.968897306485    -0.000722850679    12.000000000000
         C           -1.053667559060     0.320931306485    -0.000722850679    12.000000000000
         C            1.953710440940    -1.631386693515    -0.000724850679    12.000000000000
         C           -3.425662559060    -0.317238693515    -0.000730850679    12.000000000000
         H            3.529388740940    -0.015843293515     0.099263149321     1.007825032230
         H            1.068907440940     2.377622306485    -0.884635850679     1.007825032230
         H            1.068952440940     2.377608306485     0.883223149321     1.007825032230
         H            2.616948440940     2.221026306485    -0.000746850679     1.007825032230
         H            2.471300440940    -2.581714693515    -0.000729850679     1.007825032230
         H           -1.688566559060    -1.597578693515    -0.000725850679     1.007825032230
         H           -3.917944559060    -0.718269693515     0.890077149321     1.007825032230
         H           -3.917938559060    -0.718272693515    -0.891540850679     1.007825032230
         H           -3.512034559060     0.769302306485    -0.000733850679     1.007825032230

  Basis Set: AUG-CC-PVTZ
    Blend: AUG-CC-PVTZ
  Basis Set: (AUG-CC-PVTZ AUX)
    Blend: AUG-CC-PVTZ-JKFIT
	 Reference Energy          =    -470.8347321590370598 [Eh]
	 Singles Energy            =      -0.0000000000000000 [Eh]
	 Same-Spin Energy          =      -0.4993633274518394 [Eh]
	 Opposite-Spin Energy      =      -1.5371558589765875 [Eh]
	 Correlation Energy        =      -2.0365191864284267 [Eh]
	 Total Energy              =    -472.8712513454655095 [Eh]

	 ================> DF-SCS-MP2 Energies <==================
	-----------------------------------------------------------
	 SCS Same-Spin Scale       =       0.3333333333333333 [-]
	 SCS Opposite-Spin Scale   =       1.2000000000000000 [-]
	 SCS Same-Spin Energy      =      -0.1664544424839465 [Eh]
	 SCS Opposite-Spin Energy  =      -1.8445870307719048 [Eh]
	 SCS Correlation Energy    =      -2.0110414732558510 [Eh]
	 SCS Total Energy          =    -472.8457736322928895 [Eh]
	-----------------------------------------------------------

  Dipole Moment: [D]
     X:     1.3848      Y:     0.0107      Z:     0.0852     Total:     1.3874

*** Psi4 exiting successfully. Buy a developer a beer!
