                               Psi4 1.3.2 release

  ==> Input File <==

--------------------------------------------------------------------------
#psi4
#
memory 32 gb

molecule  {
0 1
  O       -1.2482290     1.5306510     0.0000030
  N        1.4640540     0.4968240    -0.0000070
  N        0.6053200    -1.5732460     0.0000100
  N       -1.9984820    -0.6503890    -0.0000010
  C        0.3259400    -0.2627350     0.0000100
  C        2.5213300    -0.3786110    -0.0000100
  C        1.5711040     1.9546380     0.0000020
  C       -1.0383323     0.3066713    -0.0999980
  C        1.9690460    -1.6456460     0.0000000
  C       -3.4103270    -0.3314980    -0.0000060
  H        3.5447240    -0.0301030    -0.0000120
  H        1.0842430     2.3633630    -0.8839110
  H        1.0842880     2.3633490     0.8839480
  H        2.6322840     2.2067670    -0.0000220
  H        2.4866360    -2.5959740    -0.0000050
  H       -1.6732310    -1.6118380    -0.0000010
  H       -3.9026090    -0.7325290     0.8908020
  H       -3.9026030    -0.7325320    -0.8908160
  H       -3.4966990     0.7550430    -0.0000090
units angstrom
no_reorient  #important for SAPT in psi4, default
symmetry c1  #important for SAPT in psi4, default
}

set PROPERTIES_ORIGIN ["COM"]
properties('MP2/aug-cc-pvtz', properties = ['dipole'])
--------------------------------------------------------------------------

    Molecular point group: c1
  Charge       = 0
  Multiplicity = 1
  Basis Set: AUG-CC-PVTZ
    Blend: AUG-CC-PVTZ
  Basis Set: (AUG-CC-PVTZ AUX)
    Blend: AUG-CC-PVTZ-JKFIT

    Orbital Energies [Eh]
    ---------------------

    Doubly Occupied:

       1A    -20.523033     2A    -15.637686     3A    -15.585197
       4A    -15.565328     5A    -11.363613     6A    -11.305413
       7A    -11.274860     8A    -11.272488     9A    -11.258224
      10A    -11.255334    11A     -1.380241    12A     -1.345923
      13A     -1.233460    14A     -1.190576    15A     -1.035398
      16A     -0.979216    17A     -0.950113    18A     -0.840373
      19A     -0.814434    20A     -0.772228    21A     -0.734347
      22A     -0.659986    23A     -0.655508    24A     -0.644995
      25A     -0.618832    26A     -0.605029    27A     -0.595432
      28A     -0.582929    29A     -0.563470    30A     -0.559831
      31A     -0.545468    32A     -0.529142    33A     -0.457852
      34A     -0.433534    35A     -0.398923    36A     -0.388408
      37A     -0.322866

  @DF-RHF Final Energy:  -470.83045771276682

   => Energetics <=

    Nuclear Repulsion Energy =            526.9599849571816321
    One-Electron Energy =               -1685.8214996029989834
    Two-Electron Energy =                 688.0310569330505359
    Total Energy =                       -470.8304577127668153
  Basis Set: (AUG-CC-PVTZ AUX)
    Blend: AUG-CC-PVTZ-RI
    Molecular point group: c1

    Geometry (in Angstrom), charge = 0, multiplicity = 1:

       Center              X                  Y                   Z               Mass
    ------------   -----------------  -----------------  -----------------  -----------------
         O           -1.263564531001     1.544910369783     0.008631279651    15.994914619570
         N            1.448718468999     0.511083369783     0.008621279651    14.003074004430
         N            0.589984468999    -1.558986630217     0.008638279651    14.003074004430
         N           -2.013817531001    -0.636129630217     0.008627279651    14.003074004430
         C            0.310604468999    -0.248475630217     0.008638279651    12.000000000000
         C            2.505994468999    -0.364351630217     0.008618279651    12.000000000000
         C            1.555768468999     1.968897369783     0.008630279651    12.000000000000
         C           -1.053667831001     0.320930669783    -0.091369720349    12.000000000000
         C            1.953710468999    -1.631386630217     0.008628279651    12.000000000000
         C           -3.425662531001    -0.317238630217     0.008622279651    12.000000000000
         H            3.529388468999    -0.015843630217     0.008616279651     1.007825032230
         H            1.068907468999     2.377622369783    -0.875282720349     1.007825032230
         H            1.068952468999     2.377608369783     0.892576279651     1.007825032230
         H            2.616948468999     2.221026369783     0.008606279651     1.007825032230
         H            2.471300468999    -2.581714630217     0.008623279651     1.007825032230
         H           -1.688566531001    -1.597578630217     0.008627279651     1.007825032230
         H           -3.917944531001    -0.718269630217     0.899430279651     1.007825032230
         H           -3.917938531001    -0.718272630217    -0.882187720349     1.007825032230
         H           -3.512034531001     0.769302369783     0.008619279651     1.007825032230

  Basis Set: AUG-CC-PVTZ
    Blend: AUG-CC-PVTZ
  Basis Set: (AUG-CC-PVTZ AUX)
    Blend: AUG-CC-PVTZ-JKFIT
	 Reference Energy          =    -470.8304577127668153 [Eh]
	 Singles Energy            =      -0.0000000000000000 [Eh]
	 Same-Spin Energy          =      -0.4996228490321198 [Eh]
	 Opposite-Spin Energy      =      -1.5377521440662680 [Eh]
	 Correlation Energy        =      -2.0373749930983878 [Eh]
	 Total Energy              =    -472.8678327058652258 [Eh]

	 ================> DF-SCS-MP2 Energies <==================
	-----------------------------------------------------------
	 SCS Same-Spin Scale       =       0.3333333333333333 [-]
	 SCS Opposite-Spin Scale   =       1.2000000000000000 [-]
	 SCS Same-Spin Energy      =      -0.1665409496773733 [Eh]
	 SCS Opposite-Spin Energy  =      -1.8453025728795216 [Eh]
	 SCS Correlation Energy    =      -2.0118435225568949 [Eh]
	 SCS Total Energy          =    -472.8423012353237027 [Eh]
	-----------------------------------------------------------

  Dipole Moment: [D]
     X:     1.3869      Y:     0.0191      Z:    -0.0903     Total:     1.3900

*** Psi4 exiting successfully. Buy a developer a beer!
