                               Psi4 1.3.2 release

  ==> Input File <==

--------------------------------------------------------------------------
#psi4
#
memory 32 gb

molecule  {
0 1
  O       -1.2482290     1.5306510     0.0000030
  N        1.4640540     0.4968240    -0.0000070
  N        0.6053200    -1.5732460     0.0000100
  N       -1.9984820    -0.6503890    -0.0000010
  C        0.3259391    -0.2627350     0.2000100
  C        2.5213300    -0.3786110    -0.0000100
  C        1.5711040     1.9546380     0.0000020
  C       -1.0383320     0.3066720     0.0000020
  C        1.9690460    -1.6456460     0.0000000
  C       -3.4103270    -0.3314980    -0.0000060
  H        3.5447240    -0.0301030    -0.0000120
  H        1.0842430     2.3633630    -0.8839110
  H        1.0842880     2.3633490     0.8839480
  H        2.6322840     2.2067670    -0.0000220
  H        2.4866360    -2.5959740    -0.0000050
  H       -1.6732310    -1.6118380    -0.0000010
  H       -3.9026090    -0.7325290     0.8908020
  H       -3.9026030    -0.7325320    -0.8908160
  H       -3.4966990     0.7550430    -0.0000090
units angstrom
no_reorient  #important for SAPT in psi4, default
symmetry c1  #important for SAPT in psi4, default
}

set PROPERTIES_ORIGIN ["COM"]
properties('MP2/aug-cc-pvtz', properties = ['dipole'])
--------------------------------------------------------------------------

    Molecular point group: c1
  Charge       = 0
  Multiplicity = 1
  Basis Set: AUG-CC-PVTZ
    Blend: AUG-CC-PVTZ
  Basis Set: (AUG-CC-PVTZ AUX)
    Blend: AUG-CC-PVTZ-JKFIT

    Orbital Energies [Eh]
    ---------------------

    Doubly Occupied:

       1A    -20.521160     2A    -15.639038     3A    -15.583584
       4A    -15.569408     5A    -11.361804     6A    -11.306029
       7A    -11.275270     8A    -11.274309     9A    -11.257591
      10A    -11.256604    11A     -1.379606    12A     -1.343438
      13A     -1.233118    14A     -1.188486    15A     -1.034161
      16A     -0.978203    17A     -0.948787    18A     -0.837699
      19A     -0.810714    20A     -0.772303    21A     -0.733122
      22A     -0.661342    23A     -0.652734    24A     -0.644597
      25A     -0.618991    26A     -0.605268    27A     -0.594067
      28A     -0.580921    29A     -0.563157    30A     -0.558429
      31A     -0.544965    32A     -0.527560    33A     -0.458327
      34A     -0.432522    35A     -0.396821    36A     -0.387350
      37A     -0.323898

  @DF-RHF Final Energy:  -470.82117232530095

   => Energetics <=

    Nuclear Repulsion Energy =            526.4724291751145984
    One-Electron Energy =               -1684.8764342111492169
    Two-Electron Energy =                 687.5828327107335554
    Total Energy =                       -470.8211723253009495
  Basis Set: (AUG-CC-PVTZ AUX)
    Blend: AUG-CC-PVTZ-RI
    Molecular point group: c1

    Geometry (in Angstrom), charge = 0, multiplicity = 1:

       Center              X                  Y                   Z               Mass
    ------------   -----------------  -----------------  -----------------  -----------------
         O           -1.263564479230     1.544910309384    -0.017254115566    15.994914619570
         N            1.448718520770     0.511083309384    -0.017264115566    14.003074004430
         N            0.589984520770    -1.558986690616    -0.017247115566    14.003074004430
         N           -2.013817479230    -0.636129690616    -0.017258115566    14.003074004430
         C            0.310603620770    -0.248475690616     0.182752884434    12.000000000000
         C            2.505994520770    -0.364351690616    -0.017267115566    12.000000000000
         C            1.555768520770     1.968897309384    -0.017255115566    12.000000000000
         C           -1.053667479230     0.320931309384    -0.017255115566    12.000000000000
         C            1.953710520770    -1.631386690616    -0.017257115566    12.000000000000
         C           -3.425662479230    -0.317238690616    -0.017263115566    12.000000000000
         H            3.529388520770    -0.015843690616    -0.017269115566     1.007825032230
         H            1.068907520770     2.377622309384    -0.901168115566     1.007825032230
         H            1.068952520770     2.377608309384     0.866690884434     1.007825032230
         H            2.616948520770     2.221026309384    -0.017279115566     1.007825032230
         H            2.471300520770    -2.581714690616    -0.017262115566     1.007825032230
         H           -1.688566479230    -1.597578690616    -0.017258115566     1.007825032230
         H           -3.917944479230    -0.718269690616     0.873544884434     1.007825032230
         H           -3.917938479230    -0.718272690616    -0.908073115566     1.007825032230
         H           -3.512034479230     0.769302309384    -0.017266115566     1.007825032230

  Basis Set: AUG-CC-PVTZ
    Blend: AUG-CC-PVTZ
  Basis Set: (AUG-CC-PVTZ AUX)
    Blend: AUG-CC-PVTZ-JKFIT
	 Reference Energy          =    -470.8211723253009495 [Eh]
	 Singles Energy            =      -0.0000000000000000 [Eh]
	 Same-Spin Energy          =      -0.5003176307235661 [Eh]
	 Opposite-Spin Energy      =      -1.5391501717993279 [Eh]
	 Correlation Energy        =      -2.0394678025228941 [Eh]
	 Total Energy              =    -472.8606401278238422 [Eh]

	 ================> DF-SCS-MP2 Energies <==================
	-----------------------------------------------------------
	 SCS Same-Spin Scale       =       0.3333333333333333 [-]
	 SCS Opposite-Spin Scale   =       1.2000000000000000 [-]
	 SCS Same-Spin Energy      =      -0.1667725435745220 [Eh]
	 SCS Opposite-Spin Energy  =      -1.8469802061591933 [Eh]
	 SCS Correlation Energy    =      -2.0137527497337153 [Eh]
	 SCS Total Energy          =    -472.8349250750346755 [Eh]
	-----------------------------------------------------------

  Dipole Moment: [D]
     X:     1.4828      Y:    -0.0243      Z:     0.0613     Total:     1.4843

*** Psi4 exiting successfully. Buy a developer a beer!
