                               Psi4 1.3.2 release

  ==> Input File <==

--------------------------------------------------------------------------
#psi4
#
memory 32 gb

molecule  {
0 1
  O       -1.2482290     1.5306510     0.0000030
  N        1.4640540     0.4968240    -0.0000070
  N        0.6053200    -1.5732460     0.0000100
  N       -1.9984820    -0.6503890    -0.0000010
  C        0.3259395    -0.2627350     0.1000100
  C        2.5213300    -0.3786110    -0.0000100
  C        1.5711040     1.9546380     0.0000020
  C       -1.0383320     0.3066720     0.0000020
  C        1.9690460    -1.6456460     0.0000000
  C       -3.4103270    -0.3314980    -0.0000060
  H        3.5447240    -0.0301030    -0.0000120
  H        1.0842430     2.3633630    -0.8839110
  H        1.0842880     2.3633490     0.8839480
  H        2.6322840     2.2067670    -0.0000220
  H        2.4866360    -2.5959740    -0.0000050
  H       -1.6732310    -1.6118380    -0.0000010
  H       -3.9026090    -0.7325290     0.8908020
  H       -3.9026030    -0.7325320    -0.8908160
  H       -3.4966990     0.7550430    -0.0000090
units angstrom
no_reorient  #important for SAPT in psi4, default
symmetry c1  #important for SAPT in psi4, default
}

set PROPERTIES_ORIGIN ["COM"]
properties('MP2/aug-cc-pvtz', properties = ['dipole'])
--------------------------------------------------------------------------

    Molecular point group: c1
  Charge       = 0
  Multiplicity = 1
  Basis Set: AUG-CC-PVTZ
    Blend: AUG-CC-PVTZ
  Basis Set: (AUG-CC-PVTZ AUX)
    Blend: AUG-CC-PVTZ-JKFIT

    Orbital Energies [Eh]
    ---------------------

    Doubly Occupied:

       1A    -20.522015     2A    -15.638148     3A    -15.584503
       4A    -15.566480     5A    -11.362103     6A    -11.305198
       7A    -11.274756     8A    -11.273214     9A    -11.258137
      10A    -11.255661    11A     -1.381164    12A     -1.345659
      13A     -1.234238    14A     -1.190135    15A     -1.035421
      16A     -0.979103    17A     -0.950061    18A     -0.840050
      19A     -0.813552    20A     -0.772772    21A     -0.734293
      22A     -0.660255    23A     -0.655139    24A     -0.645474
      25A     -0.619125    26A     -0.605212    27A     -0.595205
      28A     -0.582870    29A     -0.563462    30A     -0.559721
      31A     -0.545510    32A     -0.529366    33A     -0.458067
      34A     -0.433536    35A     -0.398568    36A     -0.388482
      37A     -0.323313

  @DF-RHF Final Energy:  -470.83172382400232

   => Energetics <=

    Nuclear Repulsion Energy =            526.9660656269976471
    One-Electron Energy =               -1685.8356430075530170
    Two-Electron Energy =                 688.0378535565529319
    Total Energy =                       -470.8317238240023244
  Basis Set: (AUG-CC-PVTZ AUX)
    Blend: AUG-CC-PVTZ-RI
    Molecular point group: c1

    Geometry (in Angstrom), charge = 0, multiplicity = 1:

       Center              X                  Y                   Z               Mass
    ------------   -----------------  -----------------  -----------------  -----------------
         O           -1.263564513744     1.544910309384    -0.008625650494    15.994914619570
         N            1.448718486256     0.511083309384    -0.008635650494    14.003074004430
         N            0.589984486256    -1.558986690616    -0.008618650494    14.003074004430
         N           -2.013817513744    -0.636129690616    -0.008629650494    14.003074004430
         C            0.310603986256    -0.248475690616     0.091381349506    12.000000000000
         C            2.505994486256    -0.364351690616    -0.008638650494    12.000000000000
         C            1.555768486256     1.968897309384    -0.008626650494    12.000000000000
         C           -1.053667513744     0.320931309384    -0.008626650494    12.000000000000
         C            1.953710486256    -1.631386690616    -0.008628650494    12.000000000000
         C           -3.425662513744    -0.317238690616    -0.008634650494    12.000000000000
         H            3.529388486256    -0.015843690616    -0.008640650494     1.007825032230
         H            1.068907486256     2.377622309384    -0.892539650494     1.007825032230
         H            1.068952486256     2.377608309384     0.875319349506     1.007825032230
         H            2.616948486256     2.221026309384    -0.008650650494     1.007825032230
         H            2.471300486256    -2.581714690616    -0.008633650494     1.007825032230
         H           -1.688566513744    -1.597578690616    -0.008629650494     1.007825032230
         H           -3.917944513744    -0.718269690616     0.882173349506     1.007825032230
         H           -3.917938513744    -0.718272690616    -0.899444650494     1.007825032230
         H           -3.512034513744     0.769302309384    -0.008637650494     1.007825032230

  Basis Set: AUG-CC-PVTZ
    Blend: AUG-CC-PVTZ
  Basis Set: (AUG-CC-PVTZ AUX)
    Blend: AUG-CC-PVTZ-JKFIT
	 Reference Energy          =    -470.8317238240023244 [Eh]
	 Singles Energy            =      -0.0000000000000000 [Eh]
	 Same-Spin Energy          =      -0.4995766151228723 [Eh]
	 Opposite-Spin Energy      =      -1.5375239170817212 [Eh]
	 Correlation Energy        =      -2.0371005322045934 [Eh]
	 Total Energy              =    -472.8688243562069147 [Eh]

	 ================> DF-SCS-MP2 Energies <==================
	-----------------------------------------------------------
	 SCS Same-Spin Scale       =       0.3333333333333333 [-]
	 SCS Opposite-Spin Scale   =       1.2000000000000000 [-]
	 SCS Same-Spin Energy      =      -0.1665255383742908 [Eh]
	 SCS Opposite-Spin Energy  =      -1.8450287004980654 [Eh]
	 SCS Correlation Energy    =      -2.0115542388723564 [Eh]
	 SCS Total Energy          =    -472.8432780628746741 [Eh]
	-----------------------------------------------------------

  Dipole Moment: [D]
     X:     1.4176      Y:     0.0043      Z:     0.0349     Total:     1.4181

*** Psi4 exiting successfully. Buy a developer a beer!
