                               Psi4 1.3.2 release

  ==> Input File <==

--------------------------------------------------------------------------
#psi4
#
memory 32 gb

molecule  {
0 1
  O       -1.2482290     1.5306510     0.0000030
  N        1.4640540     0.4968240    -0.0000070
  N        0.6053200    -1.5732460     0.0000100
  N       -1.9984820    -0.6503890    -0.0000010
  C        0.3259400    -0.2627350     0.0000100
  C        2.5213300    -0.3786110    -0.0000100
  C        1.5711040     1.9546380     0.0000020
  C       -1.0383320     0.3066720     0.0000020
  C        1.9690460    -1.6456460     0.0000000
  C       -3.4103270    -0.3314980    -0.0000060
  H        3.5447245    -0.0301024     0.1499880
  H        1.0842430     2.3633630    -0.8839110
  H        1.0842880     2.3633490     0.8839480
  H        2.6322840     2.2067670    -0.0000220
  H        2.4866360    -2.5959740    -0.0000050
  H       -1.6732310    -1.6118380    -0.0000010
  H       -3.9026090    -0.7325290     0.8908020
  H       -3.9026030    -0.7325320    -0.8908160
  H       -3.4966990     0.7550430    -0.0000090
units angstrom
no_reorient  #important for SAPT in psi4, default
symmetry c1  #important for SAPT in psi4, default
}

set PROPERTIES_ORIGIN ["COM"]
properties('MP2/aug-cc-pvtz', properties = ['dipole'])
--------------------------------------------------------------------------

    Molecular point group: c1
  Charge       = 0
  Multiplicity = 1
  Basis Set: AUG-CC-PVTZ
    Blend: AUG-CC-PVTZ
  Basis Set: (AUG-CC-PVTZ AUX)
    Blend: AUG-CC-PVTZ-JKFIT

    Orbital Energies [Eh]
    ---------------------

    Doubly Occupied:

       1A    -20.522443     2A    -15.637833     3A    -15.584965
       4A    -15.565617     5A    -11.362320     6A    -11.305196
       7A    -11.274822     8A    -11.273172     9A    -11.258416
      10A    -11.255684    11A     -1.381822    12A     -1.346506
      13A     -1.234750    14A     -1.190807    15A     -1.035735
      16A     -0.979406    17A     -0.950439    18A     -0.840901
      19A     -0.813692    20A     -0.772918    21A     -0.734550
      22A     -0.659986    23A     -0.654859    24A     -0.645477
      25A     -0.619260    26A     -0.604833    27A     -0.595082
      28A     -0.583407    29A     -0.563594    30A     -0.559967
      31A     -0.545780    32A     -0.529926    33A     -0.458023
      34A     -0.433968    35A     -0.399243    36A     -0.388952
      37A     -0.323226

  @DF-RHF Final Energy:  -470.83404227443754

   => Energetics <=

    Nuclear Repulsion Energy =            527.0916492486607012
    One-Electron Energy =               -1686.0762297879562084
    Two-Electron Energy =                 688.1505382648580280
    Total Energy =                       -470.8340422744375928
  Basis Set: (AUG-CC-PVTZ AUX)
    Blend: AUG-CC-PVTZ-RI
    Molecular point group: c1

    Geometry (in Angstrom), charge = 0, multiplicity = 1:

       Center              X                  Y                   Z               Mass
    ------------   -----------------  -----------------  -----------------  -----------------
         O           -1.263564560510     1.544910305036    -0.001084183308    15.994914619570
         N            1.448718439490     0.511083305036    -0.001094183308    14.003074004430
         N            0.589984439490    -1.558986694964    -0.001077183308    14.003074004430
         N           -2.013817560510    -0.636129694964    -0.001088183308    14.003074004430
         C            0.310604439490    -0.248475694964    -0.001077183308    12.000000000000
         C            2.505994439490    -0.364351694964    -0.001097183308    12.000000000000
         C            1.555768439490     1.968897305036    -0.001085183308    12.000000000000
         C           -1.053667560510     0.320931305036    -0.001085183308    12.000000000000
         C            1.953710439490    -1.631386694964    -0.001087183308    12.000000000000
         C           -3.425662560510    -0.317238694964    -0.001093183308    12.000000000000
         H            3.529388939490    -0.015843094964     0.148900816692     1.007825032230
         H            1.068907439490     2.377622305036    -0.884998183308     1.007825032230
         H            1.068952439490     2.377608305036     0.882860816692     1.007825032230
         H            2.616948439490     2.221026305036    -0.001109183308     1.007825032230
         H            2.471300439490    -2.581714694964    -0.001092183308     1.007825032230
         H           -1.688566560510    -1.597578694964    -0.001088183308     1.007825032230
         H           -3.917944560510    -0.718269694964     0.889714816692     1.007825032230
         H           -3.917938560510    -0.718272694964    -0.891903183308     1.007825032230
         H           -3.512034560510     0.769302305036    -0.001096183308     1.007825032230

  Basis Set: AUG-CC-PVTZ
    Blend: AUG-CC-PVTZ
  Basis Set: (AUG-CC-PVTZ AUX)
    Blend: AUG-CC-PVTZ-JKFIT
	 Reference Energy          =    -470.8340422744375360 [Eh]
	 Singles Energy            =      -0.0000000000000000 [Eh]
	 Same-Spin Energy          =      -0.4994106056084456 [Eh]
	 Opposite-Spin Energy      =      -1.5372579647837952 [Eh]
	 Correlation Energy        =      -2.0366685703922407 [Eh]
	 Total Energy              =    -472.8707108448297731 [Eh]

	 ================> DF-SCS-MP2 Energies <==================
	-----------------------------------------------------------
	 SCS Same-Spin Scale       =       0.3333333333333333 [-]
	 SCS Opposite-Spin Scale   =       1.2000000000000000 [-]
	 SCS Same-Spin Energy      =      -0.1664702018694819 [Eh]
	 SCS Opposite-Spin Energy  =      -1.8447095577405541 [Eh]
	 SCS Correlation Energy    =      -2.0111797596100360 [Eh]
	 SCS Total Energy          =    -472.8452220340475947 [Eh]
	-----------------------------------------------------------

  Dipole Moment: [D]
     X:     1.3723      Y:     0.0062      Z:     0.1273     Total:     1.3782

*** Psi4 exiting successfully. Buy a developer a beer!
