                               Psi4 1.3.2 release

  ==> Input File <==

--------------------------------------------------------------------------
#psi4
#
memory 32 gb

molecule  {
0 1
  O       -1.2482290     1.5306510     0.0000030
  N        1.4640540     0.4968240    -0.0000070
  N        0.6053200    -1.5732460     0.0000100
  N       -1.9984820    -0.6503890    -0.0000010
  C        0.3259400    -0.2627350     0.0000100
  C        2.5213300    -0.3786110    -0.0000100
  C        1.5711040     1.9546380     0.0000020
  C       -1.0383320     0.3066720     0.0000020
  C        1.9690460    -1.6456460     0.0000000
  C       -3.4103270    -0.3314980    -0.0000060
  H        3.5447240    -0.0301030    -0.0000120
  H        1.0842430     2.3633630    -0.8839110
  H        1.0842880     2.3633490     0.8839480
  H        2.6322840     2.2067670    -0.0000220
  H        2.4866337    -2.5959745    -0.2500050
  H       -1.6732310    -1.6118380    -0.0000010
  H       -3.9026090    -0.7325290     0.8908020
  H       -3.9026030    -0.7325320    -0.8908160
  H       -3.4966990     0.7550430    -0.0000090
units angstrom
no_reorient  #important for SAPT in psi4, default
symmetry c1  #important for SAPT in psi4, default
}

set PROPERTIES_ORIGIN ["COM"]
properties('MP2/aug-cc-pvtz', properties = ['dipole'])
--------------------------------------------------------------------------

    Molecular point group: c1
  Charge       = 0
  Multiplicity = 1
  Basis Set: AUG-CC-PVTZ
    Blend: AUG-CC-PVTZ
  Basis Set: (AUG-CC-PVTZ AUX)
    Blend: AUG-CC-PVTZ-JKFIT

    Orbital Energies [Eh]
    ---------------------

    Doubly Occupied:

       1A    -20.522564     2A    -15.638346     3A    -15.585013
       4A    -15.565773     5A    -11.362429     6A    -11.305313
       7A    -11.275214     8A    -11.273345     9A    -11.258458
      10A    -11.257570    11A     -1.381992    12A     -1.346841
      13A     -1.234831    14A     -1.190962    15A     -1.035857
      16A     -0.979668    17A     -0.950402    18A     -0.840098
      19A     -0.813086    20A     -0.773153    21A     -0.733786
      22A     -0.659714    23A     -0.656829    24A     -0.645510
      25A     -0.619372    26A     -0.602648    27A     -0.595292
      28A     -0.583225    29A     -0.564695    30A     -0.556924
      31A     -0.545800    32A     -0.529629    33A     -0.457945
      34A     -0.434104    35A     -0.399268    36A     -0.388873
      37A     -0.323186

  @DF-RHF Final Energy:  -470.83122501601531

   => Energetics <=

    Nuclear Repulsion Energy =            527.0246603494656483
    One-Electron Energy =               -1685.9363414231199840
    Two-Electron Energy =                 688.0804560576390259
    Total Energy =                       -470.8312250160153098
  Basis Set: (AUG-CC-PVTZ AUX)
    Blend: AUG-CC-PVTZ-RI
    Molecular point group: c1

    Geometry (in Angstrom), charge = 0, multiplicity = 1:

       Center              X                  Y                   Z               Mass
    ------------   -----------------  -----------------  -----------------  -----------------
         O           -1.263564540219     1.544910313007     0.001814477722    15.994914619570
         N            1.448718459781     0.511083313007     0.001804477722    14.003074004430
         N            0.589984459781    -1.558986686993     0.001821477722    14.003074004430
         N           -2.013817540219    -0.636129686993     0.001810477722    14.003074004430
         C            0.310604459781    -0.248475686993     0.001821477722    12.000000000000
         C            2.505994459781    -0.364351686993     0.001801477722    12.000000000000
         C            1.555768459781     1.968897313007     0.001813477722    12.000000000000
         C           -1.053667540219     0.320931313007     0.001813477722    12.000000000000
         C            1.953710459781    -1.631386686993     0.001811477722    12.000000000000
         C           -3.425662540219    -0.317238686993     0.001805477722    12.000000000000
         H            3.529388459781    -0.015843686993     0.001799477722     1.007825032230
         H            1.068907459781     2.377622313007    -0.882099522278     1.007825032230
         H            1.068952459781     2.377608313007     0.885759477722     1.007825032230
         H            2.616948459781     2.221026313007     0.001789477722     1.007825032230
         H            2.471298159781    -2.581715186993    -0.248193522278     1.007825032230
         H           -1.688566540219    -1.597578686993     0.001810477722     1.007825032230
         H           -3.917944540219    -0.718269686993     0.892613477722     1.007825032230
         H           -3.917938540219    -0.718272686993    -0.889004522278     1.007825032230
         H           -3.512034540219     0.769302313007     0.001802477722     1.007825032230

  Basis Set: AUG-CC-PVTZ
    Blend: AUG-CC-PVTZ
  Basis Set: (AUG-CC-PVTZ AUX)
    Blend: AUG-CC-PVTZ-JKFIT
	 Reference Energy          =    -470.8312250160153098 [Eh]
	 Singles Energy            =      -0.0000000000000000 [Eh]
	 Same-Spin Energy          =      -0.4995256892155452 [Eh]
	 Opposite-Spin Energy      =      -1.5375362544252722 [Eh]
	 Correlation Energy        =      -2.0370619436408175 [Eh]
	 Total Energy              =    -472.8682869596561318 [Eh]

	 ================> DF-SCS-MP2 Energies <==================
	-----------------------------------------------------------
	 SCS Same-Spin Scale       =       0.3333333333333333 [-]
	 SCS Opposite-Spin Scale   =       1.2000000000000000 [-]
	 SCS Same-Spin Energy      =      -0.1665085630718484 [Eh]
	 SCS Opposite-Spin Energy  =      -1.8450435053103265 [Eh]
	 SCS Correlation Energy    =      -2.0115520683821750 [Eh]
	 SCS Total Energy          =    -472.8427770843974827 [Eh]
	-----------------------------------------------------------

  Dipole Moment: [D]
     X:     1.3585      Y:     0.0653      Z:    -0.1780     Total:     1.3716

*** Psi4 exiting successfully. Buy a developer a beer!
