                               Psi4 1.3.2 release

  ==> Input File <==

--------------------------------------------------------------------------
#psi4
#
memory 32 gb

molecule  {
0 1
  O       -1.2482290     1.5306510     0.0000030
  N        1.4640540     0.4968240    -0.0000070
  N        0.6053200    -1.5732460     0.0000100
  N       -1.9984820    -0.6503890    -0.0000010
  C        0.3259400    -0.2627350     0.0000100
  C        2.5213300    -0.3786110    -0.0000100
  C        1.5711040     1.9546380     0.0000020
  C       -1.0383320     0.3066720     0.0000020
  C        1.9690460    -1.6456460     0.0000000
  C       -3.4103270    -0.3314980    -0.0000060
  H        3.5447240    -0.0301030    -0.0000120
  H        1.0842430     2.3633630    -0.8839110
  H        1.0842880     2.3633490     0.8839480
  H        2.6322840     2.2067670    -0.0000220
  H        2.4866351    -2.5959742    -0.1000050
  H       -1.6732310    -1.6118380    -0.0000010
  H       -3.9026090    -0.7325290     0.8908020
  H       -3.9026030    -0.7325320    -0.8908160
  H       -3.4966990     0.7550430    -0.0000090
units angstrom
no_reorient  #important for SAPT in psi4, default
symmetry c1  #important for SAPT in psi4, default
}

set PROPERTIES_ORIGIN ["COM"]
properties('MP2/aug-cc-pvtz', properties = ['dipole'])
--------------------------------------------------------------------------

    Molecular point group: c1
  Charge       = 0
  Multiplicity = 1
  Basis Set: AUG-CC-PVTZ
    Blend: AUG-CC-PVTZ
  Basis Set: (AUG-CC-PVTZ AUX)
    Blend: AUG-CC-PVTZ-JKFIT

    Orbital Energies [Eh]
    ---------------------

    Doubly Occupied:

       1A    -20.522344     2A    -15.637919     3A    -15.584846
       4A    -15.565529     5A    -11.362220     6A    -11.304954
       7A    -11.274957     8A    -11.272677     9A    -11.258341
      10A    -11.255720    11A     -1.381742    12A     -1.346481
      13A     -1.234653    14A     -1.190750    15A     -1.035852
      16A     -0.979452    17A     -0.950477    18A     -0.840725
      19A     -0.814291    20A     -0.772970    21A     -0.734531
      22A     -0.659591    23A     -0.656378    24A     -0.645717
      25A     -0.619188    26A     -0.604730    27A     -0.595568
      28A     -0.583484    29A     -0.563834    30A     -0.559566
      31A     -0.545707    32A     -0.529929    33A     -0.457981
      34A     -0.433884    35A     -0.399205    36A     -0.388856
      37A     -0.323141

  @DF-RHF Final Energy:  -470.83466387593324

   => Energetics <=

    Nuclear Repulsion Energy =            527.1149950004381708
    One-Electron Energy =               -1686.1229362057115395
    Two-Electron Energy =                 688.1732773293399532
    Total Energy =                       -470.8346638759333018
  Basis Set: (AUG-CC-PVTZ AUX)
    Blend: AUG-CC-PVTZ-RI
    Molecular point group: c1

    Geometry (in Angstrom), charge = 0, multiplicity = 1:

       Center              X                  Y                   Z               Mass
    ------------   -----------------  -----------------  -----------------  -----------------
         O           -1.263564550364     1.544910310833     0.000727479836    15.994914619570
         N            1.448718449636     0.511083310833     0.000717479836    14.003074004430
         N            0.589984449636    -1.558986689167     0.000734479836    14.003074004430
         N           -2.013817550364    -0.636129689167     0.000723479836    14.003074004430
         C            0.310604449636    -0.248475689167     0.000734479836    12.000000000000
         C            2.505994449636    -0.364351689167     0.000714479836    12.000000000000
         C            1.555768449636     1.968897310833     0.000726479836    12.000000000000
         C           -1.053667550364     0.320931310833     0.000726479836    12.000000000000
         C            1.953710449636    -1.631386689167     0.000724479836    12.000000000000
         C           -3.425662550364    -0.317238689167     0.000718479836    12.000000000000
         H            3.529388449636    -0.015843689167     0.000712479836     1.007825032230
         H            1.068907449636     2.377622310833    -0.883186520164     1.007825032230
         H            1.068952449636     2.377608310833     0.884672479836     1.007825032230
         H            2.616948449636     2.221026310833     0.000702479836     1.007825032230
         H            2.471299549636    -2.581714889167    -0.099280520164     1.007825032230
         H           -1.688566550364    -1.597578689167     0.000723479836     1.007825032230
         H           -3.917944550364    -0.718269689167     0.891526479836     1.007825032230
         H           -3.917938550364    -0.718272689167    -0.890091520164     1.007825032230
         H           -3.512034550364     0.769302310833     0.000715479836     1.007825032230

  Basis Set: AUG-CC-PVTZ
    Blend: AUG-CC-PVTZ
  Basis Set: (AUG-CC-PVTZ AUX)
    Blend: AUG-CC-PVTZ-JKFIT
	 Reference Energy          =    -470.8346638759332450 [Eh]
	 Singles Energy            =      -0.0000000000000000 [Eh]
	 Same-Spin Energy          =      -0.4993577819743912 [Eh]
	 Opposite-Spin Energy      =      -1.5371418757112059 [Eh]
	 Correlation Energy        =      -2.0364996576855972 [Eh]
	 Total Energy              =    -472.8711635336188692 [Eh]

	 ================> DF-SCS-MP2 Energies <==================
	-----------------------------------------------------------
	 SCS Same-Spin Scale       =       0.3333333333333333 [-]
	 SCS Opposite-Spin Scale   =       1.2000000000000000 [-]
	 SCS Same-Spin Energy      =      -0.1664525939914637 [Eh]
	 SCS Opposite-Spin Energy  =      -1.8445702508534469 [Eh]
	 SCS Correlation Energy    =      -2.0110228448449106 [Eh]
	 SCS Total Energy          =    -472.8456867207781329 [Eh]
	-----------------------------------------------------------

  Dipole Moment: [D]
     X:     1.3889      Y:     0.0226      Z:    -0.0722     Total:     1.3910

*** Psi4 exiting successfully. Buy a developer a beer!
