                               Psi4 1.3.2 release

  ==> Input File <==

--------------------------------------------------------------------------
#psi4
#
memory 32 gb

molecule  {
0 1
  O       -1.2482290     1.5306510     0.0000030
  N        1.4640540     0.4968240    -0.0000070
  N        0.6053200    -1.5732460     0.0000100
  N       -1.9984820    -0.6503890    -0.0000010
  C        0.3259400    -0.2627350     0.0000100
  C        2.5213300    -0.3786110    -0.0000100
  C        1.5711040     1.9546380     0.0000020
  C       -1.0383320     0.3066720     0.0000020
  C        1.9690460    -1.6456460     0.0000000
  C       -3.4103270    -0.3314980    -0.0000060
  H        3.5447240    -0.0301030    -0.0000120
  H        1.0842430     2.3633630    -0.8839110
  H        1.0842880     2.3633490     0.8839480
  H        2.6322840     2.2067670    -0.0000220
  H        2.4866346    -2.5959743    -0.1500050
  H       -1.6732310    -1.6118380    -0.0000010
  H       -3.9026090    -0.7325290     0.8908020
  H       -3.9026030    -0.7325320    -0.8908160
  H       -3.4966990     0.7550430    -0.0000090
units angstrom
no_reorient  #important for SAPT in psi4, default
symmetry c1  #important for SAPT in psi4, default
}

set PROPERTIES_ORIGIN ["COM"]
properties('MP2/aug-cc-pvtz', properties = ['dipole'])
--------------------------------------------------------------------------

    Molecular point group: c1
  Charge       = 0
  Multiplicity = 1
  Basis Set: AUG-CC-PVTZ
    Blend: AUG-CC-PVTZ
  Basis Set: (AUG-CC-PVTZ AUX)
    Blend: AUG-CC-PVTZ-JKFIT

    Orbital Energies [Eh]
    ---------------------

    Doubly Occupied:

       1A    -20.522396     2A    -15.638021     3A    -15.584886
       4A    -15.565586     5A    -11.362270     6A    -11.305040
       7A    -11.275019     8A    -11.272837     9A    -11.258369
      10A    -11.256166    11A     -1.381801    12A     -1.346567
      13A     -1.234695    14A     -1.190800    15A     -1.035851
      16A     -0.979503    17A     -0.950456    18A     -0.840558
      19A     -0.813995    20A     -0.773014    21A     -0.734346
      22A     -0.659619    23A     -0.656489    24A     -0.645660
      25A     -0.619233    26A     -0.604174    27A     -0.595521
      28A     -0.583428    29A     -0.564110    30A     -0.558885
      31A     -0.545731    32A     -0.529864    33A     -0.457976
      34A     -0.433936    35A     -0.399219    36A     -0.388860
      37A     -0.323151

  @DF-RHF Final Energy:  -470.83388995233213

   => Energetics <=

    Nuclear Repulsion Energy =            527.0930798094116199
    One-Electron Energy =               -1686.0778725132734053
    Two-Electron Energy =                 688.1509027515296566
    Total Energy =                       -470.8338899523321288
  Basis Set: (AUG-CC-PVTZ AUX)
    Blend: AUG-CC-PVTZ-RI
    Molecular point group: c1

    Geometry (in Angstrom), charge = 0, multiplicity = 1:

       Center              X                  Y                   Z               Mass
    ------------   -----------------  -----------------  -----------------  -----------------
         O           -1.263564546741     1.544910311558     0.001089812465    15.994914619570
         N            1.448718453259     0.511083311558     0.001079812465    14.003074004430
         N            0.589984453259    -1.558986688442     0.001096812465    14.003074004430
         N           -2.013817546741    -0.636129688442     0.001085812465    14.003074004430
         C            0.310604453259    -0.248475688442     0.001096812465    12.000000000000
         C            2.505994453259    -0.364351688442     0.001076812465    12.000000000000
         C            1.555768453259     1.968897311558     0.001088812465    12.000000000000
         C           -1.053667546741     0.320931311558     0.001088812465    12.000000000000
         C            1.953710453259    -1.631386688442     0.001086812465    12.000000000000
         C           -3.425662546741    -0.317238688442     0.001080812465    12.000000000000
         H            3.529388453259    -0.015843688442     0.001074812465     1.007825032230
         H            1.068907453259     2.377622311558    -0.882824187535     1.007825032230
         H            1.068952453259     2.377608311558     0.885034812465     1.007825032230
         H            2.616948453259     2.221026311558     0.001064812465     1.007825032230
         H            2.471299053259    -2.581714988442    -0.148918187535     1.007825032230
         H           -1.688566546741    -1.597578688442     0.001085812465     1.007825032230
         H           -3.917944546741    -0.718269688442     0.891888812465     1.007825032230
         H           -3.917938546741    -0.718272688442    -0.889729187535     1.007825032230
         H           -3.512034546741     0.769302311558     0.001077812465     1.007825032230

  Basis Set: AUG-CC-PVTZ
    Blend: AUG-CC-PVTZ
  Basis Set: (AUG-CC-PVTZ AUX)
    Blend: AUG-CC-PVTZ-JKFIT
	 Reference Energy          =    -470.8338899523321288 [Eh]
	 Singles Energy            =      -0.0000000000000000 [Eh]
	 Same-Spin Energy          =      -0.4993981701273971 [Eh]
	 Opposite-Spin Energy      =      -1.5372283415439378 [Eh]
	 Correlation Energy        =      -2.0366265116713351 [Eh]
	 Total Energy              =    -472.8705164640034582 [Eh]

	 ================> DF-SCS-MP2 Energies <==================
	-----------------------------------------------------------
	 SCS Same-Spin Scale       =       0.3333333333333333 [-]
	 SCS Opposite-Spin Scale   =       1.2000000000000000 [-]
	 SCS Same-Spin Energy      =      -0.1664660567091324 [Eh]
	 SCS Opposite-Spin Energy  =      -1.8446740098527252 [Eh]
	 SCS Correlation Energy    =      -2.0111400665618575 [Eh]
	 SCS Total Energy          =    -472.8450300188939650 [Eh]
	-----------------------------------------------------------

  Dipole Moment: [D]
     X:     1.3816      Y:     0.0329      Z:    -0.1079     Total:     1.3862

*** Psi4 exiting successfully. Buy a developer a beer!
