                               Psi4 1.3.2 release

  ==> Input File <==

--------------------------------------------------------------------------
#psi4
#
memory 32 gb

molecule  {
0 1
  O       -1.2482290     1.5306510     0.0000030
  N        1.4640540     0.4968240    -0.0000070
  N        0.6053200    -1.5732460     0.0000100
  N       -1.9984820    -0.6503890    -0.0000010
  C        0.3259400    -0.2627350     0.0000100
  C        2.5213300    -0.3786110    -0.0000100
  C        1.5711040     1.9546380     0.0000020
  C       -1.0383320     0.3066720     0.0000020
  C        1.9690460    -1.6456460     0.0000000
  C       -3.4103270    -0.3314980    -0.0000060
  H        3.5447240    -0.0301030    -0.0000120
  H        1.0842430     2.3633630    -0.8839110
  H        1.0842880     2.3633490     0.8839480
  H        2.6322840     2.2067670    -0.0000220
  H        2.4866355    -2.5959741    -0.0500050
  H       -1.6732310    -1.6118380    -0.0000010
  H       -3.9026090    -0.7325290     0.8908020
  H       -3.9026030    -0.7325320    -0.8908160
  H       -3.4966990     0.7550430    -0.0000090
units angstrom
no_reorient  #important for SAPT in psi4, default
symmetry c1  #important for SAPT in psi4, default
}

set PROPERTIES_ORIGIN ["COM"]
properties('MP2/aug-cc-pvtz', properties = ['dipole'])
--------------------------------------------------------------------------

    Molecular point group: c1
  Charge       = 0
  Multiplicity = 1
  Basis Set: AUG-CC-PVTZ
    Blend: AUG-CC-PVTZ
  Basis Set: (AUG-CC-PVTZ AUX)
    Blend: AUG-CC-PVTZ-JKFIT

    Orbital Energies [Eh]
    ---------------------

    Doubly Occupied:

       1A    -20.522312     2A    -15.637857     3A    -15.584823
       4A    -15.565495     5A    -11.362191     6A    -11.304903
       7A    -11.274920     8A    -11.272581     9A    -11.258325
      10A    -11.255451    11A     -1.381706    12A     -1.346429
      13A     -1.234627    14A     -1.190720    15A     -1.035854
      16A     -0.979421    17A     -0.950491    18A     -0.840832
      19A     -0.814470    20A     -0.772944    21A     -0.734645
      22A     -0.659574    23A     -0.656311    24A     -0.645755
      25A     -0.619160    26A     -0.605080    27A     -0.595591
      28A     -0.583516    29A     -0.563624    30A     -0.560013
      31A     -0.545693    32A     -0.529966    33A     -0.457984
      34A     -0.433852    35A     -0.399196    36A     -0.388854
      37A     -0.323136

  @DF-RHF Final Energy:  -470.83511350162507

   => Energetics <=

    Nuclear Repulsion Energy =            527.1282713677251195
    One-Electron Energy =               -1686.1501715249555673
    Two-Electron Energy =                 688.1867866556053741
    Total Energy =                       -470.8351135016250737
  Basis Set: (AUG-CC-PVTZ AUX)
    Blend: AUG-CC-PVTZ-RI
    Molecular point group: c1

    Geometry (in Angstrom), charge = 0, multiplicity = 1:

       Center              X                  Y                   Z               Mass
    ------------   -----------------  -----------------  -----------------  -----------------
         O           -1.263564553263     1.544910310108     0.000365147207    15.994914619570
         N            1.448718446737     0.511083310108     0.000355147207    14.003074004430
         N            0.589984446737    -1.558986689892     0.000372147207    14.003074004430
         N           -2.013817553263    -0.636129689892     0.000361147207    14.003074004430
         C            0.310604446737    -0.248475689892     0.000372147207    12.000000000000
         C            2.505994446737    -0.364351689892     0.000352147207    12.000000000000
         C            1.555768446737     1.968897310108     0.000364147207    12.000000000000
         C           -1.053667553263     0.320931310108     0.000364147207    12.000000000000
         C            1.953710446737    -1.631386689892     0.000362147207    12.000000000000
         C           -3.425662553263    -0.317238689892     0.000356147207    12.000000000000
         H            3.529388446737    -0.015843689892     0.000350147207     1.007825032230
         H            1.068907446737     2.377622310108    -0.883548852793     1.007825032230
         H            1.068952446737     2.377608310108     0.884310147207     1.007825032230
         H            2.616948446737     2.221026310108     0.000340147207     1.007825032230
         H            2.471299946737    -2.581714789892    -0.049642852793     1.007825032230
         H           -1.688566553263    -1.597578689892     0.000361147207     1.007825032230
         H           -3.917944553263    -0.718269689892     0.891164147207     1.007825032230
         H           -3.917938553263    -0.718272689892    -0.890453852793     1.007825032230
         H           -3.512034553263     0.769302310108     0.000353147207     1.007825032230

  Basis Set: AUG-CC-PVTZ
    Blend: AUG-CC-PVTZ
  Basis Set: (AUG-CC-PVTZ AUX)
    Blend: AUG-CC-PVTZ-JKFIT
	 Reference Energy          =    -470.8351135016250737 [Eh]
	 Singles Energy            =      -0.0000000000000000 [Eh]
	 Same-Spin Energy          =      -0.4993334731417923 [Eh]
	 Opposite-Spin Energy      =      -1.5370937269313085 [Eh]
	 Correlation Energy        =      -2.0364272000731010 [Eh]
	 Total Energy              =    -472.8715407016981658 [Eh]

	 ================> DF-SCS-MP2 Energies <==================
	-----------------------------------------------------------
	 SCS Same-Spin Scale       =       0.3333333333333333 [-]
	 SCS Opposite-Spin Scale   =       1.2000000000000000 [-]
	 SCS Same-Spin Energy      =      -0.1664444910472641 [Eh]
	 SCS Opposite-Spin Energy  =      -1.8445124723175701 [Eh]
	 SCS Correlation Energy    =      -2.0109569633648343 [Eh]
	 SCS Total Energy          =    -472.8460704649899071 [Eh]
	-----------------------------------------------------------

  Dipole Moment: [D]
     X:     1.3934      Y:     0.0164      Z:    -0.0362     Total:     1.3939

*** Psi4 exiting successfully. Buy a developer a beer!
