                               Psi4 1.3.2 release

  ==> Input File <==

--------------------------------------------------------------------------
#psi4
#
memory 32 gb

molecule  {
0 1
  O       -1.2482290     1.5306510     0.0000030
  N        1.4640540     0.4968240    -0.0000070
  N        0.6053200    -1.5732460     0.0000100
  N       -1.9984820    -0.6503890    -0.0000010
  C        0.3259400    -0.2627350     0.0000100
  C        2.5213300    -0.3786110    -0.0000100
  C        1.5711040     1.9546380     0.0000020
  C       -1.0383322     0.3066717    -0.0499980
  C        1.9690460    -1.6456460     0.0000000
  C       -3.4103270    -0.3314980    -0.0000060
  H        3.5447240    -0.0301030    -0.0000120
  H        1.0842430     2.3633630    -0.8839110
  H        1.0842880     2.3633490     0.8839480
  H        2.6322840     2.2067670    -0.0000220
  H        2.4866360    -2.5959740    -0.0000050
  H       -1.6732310    -1.6118380    -0.0000010
  H       -3.9026090    -0.7325290     0.8908020
  H       -3.9026030    -0.7325320    -0.8908160
  H       -3.4966990     0.7550430    -0.0000090
units angstrom
no_reorient  #important for SAPT in psi4, default
symmetry c1  #important for SAPT in psi4, default
}

set PROPERTIES_ORIGIN ["COM"]
properties('MP2/aug-cc-pvtz', properties = ['dipole'])
--------------------------------------------------------------------------

    Molecular point group: c1
  Charge       = 0
  Multiplicity = 1
  Basis Set: AUG-CC-PVTZ
    Blend: AUG-CC-PVTZ
  Basis Set: (AUG-CC-PVTZ AUX)
    Blend: AUG-CC-PVTZ-JKFIT

    Orbital Energies [Eh]
    ---------------------

    Doubly Occupied:

       1A    -20.522484     2A    -15.637799     3A    -15.584910
       4A    -15.565445     5A    -11.362542     6A    -11.305018
       7A    -11.274896     8A    -11.272533     9A    -11.258295
      10A    -11.255354    11A     -1.381326    12A     -1.346291
      13A     -1.234327    14A     -1.190677    15A     -1.035740
      16A     -0.979362    17A     -0.950400    18A     -0.840744
      19A     -0.814506    20A     -0.772757    21A     -0.734600
      22A     -0.659692    23A     -0.656073    24A     -0.645574
      25A     -0.619070    26A     -0.605158    27A     -0.595555
      28A     -0.583376    29A     -0.563524    30A     -0.560087
      31A     -0.545634    32A     -0.529768    33A     -0.457951
      34A     -0.433763    35A     -0.399124    36A     -0.388743
      37A     -0.323067

  @DF-RHF Final Energy:  -470.83406067369441

   => Energetics <=

    Nuclear Repulsion Energy =            527.0894146349238554
    One-Electron Energy =               -1686.0746231518392051
    Two-Electron Energy =                 688.1511478432209969
    Total Energy =                       -470.8340606736944665
  Basis Set: (AUG-CC-PVTZ AUX)
    Blend: AUG-CC-PVTZ-RI
    Molecular point group: c1

    Geometry (in Angstrom), charge = 0, multiplicity = 1:

       Center              X                  Y                   Z               Mass
    ------------   -----------------  -----------------  -----------------  -----------------
         O           -1.263564539629     1.544910335269     0.004317047114    15.994914619570
         N            1.448718460371     0.511083335269     0.004307047114    14.003074004430
         N            0.589984460371    -1.558986664731     0.004324047114    14.003074004430
         N           -2.013817539629    -0.636129664731     0.004313047114    14.003074004430
         C            0.310604460371    -0.248475664731     0.004324047114    12.000000000000
         C            2.505994460371    -0.364351664731     0.004304047114    12.000000000000
         C            1.555768460371     1.968897335269     0.004316047114    12.000000000000
         C           -1.053667739629     0.320931035269    -0.045683952886    12.000000000000
         C            1.953710460371    -1.631386664731     0.004314047114    12.000000000000
         C           -3.425662539629    -0.317238664731     0.004308047114    12.000000000000
         H            3.529388460371    -0.015843664731     0.004302047114     1.007825032230
         H            1.068907460371     2.377622335269    -0.879596952886     1.007825032230
         H            1.068952460371     2.377608335269     0.888262047114     1.007825032230
         H            2.616948460371     2.221026335269     0.004292047114     1.007825032230
         H            2.471300460371    -2.581714664731     0.004309047114     1.007825032230
         H           -1.688566539629    -1.597578664731     0.004313047114     1.007825032230
         H           -3.917944539629    -0.718269664731     0.895116047114     1.007825032230
         H           -3.917938539629    -0.718272664731    -0.886501952886     1.007825032230
         H           -3.512034539629     0.769302335269     0.004305047114     1.007825032230

  Basis Set: AUG-CC-PVTZ
    Blend: AUG-CC-PVTZ
  Basis Set: (AUG-CC-PVTZ AUX)
    Blend: AUG-CC-PVTZ-JKFIT
	 Reference Energy          =    -470.8340606736944096 [Eh]
	 Singles Energy            =      -0.0000000000000000 [Eh]
	 Same-Spin Energy          =      -0.4994000426584159 [Eh]
	 Opposite-Spin Energy      =      -1.5372351700898723 [Eh]
	 Correlation Energy        =      -2.0366352127482883 [Eh]
	 Total Energy              =    -472.8706958864427179 [Eh]

	 ================> DF-SCS-MP2 Energies <==================
	-----------------------------------------------------------
	 SCS Same-Spin Scale       =       0.3333333333333333 [-]
	 SCS Opposite-Spin Scale   =       1.2000000000000000 [-]
	 SCS Same-Spin Energy      =      -0.1664666808861386 [Eh]
	 SCS Opposite-Spin Energy  =      -1.8446822041078468 [Eh]
	 SCS Correlation Energy    =      -2.0111488849939856 [Eh]
	 SCS Total Energy          =    -472.8452095586883956 [Eh]
	-----------------------------------------------------------

  Dipole Moment: [D]
     X:     1.3929      Y:     0.0155      Z:    -0.0456     Total:     1.3937

*** Psi4 exiting successfully. Buy a developer a beer!
