                               Psi4 1.3.2 release

  ==> Input File <==

--------------------------------------------------------------------------
#psi4
#
memory 32 gb

molecule  {
0 1
  O       -1.2482290     1.5306510     0.0000030
  N        1.4640540     0.4968240    -0.0000070
  N        0.6053200    -1.5732460     0.0000100
  N       -1.9984820    -0.6503890    -0.0000010
  C        0.3259400    -0.2627350     0.0000100
  C        2.5213300    -0.3786110    -0.0000100
  C        1.5711040     1.9546380     0.0000020
  C       -1.0383320     0.3066720     0.0000020
  C        1.9690460    -1.6456460     0.0000000
  C       -3.4103270    -0.3314980    -0.0000060
  H        3.5447247    -0.0301022     0.1999880
  H        1.0842430     2.3633630    -0.8839110
  H        1.0842880     2.3633490     0.8839480
  H        2.6322840     2.2067670    -0.0000220
  H        2.4866360    -2.5959740    -0.0000050
  H       -1.6732310    -1.6118380    -0.0000010
  H       -3.9026090    -0.7325290     0.8908020
  H       -3.9026030    -0.7325320    -0.8908160
  H       -3.4966990     0.7550430    -0.0000090
units angstrom
no_reorient  #important for SAPT in psi4, default
symmetry c1  #important for SAPT in psi4, default
}

set PROPERTIES_ORIGIN ["COM"]
properties('MP2/aug-cc-pvtz', properties = ['dipole'])
--------------------------------------------------------------------------

    Molecular point group: c1
  Charge       = 0
  Multiplicity = 1
  Basis Set: AUG-CC-PVTZ
    Blend: AUG-CC-PVTZ
  Basis Set: (AUG-CC-PVTZ AUX)
    Blend: AUG-CC-PVTZ-JKFIT

    Orbital Energies [Eh]
    ---------------------

    Doubly Occupied:

       1A    -20.522553     2A    -15.637833     3A    -15.585080
       4A    -15.565720     5A    -11.362428     6A    -11.305435
       7A    -11.274756     8A    -11.273653     9A    -11.258490
      10A    -11.255931    11A     -1.381921    12A     -1.346579
      13A     -1.234851    14A     -1.190882    15A     -1.035649
      16A     -0.979402    17A     -0.950400    18A     -0.840934
      19A     -0.813074    20A     -0.772906    21A     -0.734455
      22A     -0.660145    23A     -0.654023    24A     -0.645197
      25A     -0.619344    26A     -0.604573    27A     -0.594656
      28A     -0.583286    29A     -0.563631    30A     -0.559804
      31A     -0.545850    32A     -0.529883    33A     -0.458052
      34A     -0.434065    35A     -0.399282    36A     -0.389027
      37A     -0.323298

  @DF-RHF Final Energy:  -470.83302531298119

   => Energetics <=

    Nuclear Repulsion Energy =            527.0602953571486751
    One-Electron Energy =               -1686.0125480132246594
    Two-Electron Energy =                 688.1192273430946216
    Total Energy =                       -470.8330253129812490
  Basis Set: (AUG-CC-PVTZ AUX)
    Blend: AUG-CC-PVTZ-RI
    Molecular point group: c1

    Geometry (in Angstrom), charge = 0, multiplicity = 1:

       Center              X                  Y                   Z               Mass
    ------------   -----------------  -----------------  -----------------  -----------------
         O           -1.263564561959     1.544910303586    -0.001446515937    15.994914619570
         N            1.448718438041     0.511083303586    -0.001456515937    14.003074004430
         N            0.589984438041    -1.558986696414    -0.001439515937    14.003074004430
         N           -2.013817561959    -0.636129696414    -0.001450515937    14.003074004430
         C            0.310604438041    -0.248475696414    -0.001439515937    12.000000000000
         C            2.505994438041    -0.364351696414    -0.001459515937    12.000000000000
         C            1.555768438041     1.968897303586    -0.001447515937    12.000000000000
         C           -1.053667561959     0.320931303586    -0.001447515937    12.000000000000
         C            1.953710438041    -1.631386696414    -0.001449515937    12.000000000000
         C           -3.425662561959    -0.317238696414    -0.001455515937    12.000000000000
         H            3.529389138041    -0.015842896414     0.198538484063     1.007825032230
         H            1.068907438041     2.377622303586    -0.885360515937     1.007825032230
         H            1.068952438041     2.377608303586     0.882498484063     1.007825032230
         H            2.616948438041     2.221026303586    -0.001471515937     1.007825032230
         H            2.471300438041    -2.581714696414    -0.001454515937     1.007825032230
         H           -1.688566561959    -1.597578696414    -0.001450515937     1.007825032230
         H           -3.917944561959    -0.718269696414     0.889352484063     1.007825032230
         H           -3.917938561959    -0.718272696414    -0.892265515937     1.007825032230
         H           -3.512034561959     0.769302303586    -0.001458515937     1.007825032230

  Basis Set: AUG-CC-PVTZ
    Blend: AUG-CC-PVTZ
  Basis Set: (AUG-CC-PVTZ AUX)
    Blend: AUG-CC-PVTZ-JKFIT
	 Reference Energy          =    -470.8330253129811922 [Eh]
	 Singles Energy            =      -0.0000000000000000 [Eh]
	 Same-Spin Energy          =      -0.4994762560895893 [Eh]
	 Opposite-Spin Energy      =      -1.5374072953186233 [Eh]
	 Correlation Energy        =      -2.0368835514082129 [Eh]
	 Total Energy              =    -472.8699088643894015 [Eh]

	 ================> DF-SCS-MP2 Energies <==================
	-----------------------------------------------------------
	 SCS Same-Spin Scale       =       0.3333333333333333 [-]
	 SCS Opposite-Spin Scale   =       1.2000000000000000 [-]
	 SCS Same-Spin Energy      =      -0.1664920853631964 [Eh]
	 SCS Opposite-Spin Energy  =      -1.8448887543823478 [Eh]
	 SCS Correlation Energy    =      -2.0113808397455442 [Eh]
	 SCS Total Energy          =    -472.8444061527267195 [Eh]
	-----------------------------------------------------------

  Dipole Moment: [D]
     X:     1.3551      Y:     0.0001      Z:     0.1688     Total:     1.3655

*** Psi4 exiting successfully. Buy a developer a beer!
