                               Psi4 1.3.2 release

  ==> Input File <==

--------------------------------------------------------------------------
#psi4
#
memory 32 gb

molecule  {
0 1
  O       -1.2482290     1.5306510     0.0000030
  N        1.4640540     0.4968240    -0.0000070
  N        0.6053200    -1.5732460     0.0000100
  N       -1.9984820    -0.6503890    -0.0000010
  C        0.3259393    -0.2627350     0.1500100
  C        2.5213300    -0.3786110    -0.0000100
  C        1.5711040     1.9546380     0.0000020
  C       -1.0383320     0.3066720     0.0000020
  C        1.9690460    -1.6456460     0.0000000
  C       -3.4103270    -0.3314980    -0.0000060
  H        3.5447240    -0.0301030    -0.0000120
  H        1.0842430     2.3633630    -0.8839110
  H        1.0842880     2.3633490     0.8839480
  H        2.6322840     2.2067670    -0.0000220
  H        2.4866360    -2.5959740    -0.0000050
  H       -1.6732310    -1.6118380    -0.0000010
  H       -3.9026090    -0.7325290     0.8908020
  H       -3.9026030    -0.7325320    -0.8908160
  H       -3.4966990     0.7550430    -0.0000090
units angstrom
no_reorient  #important for SAPT in psi4, default
symmetry c1  #important for SAPT in psi4, default
}

set PROPERTIES_ORIGIN ["COM"]
properties('MP2/aug-cc-pvtz', properties = ['dipole'])
--------------------------------------------------------------------------

    Molecular point group: c1
  Charge       = 0
  Multiplicity = 1
  Basis Set: AUG-CC-PVTZ
    Blend: AUG-CC-PVTZ
  Basis Set: (AUG-CC-PVTZ AUX)
    Blend: AUG-CC-PVTZ-JKFIT

    Orbital Energies [Eh]
    ---------------------

    Doubly Occupied:

       1A    -20.521657     2A    -15.638527     3A    -15.584117
       4A    -15.567712     5A    -11.361989     6A    -11.305564
       7A    -11.274568     8A    -11.274060     9A    -11.257909
      10A    -11.256047    11A     -1.380510    12A     -1.344728
      13A     -1.233767    14A     -1.189434    15A     -1.034889
      16A     -0.978725    17A     -0.949526    18A     -0.839051
      19A     -0.812352    20A     -0.772574    21A     -0.733806
      22A     -0.660803    23A     -0.654029    24A     -0.645109
      25A     -0.619079    26A     -0.605233    27A     -0.594723
      28A     -0.582054    29A     -0.563346    30A     -0.559173
      31A     -0.545284    32A     -0.528609    33A     -0.458174
      34A     -0.433131    35A     -0.397817    36A     -0.388013
      37A     -0.323548

  @DF-RHF Final Energy:  -470.82731732430005

   => Energetics <=

    Nuclear Repulsion Energy =            526.7592511350649147
    One-Electron Energy =               -1685.4338643213104660
    Two-Electron Energy =                 687.8472958619454403
    Total Energy =                       -470.8273173243001111
  Basis Set: (AUG-CC-PVTZ AUX)
    Blend: AUG-CC-PVTZ-RI
    Molecular point group: c1

    Geometry (in Angstrom), charge = 0, multiplicity = 1:

       Center              X                  Y                   Z               Mass
    ------------   -----------------  -----------------  -----------------  -----------------
         O           -1.263564496487     1.544910309384    -0.012939883030    15.994914619570
         N            1.448718503513     0.511083309384    -0.012949883030    14.003074004430
         N            0.589984503513    -1.558986690616    -0.012932883030    14.003074004430
         N           -2.013817496487    -0.636129690616    -0.012943883030    14.003074004430
         C            0.310603803513    -0.248475690616     0.137067116970    12.000000000000
         C            2.505994503513    -0.364351690616    -0.012952883030    12.000000000000
         C            1.555768503513     1.968897309384    -0.012940883030    12.000000000000
         C           -1.053667496487     0.320931309384    -0.012940883030    12.000000000000
         C            1.953710503513    -1.631386690616    -0.012942883030    12.000000000000
         C           -3.425662496487    -0.317238690616    -0.012948883030    12.000000000000
         H            3.529388503513    -0.015843690616    -0.012954883030     1.007825032230
         H            1.068907503513     2.377622309384    -0.896853883030     1.007825032230
         H            1.068952503513     2.377608309384     0.871005116970     1.007825032230
         H            2.616948503513     2.221026309384    -0.012964883030     1.007825032230
         H            2.471300503513    -2.581714690616    -0.012947883030     1.007825032230
         H           -1.688566496487    -1.597578690616    -0.012943883030     1.007825032230
         H           -3.917944496487    -0.718269690616     0.877859116970     1.007825032230
         H           -3.917938496487    -0.718272690616    -0.903758883030     1.007825032230
         H           -3.512034496487     0.769302309384    -0.012951883030     1.007825032230

  Basis Set: AUG-CC-PVTZ
    Blend: AUG-CC-PVTZ
  Basis Set: (AUG-CC-PVTZ AUX)
    Blend: AUG-CC-PVTZ-JKFIT
	 Reference Energy          =    -470.8273173243000542 [Eh]
	 Singles Energy            =      -0.0000000000000000 [Eh]
	 Same-Spin Energy          =      -0.4998883454907490 [Eh]
	 Opposite-Spin Energy      =      -1.5381766415170270 [Eh]
	 Correlation Energy        =      -2.0380649870077763 [Eh]
	 Total Energy              =    -472.8653823113078261 [Eh]

	 ================> DF-SCS-MP2 Energies <==================
	-----------------------------------------------------------
	 SCS Same-Spin Scale       =       0.3333333333333333 [-]
	 SCS Opposite-Spin Scale   =       1.2000000000000000 [-]
	 SCS Same-Spin Energy      =      -0.1666294484969163 [Eh]
	 SCS Opposite-Spin Energy  =      -1.8458119698204323 [Eh]
	 SCS Correlation Energy    =      -2.0124414183173487 [Eh]
	 SCS Total Energy          =    -472.8397587426173914 [Eh]
	-----------------------------------------------------------

  Dipole Moment: [D]
     X:     1.4454      Y:    -0.0079      Z:     0.0496     Total:     1.4462

*** Psi4 exiting successfully. Buy a developer a beer!
