                               Psi4 1.3.2 release

  ==> Input File <==

--------------------------------------------------------------------------
#psi4
#
memory 32 gb

molecule  {
0 1
  O       -1.2482290     1.5306510     0.0000030
  N        1.4640540     0.4968240    -0.0000070
  N        0.6053200    -1.5732460     0.0000100
  N       -1.9984820    -0.6503890    -0.0000010
  C        0.3259400    -0.2627350     0.0000100
  C        2.5213300    -0.3786110    -0.0000100
  C        1.5711040     1.9546380     0.0000020
  C       -1.0383329     0.3066699    -0.2999980
  C        1.9690460    -1.6456460     0.0000000
  C       -3.4103270    -0.3314980    -0.0000060
  H        3.5447240    -0.0301030    -0.0000120
  H        1.0842430     2.3633630    -0.8839110
  H        1.0842880     2.3633490     0.8839480
  H        2.6322840     2.2067670    -0.0000220
  H        2.4866360    -2.5959740    -0.0000050
  H       -1.6732310    -1.6118380    -0.0000010
  H       -3.9026090    -0.7325290     0.8908020
  H       -3.9026030    -0.7325320    -0.8908160
  H       -3.4966990     0.7550430    -0.0000090
units angstrom
no_reorient  #important for SAPT in psi4, default
symmetry c1  #important for SAPT in psi4, default
}

set PROPERTIES_ORIGIN ["COM"]
properties('MP2/aug-cc-pvtz', properties = ['dipole'])
--------------------------------------------------------------------------

    Molecular point group: c1
  Charge       = 0
  Multiplicity = 1
  Basis Set: AUG-CC-PVTZ
    Blend: AUG-CC-PVTZ
  Basis Set: (AUG-CC-PVTZ AUX)
    Blend: AUG-CC-PVTZ-JKFIT

    Orbital Energies [Eh]
    ---------------------

    Doubly Occupied:

       1A    -20.528946     2A    -15.636532     3A    -15.588083
       4A    -15.564146     5A    -11.374039     6A    -11.309439
       7A    -11.274512     8A    -11.272013     9A    -11.257509
      10A    -11.255120    11A     -1.370312    12A     -1.340974
      13A     -1.224956    14A     -1.189451    15A     -1.031984
      16A     -0.977711    17A     -0.947098    18A     -0.836798
      19A     -0.813671    20A     -0.767064    21A     -0.731402
      22A     -0.661155    23A     -0.651786    24A     -0.638904
      25A     -0.616607    26A     -0.603557    27A     -0.594253
      28A     -0.578227    29A     -0.562876    30A     -0.556906
      31A     -0.543566    32A     -0.522895    33A     -0.456906
      34A     -0.431470    35A     -0.397346    36A     -0.384667
      37A     -0.320854

  @DF-RHF Final Energy:  -470.79183725694463

   => Energetics <=

    Nuclear Repulsion Energy =            525.6222191706442572
    One-Electron Energy =               -1683.2006390942144662
    Two-Electron Energy =                 686.7865826666255771
    Total Energy =                       -470.7918372569446319
  Basis Set: (AUG-CC-PVTZ AUX)
    Blend: AUG-CC-PVTZ-RI
    Molecular point group: c1

    Geometry (in Angstrom), charge = 0, multiplicity = 1:

       Center              X                  Y                   Z               Mass
    ------------   -----------------  -----------------  -----------------  -----------------
         O           -1.263564479230     1.544910490581     0.025888209795    15.994914619570
         N            1.448718520770     0.511083490581     0.025878209795    14.003074004430
         N            0.589984520770    -1.558986509419     0.025895209795    14.003074004430
         N           -2.013817479230    -0.636129509419     0.025884209795    14.003074004430
         C            0.310604520770    -0.248475509419     0.025895209795    12.000000000000
         C            2.505994520770    -0.364351509419     0.025875209795    12.000000000000
         C            1.555768520770     1.968897490581     0.025887209795    12.000000000000
         C           -1.053668379230     0.320929390581    -0.274112790205    12.000000000000
         C            1.953710520770    -1.631386509419     0.025885209795    12.000000000000
         C           -3.425662479230    -0.317238509419     0.025879209795    12.000000000000
         H            3.529388520770    -0.015843509419     0.025873209795     1.007825032230
         H            1.068907520770     2.377622490581    -0.858025790205     1.007825032230
         H            1.068952520770     2.377608490581     0.909833209795     1.007825032230
         H            2.616948520770     2.221026490581     0.025863209795     1.007825032230
         H            2.471300520770    -2.581714509419     0.025880209795     1.007825032230
         H           -1.688566479230    -1.597578509419     0.025884209795     1.007825032230
         H           -3.917944479230    -0.718269509419     0.916687209795     1.007825032230
         H           -3.917938479230    -0.718272509419    -0.864930790205     1.007825032230
         H           -3.512034479230     0.769302490581     0.025876209795     1.007825032230

  Basis Set: AUG-CC-PVTZ
    Blend: AUG-CC-PVTZ
  Basis Set: (AUG-CC-PVTZ AUX)
    Blend: AUG-CC-PVTZ-JKFIT
	 Reference Energy          =    -470.7918372569446319 [Eh]
	 Singles Energy            =      -0.0000000000000000 [Eh]
	 Same-Spin Energy          =      -0.5019730212606555 [Eh]
	 Opposite-Spin Energy      =      -1.5440507794708780 [Eh]
	 Correlation Energy        =      -2.0460238007315334 [Eh]
	 Total Energy              =    -472.8378610576761503 [Eh]

	 ================> DF-SCS-MP2 Energies <==================
	-----------------------------------------------------------
	 SCS Same-Spin Scale       =       0.3333333333333333 [-]
	 SCS Opposite-Spin Scale   =       1.2000000000000000 [-]
	 SCS Same-Spin Energy      =      -0.1673243404202185 [Eh]
	 SCS Opposite-Spin Energy  =      -1.8528609353650536 [Eh]
	 SCS Correlation Energy    =      -2.0201852757852721 [Eh]
	 SCS Total Energy          =    -472.8120225327298840 [Eh]
	-----------------------------------------------------------

  Dipole Moment: [D]
     X:     1.3194      Y:     0.0599      Z:    -0.2418     Total:     1.3427

*** Psi4 exiting successfully. Buy a developer a beer!
