                               Psi4 1.3.2 release

  ==> Input File <==

--------------------------------------------------------------------------
#psi4
#
memory 32 gb

molecule  {
0 1
  O       -1.2482290     1.5306510     0.0000030
  N        1.4640540     0.4968240    -0.0000070
  N        0.6053200    -1.5732460     0.0000100
  N       -1.9984820    -0.6503890    -0.0000010
  C        0.3259386    -0.2627351     0.3000100
  C        2.5213300    -0.3786110    -0.0000100
  C        1.5711040     1.9546380     0.0000020
  C       -1.0383320     0.3066720     0.0000020
  C        1.9690460    -1.6456460     0.0000000
  C       -3.4103270    -0.3314980    -0.0000060
  H        3.5447240    -0.0301030    -0.0000120
  H        1.0842430     2.3633630    -0.8839110
  H        1.0842880     2.3633490     0.8839480
  H        2.6322840     2.2067670    -0.0000220
  H        2.4866360    -2.5959740    -0.0000050
  H       -1.6732310    -1.6118380    -0.0000010
  H       -3.9026090    -0.7325290     0.8908020
  H       -3.9026030    -0.7325320    -0.8908160
  H       -3.4966990     0.7550430    -0.0000090
units angstrom
no_reorient  #important for SAPT in psi4, default
symmetry c1  #important for SAPT in psi4, default
}

set PROPERTIES_ORIGIN ["COM"]
properties('MP2/aug-cc-pvtz', properties = ['dipole'])
--------------------------------------------------------------------------

    Molecular point group: c1
  Charge       = 0
  Multiplicity = 1
  Basis Set: AUG-CC-PVTZ
    Blend: AUG-CC-PVTZ
  Basis Set: (AUG-CC-PVTZ AUX)
    Blend: AUG-CC-PVTZ-JKFIT

    Orbital Energies [Eh]
    ---------------------

    Doubly Occupied:

       1A    -20.519760     2A    -15.640367     3A    -15.582104
       4A    -15.574064     5A    -11.361118     6A    -11.307095
       7A    -11.278866     8A    -11.273596     9A    -11.258298
      10A    -11.256686    11A     -1.377102    12A     -1.339850
      13A     -1.231315    14A     -1.185972    15A     -1.032187
      16A     -0.976756    17A     -0.946752    18A     -0.834125
      19A     -0.806308    20A     -0.771571    21A     -0.731187
      22A     -0.662300    23A     -0.649770    24A     -0.643147
      25A     -0.618617    26A     -0.605385    27A     -0.592307
      28A     -0.577756    29A     -0.562458    30A     -0.556423
      31A     -0.544032    32A     -0.524645    33A     -0.458751
      34A     -0.430578    35A     -0.394267    36A     -0.385433
      37A     -0.325025

  @DF-RHF Final Energy:  -470.80378654581909

   => Energetics <=

    Nuclear Repulsion Energy =            525.6698427830854143
    One-Electron Energy =               -1683.3153193988582643
    Two-Electron Energy =                 686.8416900699537564
    Total Energy =                       -470.8037865458190936
  Basis Set: (AUG-CC-PVTZ AUX)
    Blend: AUG-CC-PVTZ-RI
    Molecular point group: c1

    Geometry (in Angstrom), charge = 0, multiplicity = 1:

       Center              X                  Y                   Z               Mass
    ------------   -----------------  -----------------  -----------------  -----------------
         O           -1.263564436088     1.544910318012    -0.025882580639    15.994914619570
         N            1.448718563912     0.511083318012    -0.025892580639    14.003074004430
         N            0.589984563912    -1.558986681988    -0.025875580639    14.003074004430
         N           -2.013817436088    -0.636129681988    -0.025886580639    14.003074004430
         C            0.310603163912    -0.248475781988     0.274124419361    12.000000000000
         C            2.505994563912    -0.364351681988    -0.025895580639    12.000000000000
         C            1.555768563912     1.968897318012    -0.025883580639    12.000000000000
         C           -1.053667436088     0.320931318012    -0.025883580639    12.000000000000
         C            1.953710563912    -1.631386681988    -0.025885580639    12.000000000000
         C           -3.425662436088    -0.317238681988    -0.025891580639    12.000000000000
         H            3.529388563912    -0.015843681988    -0.025897580639     1.007825032230
         H            1.068907563912     2.377622318012    -0.909796580639     1.007825032230
         H            1.068952563912     2.377608318012     0.858062419361     1.007825032230
         H            2.616948563912     2.221026318012    -0.025907580639     1.007825032230
         H            2.471300563912    -2.581714681988    -0.025890580639     1.007825032230
         H           -1.688566436088    -1.597578681988    -0.025886580639     1.007825032230
         H           -3.917944436088    -0.718269681988     0.864916419361     1.007825032230
         H           -3.917938436088    -0.718272681988    -0.916701580639     1.007825032230
         H           -3.512034436088     0.769302318012    -0.025894580639     1.007825032230

  Basis Set: AUG-CC-PVTZ
    Blend: AUG-CC-PVTZ
  Basis Set: (AUG-CC-PVTZ AUX)
    Blend: AUG-CC-PVTZ-JKFIT
	 Reference Energy          =    -470.8037865458190936 [Eh]
	 Singles Energy            =      -0.0000000000000000 [Eh]
	 Same-Spin Energy          =      -0.5014875311898821 [Eh]
	 Opposite-Spin Energy      =      -1.5419880629286438 [Eh]
	 Correlation Energy        =      -2.0434755941185259 [Eh]
	 Total Energy              =    -472.8472621399376408 [Eh]

	 ================> DF-SCS-MP2 Energies <==================
	-----------------------------------------------------------
	 SCS Same-Spin Scale       =       0.3333333333333333 [-]
	 SCS Opposite-Spin Scale   =       1.2000000000000000 [-]
	 SCS Same-Spin Energy      =      -0.1671625103966274 [Eh]
	 SCS Opposite-Spin Energy  =      -1.8503856755143724 [Eh]
	 SCS Correlation Energy    =      -2.0175481859109996 [Eh]
	 SCS Total Energy          =    -472.8213347317300759 [Eh]
	-----------------------------------------------------------

  Dipole Moment: [D]
     X:     1.5802      Y:    -0.0670      Z:     0.0742     Total:     1.5833

*** Psi4 exiting successfully. Buy a developer a beer!
