                               Psi4 1.3.2 release

  ==> Input File <==

--------------------------------------------------------------------------
#psi4
#
memory 32 gb

molecule  {
0 1
  O       -1.2482290     1.5306510     0.0000030
  N        1.4640540     0.4968240    -0.0000070
  N        0.6053200    -1.5732460     0.0000100
  N       -1.9984820    -0.6503890    -0.0000010
  C        0.3259400    -0.2627350     0.0000100
  C        2.5213300    -0.3786110    -0.0000100
  C        1.5711040     1.9546380     0.0000020
  C       -1.0383320     0.3066720     0.0000020
  C        1.9690460    -1.6456460     0.0000000
  C       -3.4103270    -0.3314980    -0.0000060
  H        3.5447249    -0.0301020     0.2499880
  H        1.0842430     2.3633630    -0.8839110
  H        1.0842880     2.3633490     0.8839480
  H        2.6322840     2.2067670    -0.0000220
  H        2.4866360    -2.5959740    -0.0000050
  H       -1.6732310    -1.6118380    -0.0000010
  H       -3.9026090    -0.7325290     0.8908020
  H       -3.9026030    -0.7325320    -0.8908160
  H       -3.4966990     0.7550430    -0.0000090
units angstrom
no_reorient  #important for SAPT in psi4, default
symmetry c1  #important for SAPT in psi4, default
}

set PROPERTIES_ORIGIN ["COM"]
properties('MP2/aug-cc-pvtz', properties = ['dipole'])
--------------------------------------------------------------------------

    Molecular point group: c1
  Charge       = 0
  Multiplicity = 1
  Basis Set: AUG-CC-PVTZ
    Blend: AUG-CC-PVTZ
  Basis Set: (AUG-CC-PVTZ AUX)
    Blend: AUG-CC-PVTZ-JKFIT

    Orbital Energies [Eh]
    ---------------------

    Doubly Occupied:

       1A    -20.522692     2A    -15.637837     3A    -15.585227
       4A    -15.565853     5A    -11.362564     6A    -11.305738
       7A    -11.274675     8A    -11.274264     9A    -11.258584
      10A    -11.256247    11A     -1.382047    12A     -1.346674
      13A     -1.234979    14A     -1.190979    15A     -1.035547
      16A     -0.979399    17A     -0.950355    18A     -0.840983
      19A     -0.812322    20A     -0.772892    21A     -0.734341
      22A     -0.660263    23A     -0.653176    24A     -0.644767
      25A     -0.619450    26A     -0.604270    27A     -0.594087
      28A     -0.583085    29A     -0.563672    30A     -0.559589
      31A     -0.545937    32A     -0.529823    33A     -0.458085
      34A     -0.434188    35A     -0.399333    36A     -0.389124
      37A     -0.323391

  @DF-RHF Final Energy:  -470.83163684877411

   => Energetics <=

    Nuclear Repulsion Energy =            527.0207100039760917
    One-Electron Energy =               -1685.9318113526267098
    Two-Electron Energy =                 688.0794644998765079
    Total Energy =                       -470.8316368487741101
  Basis Set: (AUG-CC-PVTZ AUX)
    Blend: AUG-CC-PVTZ-RI
    Molecular point group: c1

    Geometry (in Angstrom), charge = 0, multiplicity = 1:

       Center              X                  Y                   Z               Mass
    ------------   -----------------  -----------------  -----------------  -----------------
         O           -1.263564563408     1.544910302137    -0.001808848565    15.994914619570
         N            1.448718436592     0.511083302137    -0.001818848565    14.003074004430
         N            0.589984436592    -1.558986697863    -0.001801848565    14.003074004430
         N           -2.013817563408    -0.636129697863    -0.001812848565    14.003074004430
         C            0.310604436592    -0.248475697863    -0.001801848565    12.000000000000
         C            2.505994436592    -0.364351697863    -0.001821848565    12.000000000000
         C            1.555768436592     1.968897302137    -0.001809848565    12.000000000000
         C           -1.053667563408     0.320931302137    -0.001809848565    12.000000000000
         C            1.953710436592    -1.631386697863    -0.001811848565    12.000000000000
         C           -3.425662563408    -0.317238697863    -0.001817848565    12.000000000000
         H            3.529389336592    -0.015842697863     0.248176151435     1.007825032230
         H            1.068907436592     2.377622302137    -0.885722848565     1.007825032230
         H            1.068952436592     2.377608302137     0.882136151435     1.007825032230
         H            2.616948436592     2.221026302137    -0.001833848565     1.007825032230
         H            2.471300436592    -2.581714697863    -0.001816848565     1.007825032230
         H           -1.688566563408    -1.597578697863    -0.001812848565     1.007825032230
         H           -3.917944563408    -0.718269697863     0.888990151435     1.007825032230
         H           -3.917938563408    -0.718272697863    -0.892627848565     1.007825032230
         H           -3.512034563408     0.769302302137    -0.001820848565     1.007825032230

  Basis Set: AUG-CC-PVTZ
    Blend: AUG-CC-PVTZ
  Basis Set: (AUG-CC-PVTZ AUX)
    Blend: AUG-CC-PVTZ-JKFIT
	 Reference Energy          =    -470.8316368487741101 [Eh]
	 Singles Energy            =      -0.0000000000000000 [Eh]
	 Same-Spin Energy          =      -0.4995595173532972 [Eh]
	 Opposite-Spin Energy      =      -1.5376058995767454 [Eh]
	 Correlation Energy        =      -2.0371654169300424 [Eh]
	 Total Energy              =    -472.8688022657041756 [Eh]

	 ================> DF-SCS-MP2 Energies <==================
	-----------------------------------------------------------
	 SCS Same-Spin Scale       =       0.3333333333333333 [-]
	 SCS Opposite-Spin Scale   =       1.2000000000000000 [-]
	 SCS Same-Spin Energy      =      -0.1665198391177657 [Eh]
	 SCS Opposite-Spin Energy  =      -1.8451270794920944 [Eh]
	 SCS Correlation Energy    =      -2.0116469186098600 [Eh]
	 SCS Total Energy          =    -472.8432837673839799 [Eh]
	-----------------------------------------------------------

  Dipole Moment: [D]
     X:     1.3332      Y:    -0.0076      Z:     0.2097     Total:     1.3496

*** Psi4 exiting successfully. Buy a developer a beer!
