                               Psi4 1.3.2 release

  ==> Input File <==

--------------------------------------------------------------------------
#psi4
#
memory 32 gb

molecule  {
0 1
  O        0.0007480    -0.5952090    -0.1877880
  O        1.3565350     1.0092090     0.6922610
  C       -1.1649080     0.1839100     0.2068510
  C       -1.4179200     1.2632690    -0.8279250
  C       -2.2926420    -0.8179640     0.3227230
  C        1.2071900    -0.0583260     0.1211490
  C        2.3163877    -0.9399726    -0.3944075
  H       -0.9474970     0.6396690     1.1762190
  H       -2.3155240     1.8326500    -0.5690360
  H       -0.5734580     1.9518970    -0.8732450
  H       -1.5650280     0.8097800    -1.8115960
  H       -3.2117410    -0.3160520     0.6373810
  H       -2.0484320    -1.5899530     1.0551950
  H       -2.4714270    -1.2985150    -0.6417240
  H        2.2239110    -1.2047570    -1.3723200
  H        2.2280730    -1.9316170     0.2368100
  H        3.2753640    -0.5218720    -0.0948010
units angstrom
no_reorient  #important for SAPT in psi4, default
symmetry c1  #important for SAPT in psi4, default
}

set PROPERTIES_ORIGIN ["COM"]
properties('MP2/aug-cc-pvtz', properties = ['dipole'])
--------------------------------------------------------------------------

    Molecular point group: c1
  Charge       = 0
  Multiplicity = 1
  Basis Set: AUG-CC-PVTZ
    Blend: AUG-CC-PVTZ
  Basis Set: (AUG-CC-PVTZ AUX)
    Blend: AUG-CC-PVTZ-JKFIT

    Orbital Energies [Eh]
    ---------------------

    Doubly Occupied:

       1A    -20.596755     2A    -20.542056     3A    -11.382010
       4A    -11.290656     5A    -11.241882     6A    -11.221269
       7A    -11.217274     8A     -1.449003     9A     -1.350545
      10A     -1.075682    11A     -1.006703    12A     -0.945715
      13A     -0.837482    14A     -0.765488    15A     -0.694858
      16A     -0.667348    17A     -0.654430    18A     -0.606760
      19A     -0.600898    20A     -0.578276    21A     -0.553398
      22A     -0.545152    23A     -0.533014    24A     -0.516848
      25A     -0.501175    26A     -0.482276    27A     -0.452817
      28A     -0.441695

  @DF-RHF Final Energy:  -345.03214086164439

   => Energetics <=

    Nuclear Repulsion Energy =            321.1501049387471767
    One-Electron Energy =               -1106.8615616287677312
    Two-Electron Energy =                 440.6793158283761613
    Total Energy =                       -345.0321408616443932
  Basis Set: (AUG-CC-PVTZ AUX)
    Blend: AUG-CC-PVTZ-RI
    Molecular point group: c1

    Geometry (in Angstrom), charge = 0, multiplicity = 1:

       Center              X                  Y                   Z               Mass
    ------------   -----------------  -----------------  -----------------  -----------------
         O            0.000367284880    -0.600611044176    -0.177352901633    15.994914619570
         O            1.356154284880     1.003806955824     0.702696098367    15.994914619570
         C           -1.165288715120     0.178507955824     0.217286098367    12.000000000000
         C           -1.418300715120     1.257866955824    -0.817489901633    12.000000000000
         C           -2.293022715120    -0.823366044176     0.333158098367    12.000000000000
         C            1.206809284880    -0.063728044176     0.131584098367    12.000000000000
         C            2.316006984880    -0.945374644176    -0.383972401633    12.000000000000
         H           -0.947877715120     0.634266955824     1.186654098367     1.007825032230
         H           -2.315904715120     1.827247955824    -0.558600901633     1.007825032230
         H           -0.573838715120     1.946494955824    -0.862809901633     1.007825032230
         H           -1.565408715120     0.804377955824    -1.801160901633     1.007825032230
         H           -3.212121715120    -0.321454044176     0.647816098367     1.007825032230
         H           -2.048812715120    -1.595355044176     1.065630098367     1.007825032230
         H           -2.471807715120    -1.303917044176    -0.631288901633     1.007825032230
         H            2.223530284880    -1.210159044176    -1.361884901633     1.007825032230
         H            2.227692284880    -1.937019044176     0.247245098367     1.007825032230
         H            3.274983284880    -0.527274044176    -0.084365901633     1.007825032230

  Basis Set: AUG-CC-PVTZ
    Blend: AUG-CC-PVTZ
  Basis Set: (AUG-CC-PVTZ AUX)
    Blend: AUG-CC-PVTZ-JKFIT
	 Reference Energy          =    -345.0321408616443932 [Eh]
	 Singles Energy            =      -0.0000000000000000 [Eh]
	 Same-Spin Energy          =      -0.3415812766816329 [Eh]
	 Opposite-Spin Energy      =      -1.1325950313992905 [Eh]
	 Correlation Energy        =      -1.4741763080809234 [Eh]
	 Total Energy              =    -346.5063171697253210 [Eh]

	 ================> DF-SCS-MP2 Energies <==================
	-----------------------------------------------------------
	 SCS Same-Spin Scale       =       0.3333333333333333 [-]
	 SCS Opposite-Spin Scale   =       1.2000000000000000 [-]
	 SCS Same-Spin Energy      =      -0.1138604255605443 [Eh]
	 SCS Opposite-Spin Energy  =      -1.3591140376791486 [Eh]
	 SCS Correlation Energy    =      -1.4729744632396928 [Eh]
	 SCS Total Energy          =    -346.5051153248840592 [Eh]
	-----------------------------------------------------------

  Dipole Moment: [D]
     X:    -0.9919      Y:    -1.3574      Z:    -0.7701     Total:     1.8492

*** Psi4 exiting successfully. Buy a developer a beer!
