                               Psi4 1.3.2 release

  ==> Input File <==

--------------------------------------------------------------------------
#psi4
#
memory 32 gb

molecule  {
0 1
  O        0.0007480    -0.5952090    -0.1877880
  O        1.3565350     1.0092090     0.6922610
  C       -1.1649080     0.1839100     0.2068510
  C       -1.4179200     1.2632690    -0.8279250
  C       -2.2926420    -0.8179640     0.3227230
  C        1.2071900    -0.0583260     0.1211490
  C        2.3196273    -0.8940242    -0.4831670
  H       -0.9474970     0.6396690     1.1762190
  H       -2.3155240     1.8326500    -0.5690360
  H       -0.5734580     1.9518970    -0.8732450
  H       -1.5650280     0.8097800    -1.8115960
  H       -3.2117410    -0.3160520     0.6373810
  H       -2.0484320    -1.5899530     1.0551950
  H       -2.4714270    -1.2985150    -0.6417240
  H        2.2239110    -1.2047570    -1.3723200
  H        2.2280730    -1.9316170     0.2368100
  H        3.2753640    -0.5218720    -0.0948010
units angstrom
no_reorient  #important for SAPT in psi4, default
symmetry c1  #important for SAPT in psi4, default
}

set PROPERTIES_ORIGIN ["COM"]
properties('MP2/aug-cc-pvtz', properties = ['dipole'])
--------------------------------------------------------------------------

    Molecular point group: c1
  Charge       = 0
  Multiplicity = 1
  Basis Set: AUG-CC-PVTZ
    Blend: AUG-CC-PVTZ
  Basis Set: (AUG-CC-PVTZ AUX)
    Blend: AUG-CC-PVTZ-JKFIT

    Orbital Energies [Eh]
    ---------------------

    Doubly Occupied:

       1A    -20.596844     2A    -20.542695     3A    -11.384518
       4A    -11.290768     5A    -11.246387     6A    -11.221252
       7A    -11.217538     8A     -1.449281     9A     -1.351057
      10A     -1.075729    11A     -1.008355    12A     -0.945844
      13A     -0.838941    14A     -0.766323    15A     -0.704685
      16A     -0.669749    17A     -0.654470    18A     -0.615147
      19A     -0.605168    20A     -0.575798    21A     -0.552023
      22A     -0.542305    23A     -0.526980    24A     -0.512115
      25A     -0.496181    26A     -0.481032    27A     -0.452644
      28A     -0.439940

  @DF-RHF Final Energy:  -345.00272114722935

   => Energetics <=

    Nuclear Repulsion Energy =            321.0545541388504489
    One-Electron Energy =               -1106.5870151415294913
    Two-Electron Energy =                 440.5297398554496908
    Total Energy =                       -345.0027211472293516
  Basis Set: (AUG-CC-PVTZ AUX)
    Blend: AUG-CC-PVTZ-RI
    Molecular point group: c1

    Geometry (in Angstrom), charge = 0, multiplicity = 1:

       Center              X                  Y                   Z               Mass
    ------------   -----------------  -----------------  -----------------  -----------------
         O           -0.000013590318    -0.606013132688    -0.166917572541    15.994914619570
         O            1.355773409682     0.998404867312     0.713131427459    15.994914619570
         C           -1.165669590318     0.173105867312     0.227721427459    12.000000000000
         C           -1.418681590318     1.252464867312    -0.807054572541    12.000000000000
         C           -2.293403590318    -0.828768132688     0.343593427459    12.000000000000
         C            1.206428409682    -0.069130132688     0.142019427459    12.000000000000
         C            2.318865709682    -0.904828332688    -0.462296572541    12.000000000000
         H           -0.948258590318     0.628864867312     1.197089427459     1.007825032230
         H           -2.316285590318     1.821845867312    -0.548165572541     1.007825032230
         H           -0.574219590318     1.941092867312    -0.852374572541     1.007825032230
         H           -1.565789590318     0.798975867312    -1.790725572541     1.007825032230
         H           -3.212502590318    -0.326856132688     0.658251427459     1.007825032230
         H           -2.049193590318    -1.600757132688     1.076065427459     1.007825032230
         H           -2.472188590318    -1.309319132688    -0.620853572541     1.007825032230
         H            2.223149409682    -1.215561132688    -1.351449572541     1.007825032230
         H            2.227311409682    -1.942421132688     0.257680427459     1.007825032230
         H            3.274602409682    -0.532676132688    -0.073930572541     1.007825032230

  Basis Set: AUG-CC-PVTZ
    Blend: AUG-CC-PVTZ
  Basis Set: (AUG-CC-PVTZ AUX)
    Blend: AUG-CC-PVTZ-JKFIT
	 Reference Energy          =    -345.0027211472293516 [Eh]
	 Singles Energy            =      -0.0000000000000000 [Eh]
	 Same-Spin Energy          =      -0.3419590759630630 [Eh]
	 Opposite-Spin Energy      =      -1.1338810465725089 [Eh]
	 Correlation Energy        =      -1.4758401225355717 [Eh]
	 Total Energy              =    -346.4785612697648958 [Eh]

	 ================> DF-SCS-MP2 Energies <==================
	-----------------------------------------------------------
	 SCS Same-Spin Scale       =       0.3333333333333333 [-]
	 SCS Opposite-Spin Scale   =       1.2000000000000000 [-]
	 SCS Same-Spin Energy      =      -0.1139863586543543 [Eh]
	 SCS Opposite-Spin Energy  =      -1.3606572558870107 [Eh]
	 SCS Correlation Energy    =      -1.4746436145413651 [Eh]
	 SCS Total Energy          =    -346.4773647617707297 [Eh]
	-----------------------------------------------------------

  Dipole Moment: [D]
     X:    -0.9957      Y:    -1.3252      Z:    -0.7788     Total:     1.8314

*** Psi4 exiting successfully. Buy a developer a beer!
