                               Psi4 1.3.2 release

  ==> Input File <==

--------------------------------------------------------------------------
#psi4
#
memory 32 gb

molecule  {
0 1
  O        0.0007480    -0.5952090    -0.1877880
  O        1.3565350     1.0092090     0.6922610
  C       -1.1649080     0.1839100     0.2068510
  C       -1.4179200     1.2632690    -0.8279250
  C       -2.2926420    -0.8179640     0.3227230
  C        1.2071900    -0.0583260     0.1211490
  C        2.3147678    -0.9629468    -0.3500278
  H       -0.9474970     0.6396690     1.1762190
  H       -2.3155240     1.8326500    -0.5690360
  H       -0.5734580     1.9518970    -0.8732450
  H       -1.5650280     0.8097800    -1.8115960
  H       -3.2117410    -0.3160520     0.6373810
  H       -2.0484320    -1.5899530     1.0551950
  H       -2.4714270    -1.2985150    -0.6417240
  H        2.2239110    -1.2047570    -1.3723200
  H        2.2280730    -1.9316170     0.2368100
  H        3.2753640    -0.5218720    -0.0948010
units angstrom
no_reorient  #important for SAPT in psi4, default
symmetry c1  #important for SAPT in psi4, default
}

set PROPERTIES_ORIGIN ["COM"]
properties('MP2/aug-cc-pvtz', properties = ['dipole'])
--------------------------------------------------------------------------

    Molecular point group: c1
  Charge       = 0
  Multiplicity = 1
  Basis Set: AUG-CC-PVTZ
    Blend: AUG-CC-PVTZ
  Basis Set: (AUG-CC-PVTZ AUX)
    Blend: AUG-CC-PVTZ-JKFIT

    Orbital Energies [Eh]
    ---------------------

    Doubly Occupied:

       1A    -20.596763     2A    -20.541947     3A    -11.381364
       4A    -11.290647     5A    -11.240687     6A    -11.221305
       7A    -11.217178     8A     -1.448952     9A     -1.350440
      10A     -1.075674    11A     -1.006259    12A     -0.945684
      13A     -0.837152    14A     -0.765298    15A     -0.692617
      16A     -0.666154    17A     -0.654346    18A     -0.608299
      19A     -0.592442    20A     -0.579248    21A     -0.556568
      22A     -0.547448    23A     -0.534742    24A     -0.517899
      25A     -0.501697    26A     -0.482555    27A     -0.452789
      28A     -0.442164

  @DF-RHF Final Energy:  -345.03951597122824

   => Energetics <=

    Nuclear Repulsion Energy =            321.1665799655195315
    One-Electron Energy =               -1106.9155563567842364
    Two-Electron Energy =                 440.7094604200364643
    Total Energy =                       -345.0395159712282407
  Basis Set: (AUG-CC-PVTZ AUX)
    Blend: AUG-CC-PVTZ-RI
    Molecular point group: c1

    Geometry (in Angstrom), charge = 0, multiplicity = 1:

       Center              X                  Y                   Z               Mass
    ------------   -----------------  -----------------  -----------------  -----------------
         O            0.000557734235    -0.597909999920    -0.182570560300    15.994914619570
         O            1.356344734235     1.006508000080     0.697478439700    15.994914619570
         C           -1.165098265765     0.181209000080     0.212068439700    12.000000000000
         C           -1.418110265765     1.260568000080    -0.822707560300    12.000000000000
         C           -2.292832265765    -0.820664999920     0.327940439700    12.000000000000
         C            1.206999734235    -0.061026999920     0.126366439700    12.000000000000
         C            2.314577534235    -0.965647799920    -0.344810360300    12.000000000000
         H           -0.947687265765     0.636968000080     1.181436439700     1.007825032230
         H           -2.315714265765     1.829949000080    -0.563818560300     1.007825032230
         H           -0.573648265765     1.949196000080    -0.868027560300     1.007825032230
         H           -1.565218265765     0.807079000080    -1.806378560300     1.007825032230
         H           -3.211931265765    -0.318752999920     0.642598439700     1.007825032230
         H           -2.048622265765    -1.592653999920     1.060412439700     1.007825032230
         H           -2.471617265765    -1.301215999920    -0.636506560300     1.007825032230
         H            2.223720734235    -1.207457999920    -1.367102560300     1.007825032230
         H            2.227882734235    -1.934317999920     0.242027439700     1.007825032230
         H            3.275173734235    -0.524572999920    -0.089583560300     1.007825032230

  Basis Set: AUG-CC-PVTZ
    Blend: AUG-CC-PVTZ
  Basis Set: (AUG-CC-PVTZ AUX)
    Blend: AUG-CC-PVTZ-JKFIT
	 Reference Energy          =    -345.0395159712282407 [Eh]
	 Singles Energy            =      -0.0000000000000000 [Eh]
	 Same-Spin Energy          =      -0.3414900421285693 [Eh]
	 Opposite-Spin Energy      =      -1.1322945449349677 [Eh]
	 Correlation Energy        =      -1.4737845870635371 [Eh]
	 Total Energy              =    -346.5133005582918031 [Eh]

	 ================> DF-SCS-MP2 Energies <==================
	-----------------------------------------------------------
	 SCS Same-Spin Scale       =       0.3333333333333333 [-]
	 SCS Opposite-Spin Scale   =       1.2000000000000000 [-]
	 SCS Same-Spin Energy      =      -0.1138300140428564 [Eh]
	 SCS Opposite-Spin Energy  =      -1.3587534539219612 [Eh]
	 SCS Correlation Energy    =      -1.4725834679648178 [Eh]
	 SCS Total Energy          =    -346.5120994391930367 [Eh]
	-----------------------------------------------------------

  Dipole Moment: [D]
     X:    -0.9934      Y:    -1.3679      Z:    -0.7613     Total:     1.8541

*** Psi4 exiting successfully. Buy a developer a beer!
