                               Psi4 1.3.2 release

  ==> Input File <==

--------------------------------------------------------------------------
#psi4
#
memory 32 gb

molecule  {
0 1
  O        0.0007480    -0.5952090    -0.1877880
  O        1.3565350     1.0092090     0.6922610
  C       -1.1649080     0.1839100     0.2068510
  C       -1.4179200     1.2632690    -0.8279250
  C       -2.2926420    -0.8179640     0.3227230
  C        1.2071900    -0.0583260     0.1211490
  C        2.3131480    -0.9859210    -0.3056480
  H       -0.9474970     0.6396690     1.1762190
  H       -2.3155240     1.8326500    -0.5690360
  H       -0.5734580     1.9518970    -0.8732450
  H       -1.5650280     0.8097800    -1.8115960
  H       -3.2117410    -0.3160520     0.6373810
  H       -2.0484320    -1.5899530     1.0551950
  H       -2.4714270    -1.2985150    -0.6417240
  H        2.2239110    -1.2047570    -1.3723200
  H        2.2280730    -1.9316170     0.2368100
  H        3.2753640    -0.5218720    -0.0948010
units angstrom
no_reorient  #important for SAPT in psi4, default
symmetry c1  #important for SAPT in psi4, default
}

set PROPERTIES_ORIGIN ["COM"]
properties('MP2/aug-cc-pvtz', properties = ['dipole'])
--------------------------------------------------------------------------

    Molecular point group: c1
  Charge       = 0
  Multiplicity = 1
  Basis Set: AUG-CC-PVTZ
    Blend: AUG-CC-PVTZ
  Basis Set: (AUG-CC-PVTZ AUX)
    Blend: AUG-CC-PVTZ-JKFIT

    Orbital Energies [Eh]
    ---------------------

    Doubly Occupied:

       1A    -20.596806     2A    -20.541986     3A    -11.381143
       4A    -11.290668     5A    -11.240202     6A    -11.221360
       7A    -11.217109     8A     -1.448962     9A     -1.350442
      10A     -1.075675    11A     -1.006051    12A     -0.945677
      13A     -0.837074    14A     -0.765238    15A     -0.692088
      16A     -0.665210    17A     -0.654315    18A     -0.611047
      19A     -0.585626    20A     -0.578318    21A     -0.561962
      22A     -0.548348    23A     -0.534264    24A     -0.518254
      25A     -0.501644    26A     -0.482765    27A     -0.452724
      28A     -0.442441

  @DF-RHF Final Energy:  -345.04191620428628

   => Energetics <=

    Nuclear Repulsion Energy =            321.1625756930601483
    One-Electron Energy =               -1106.9141801857899736
    Two-Electron Energy =                 440.7096882884435445
    Total Energy =                       -345.0419162042862808
  Basis Set: (AUG-CC-PVTZ AUX)
    Blend: AUG-CC-PVTZ-RI
    Molecular point group: c1

    Geometry (in Angstrom), charge = 0, multiplicity = 1:

       Center              X                  Y                   Z               Mass
    ------------   -----------------  -----------------  -----------------  -----------------
         O            0.000748171834    -0.595208955664    -0.187788230724    15.994914619570
         O            1.356535171834     1.009209044336     0.692260769276    15.994914619570
         C           -1.164907828166     0.183910044336     0.206850769276    12.000000000000
         C           -1.417919828166     1.263269044336    -0.827925230724    12.000000000000
         C           -2.292641828166    -0.817963955664     0.322722769276    12.000000000000
         C            1.207190171834    -0.058325955664     0.121148769276    12.000000000000
         C            2.313148171834    -0.985920955664    -0.305648230724    12.000000000000
         H           -0.947496828166     0.639669044336     1.176218769276     1.007825032230
         H           -2.315523828166     1.832650044336    -0.569036230724     1.007825032230
         H           -0.573457828166     1.951897044336    -0.873245230724     1.007825032230
         H           -1.565027828166     0.809780044336    -1.811596230724     1.007825032230
         H           -3.211740828166    -0.316051955664     0.637380769276     1.007825032230
         H           -2.048431828166    -1.589952955664     1.055194769276     1.007825032230
         H           -2.471426828166    -1.298514955664    -0.641724230724     1.007825032230
         H            2.223911171834    -1.204756955664    -1.372320230724     1.007825032230
         H            2.228073171834    -1.931616955664     0.236809769276     1.007825032230
         H            3.275364171834    -0.521871955664    -0.094801230724     1.007825032230

  Basis Set: AUG-CC-PVTZ
    Blend: AUG-CC-PVTZ
  Basis Set: (AUG-CC-PVTZ AUX)
    Blend: AUG-CC-PVTZ-JKFIT
	 Reference Energy          =    -345.0419162042862808 [Eh]
	 Singles Energy            =      -0.0000000000000000 [Eh]
	 Same-Spin Energy          =      -0.3414630644787601 [Eh]
	 Opposite-Spin Energy      =      -1.1322110965159822 [Eh]
	 Correlation Energy        =      -1.4736741609947424 [Eh]
	 Total Energy              =    -346.5155903652810139 [Eh]

	 ================> DF-SCS-MP2 Energies <==================
	-----------------------------------------------------------
	 SCS Same-Spin Scale       =       0.3333333333333333 [-]
	 SCS Opposite-Spin Scale   =       1.2000000000000000 [-]
	 SCS Same-Spin Energy      =      -0.1138210214929200 [Eh]
	 SCS Opposite-Spin Energy  =      -1.3586533158191785 [Eh]
	 SCS Correlation Energy    =      -1.4724743373120985 [Eh]
	 SCS Total Energy          =    -346.5143905415984023 [Eh]
	-----------------------------------------------------------

  Dipole Moment: [D]
     X:    -0.9972      Y:    -1.3734      Z:    -0.7499     Total:     1.8556

*** Psi4 exiting successfully. Buy a developer a beer!
