                               Psi4 1.3.2 release

  ==> Input File <==

--------------------------------------------------------------------------
#psi4
#
memory 32 gb

molecule  {
0 1
  O        0.0007480    -0.5952090    -0.1877880
  O        1.3565350     1.0092090     0.6922610
  C       -1.1649080     0.1839100     0.2068510
  C       -1.4179200     1.2632690    -0.8279250
  C       -2.2926420    -0.8179640     0.3227230
  C        1.2071900    -0.0583260     0.1211490
  C        2.3212472    -0.8710500    -0.5275468
  H       -0.9474970     0.6396690     1.1762190
  H       -2.3155240     1.8326500    -0.5690360
  H       -0.5734580     1.9518970    -0.8732450
  H       -1.5650280     0.8097800    -1.8115960
  H       -3.2117410    -0.3160520     0.6373810
  H       -2.0484320    -1.5899530     1.0551950
  H       -2.4714270    -1.2985150    -0.6417240
  H        2.2239110    -1.2047570    -1.3723200
  H        2.2280730    -1.9316170     0.2368100
  H        3.2753640    -0.5218720    -0.0948010
units angstrom
no_reorient  #important for SAPT in psi4, default
symmetry c1  #important for SAPT in psi4, default
}

set PROPERTIES_ORIGIN ["COM"]
properties('MP2/aug-cc-pvtz', properties = ['dipole'])
--------------------------------------------------------------------------

    Molecular point group: c1
  Charge       = 0
  Multiplicity = 1
  Basis Set: AUG-CC-PVTZ
    Blend: AUG-CC-PVTZ
  Basis Set: (AUG-CC-PVTZ AUX)
    Blend: AUG-CC-PVTZ-JKFIT

    Orbital Energies [Eh]
    ---------------------

    Doubly Occupied:

       1A    -20.596939     2A    -20.543209     3A    -11.386335
       4A    -11.290866     5A    -11.249667     6A    -11.221271
       7A    -11.217702     8A     -1.449500     9A     -1.351451
      10A     -1.075773    11A     -1.009626    12A     -0.945940
      13A     -0.840122    14A     -0.767024    15A     -0.711654
      16A     -0.670702    17A     -0.654380    18A     -0.619809
      19A     -0.604827    20A     -0.574583    21A     -0.551895
      22A     -0.541860    23A     -0.525471    24A     -0.510340
      25A     -0.491489    26A     -0.479232    27A     -0.452361
      28A     -0.438369

  @DF-RHF Final Energy:  -344.98074939302154

   => Energetics <=

    Nuclear Repulsion Energy =            320.9751356301137548
    One-Electron Energy =               -1106.3669714918046338
    Two-Electron Energy =                 440.4110864686693390
    Total Energy =                       -344.9807493930215401
  Basis Set: (AUG-CC-PVTZ AUX)
    Blend: AUG-CC-PVTZ-RI
    Molecular point group: c1

    Geometry (in Angstrom), charge = 0, multiplicity = 1:

       Center              X                  Y                   Z               Mass
    ------------   -----------------  -----------------  -----------------  -----------------
         O           -0.000204039674    -0.608714176943    -0.161699902116    15.994914619570
         O            1.355582960326     0.995703823057     0.718349097884    15.994914619570
         C           -1.165860039674     0.170404823057     0.232939097884    12.000000000000
         C           -1.418872039674     1.249763823057    -0.801836902116    12.000000000000
         C           -2.293594039674    -0.831469176943     0.348811097884    12.000000000000
         C            1.206237960326    -0.071831176943     0.147237097884    12.000000000000
         C            2.320295160326    -0.884555176943    -0.501458702116    12.000000000000
         H           -0.948449039674     0.626163823057     1.202307097884     1.007825032230
         H           -2.316476039674     1.819144823057    -0.542947902116     1.007825032230
         H           -0.574410039674     1.938391823057    -0.847156902116     1.007825032230
         H           -1.565980039674     0.796274823057    -1.785507902116     1.007825032230
         H           -3.212693039674    -0.329557176943     0.663469097884     1.007825032230
         H           -2.049384039674    -1.603458176943     1.081283097884     1.007825032230
         H           -2.472379039674    -1.312020176943    -0.615635902116     1.007825032230
         H            2.222958960326    -1.218262176943    -1.346231902116     1.007825032230
         H            2.227120960326    -1.945122176943     0.262898097884     1.007825032230
         H            3.274411960326    -0.535377176943    -0.068712902116     1.007825032230

  Basis Set: AUG-CC-PVTZ
    Blend: AUG-CC-PVTZ
  Basis Set: (AUG-CC-PVTZ AUX)
    Blend: AUG-CC-PVTZ-JKFIT
	 Reference Energy          =    -344.9807493930215401 [Eh]
	 Singles Energy            =      -0.0000000000000000 [Eh]
	 Same-Spin Energy          =      -0.3422487692467742 [Eh]
	 Opposite-Spin Energy      =      -1.1348892986700529 [Eh]
	 Correlation Energy        =      -1.4771380679168271 [Eh]
	 Total Energy              =    -346.4578874609383661 [Eh]

	 ================> DF-SCS-MP2 Energies <==================
	-----------------------------------------------------------
	 SCS Same-Spin Scale       =       0.3333333333333333 [-]
	 SCS Opposite-Spin Scale   =       1.2000000000000000 [-]
	 SCS Same-Spin Energy      =      -0.1140829230822581 [Eh]
	 SCS Opposite-Spin Energy  =      -1.3618671584040636 [Eh]
	 SCS Correlation Energy    =      -1.4759500814863216 [Eh]
	 SCS Total Energy          =    -346.4566994745078432 [Eh]
	-----------------------------------------------------------

  Dipole Moment: [D]
     X:    -1.0013      Y:    -1.3059      Z:    -0.7778     Total:     1.8201

*** Psi4 exiting successfully. Buy a developer a beer!
