                               Psi4 1.3.2 release

  ==> Input File <==

--------------------------------------------------------------------------
#psi4
#
memory 32 gb

molecule  {
0 1
  O        0.0007480    -0.5952090    -0.1877880
  O        1.3565350     1.0092090     0.6922610
  C       -1.1649080     0.1839100     0.2068510
  C       -1.4179200     1.2632690    -0.8279250
  C       -2.2926420    -0.8179640     0.3227230
  C        1.2071900    -0.0583260     0.1211490
  C        2.3180075    -0.9169984    -0.4387873
  H       -0.9474970     0.6396690     1.1762190
  H       -2.3155240     1.8326500    -0.5690360
  H       -0.5734580     1.9518970    -0.8732450
  H       -1.5650280     0.8097800    -1.8115960
  H       -3.2117410    -0.3160520     0.6373810
  H       -2.0484320    -1.5899530     1.0551950
  H       -2.4714270    -1.2985150    -0.6417240
  H        2.2239110    -1.2047570    -1.3723200
  H        2.2280730    -1.9316170     0.2368100
  H        3.2753640    -0.5218720    -0.0948010
units angstrom
no_reorient  #important for SAPT in psi4, default
symmetry c1  #important for SAPT in psi4, default
}

set PROPERTIES_ORIGIN ["COM"]
properties('MP2/aug-cc-pvtz', properties = ['dipole'])
--------------------------------------------------------------------------

    Molecular point group: c1
  Charge       = 0
  Multiplicity = 1
  Basis Set: AUG-CC-PVTZ
    Blend: AUG-CC-PVTZ
  Basis Set: (AUG-CC-PVTZ AUX)
    Blend: AUG-CC-PVTZ-JKFIT

    Orbital Energies [Eh]
    ---------------------

    Doubly Occupied:

       1A    -20.596782     2A    -20.542307     3A    -11.383067
       4A    -11.290697     5A    -11.243785     6A    -11.221251
       7A    -11.217394     8A     -1.449114     9A     -1.350752
      10A     -1.075700    11A     -1.007393    12A     -0.945768
      13A     -0.838071    14A     -0.765822    15A     -0.698919
      16A     -0.668603    17A     -0.654487    18A     -0.608993
      19A     -0.605543    20A     -0.577042    21A     -0.552361
      22A     -0.543219    23A     -0.529684    24A     -0.514734
      25A     -0.499587    26A     -0.481844    27A     -0.452780
      28A     -0.440988

  @DF-RHF Final Energy:  -345.01986363222113

   => Energetics <=

    Nuclear Repulsion Energy =            321.1128305743207534
    One-Electron Energy =               -1106.7520092309796382
    Two-Electron Energy =                 440.6193150244378103
    Total Energy =                       -345.0198636322211314
  Basis Set: (AUG-CC-PVTZ AUX)
    Blend: AUG-CC-PVTZ-RI
    Molecular point group: c1

    Geometry (in Angstrom), charge = 0, multiplicity = 1:

       Center              X                  Y                   Z               Mass
    ------------   -----------------  -----------------  -----------------  -----------------
         O            0.000176847281    -0.603312088432    -0.172135231208    15.994914619570
         O            1.355963847281     1.001105911568     0.707913768792    15.994914619570
         C           -1.165479152719     0.175806911568     0.222503768792    12.000000000000
         C           -1.418491152719     1.255165911568    -0.812272231208    12.000000000000
         C           -2.293213152719    -0.826067088432     0.338375768792    12.000000000000
         C            1.206618847281    -0.066429088432     0.136801768792    12.000000000000
         C            2.317436347281    -0.925101488432    -0.423134531208    12.000000000000
         H           -0.948068152719     0.631565911568     1.191871768792     1.007825032230
         H           -2.316095152719     1.824546911568    -0.553383231208     1.007825032230
         H           -0.574029152719     1.943793911568    -0.857592231208     1.007825032230
         H           -1.565599152719     0.801676911568    -1.795943231208     1.007825032230
         H           -3.212312152719    -0.324155088432     0.653033768792     1.007825032230
         H           -2.049003152719    -1.598056088432     1.070847768792     1.007825032230
         H           -2.471998152719    -1.306618088432    -0.626071231208     1.007825032230
         H            2.223339847281    -1.212860088432    -1.356667231208     1.007825032230
         H            2.227501847281    -1.939720088432     0.252462768792     1.007825032230
         H            3.274792847281    -0.529975088432    -0.079148231208     1.007825032230

  Basis Set: AUG-CC-PVTZ
    Blend: AUG-CC-PVTZ
  Basis Set: (AUG-CC-PVTZ AUX)
    Blend: AUG-CC-PVTZ-JKFIT
	 Reference Energy          =    -345.0198636322211314 [Eh]
	 Singles Energy            =      -0.0000000000000000 [Eh]
	 Same-Spin Energy          =      -0.3417372175364315 [Eh]
	 Opposite-Spin Energy      =      -1.1331201935935846 [Eh]
	 Correlation Energy        =      -1.4748574111300161 [Eh]
	 Total Energy              =    -346.4947210433511486 [Eh]

	 ================> DF-SCS-MP2 Energies <==================
	-----------------------------------------------------------
	 SCS Same-Spin Scale       =       0.3333333333333333 [-]
	 SCS Opposite-Spin Scale   =       1.2000000000000000 [-]
	 SCS Same-Spin Energy      =      -0.1139124058454772 [Eh]
	 SCS Opposite-Spin Energy  =      -1.3597442323123015 [Eh]
	 SCS Correlation Energy    =      -1.4736566381577787 [Eh]
	 SCS Total Energy          =    -346.4935202703788946 [Eh]
	-----------------------------------------------------------

  Dipole Moment: [D]
     X:    -0.9926      Y:    -1.3428      Z:    -0.7761     Total:     1.8414

*** Psi4 exiting successfully. Buy a developer a beer!
