                               Psi4 1.3.2 release

  ==> Input File <==

--------------------------------------------------------------------------
#psi4
#
memory 32 gb

molecule  {
0 1
  O        0.0007480    -0.5952090    -0.1877880
  O        1.3565350     1.0092090     0.6922610
  C       -1.1649080     0.1839100     0.2068510
  C       -1.4179200     1.2632690    -0.8279250
  C       -2.2926420    -0.8179640     0.3227230
  C        1.2071900    -0.0583260     0.1211490
  C        2.3228670    -0.8480758    -0.5719265
  H       -0.9474970     0.6396690     1.1762190
  H       -2.3155240     1.8326500    -0.5690360
  H       -0.5734580     1.9518970    -0.8732450
  H       -1.5650280     0.8097800    -1.8115960
  H       -3.2117410    -0.3160520     0.6373810
  H       -2.0484320    -1.5899530     1.0551950
  H       -2.4714270    -1.2985150    -0.6417240
  H        2.2239110    -1.2047570    -1.3723200
  H        2.2280730    -1.9316170     0.2368100
  H        3.2753640    -0.5218720    -0.0948010
units angstrom
no_reorient  #important for SAPT in psi4, default
symmetry c1  #important for SAPT in psi4, default
}

set PROPERTIES_ORIGIN ["COM"]
properties('MP2/aug-cc-pvtz', properties = ['dipole'])
--------------------------------------------------------------------------

    Molecular point group: c1
  Charge       = 0
  Multiplicity = 1
  Basis Set: AUG-CC-PVTZ
    Blend: AUG-CC-PVTZ
  Basis Set: (AUG-CC-PVTZ AUX)
    Blend: AUG-CC-PVTZ-JKFIT

    Orbital Energies [Eh]
    ---------------------

    Doubly Occupied:

       1A    -20.597066     2A    -20.543839     3A    -11.388483
       4A    -11.290992     5A    -11.253595     6A    -11.221308
       7A    -11.217884     8A     -1.449765     9A     -1.351924
      10A     -1.075833    11A     -1.011250    12A     -0.946055
      13A     -0.841636    14A     -0.767963    15A     -0.719035
      16A     -0.671459    17A     -0.654245    18A     -0.623049
      19A     -0.604479    20A     -0.573400    21A     -0.551846
      22A     -0.541610    23A     -0.524583    24A     -0.509528
      25A     -0.487937    26A     -0.475572    27A     -0.451872
      28A     -0.435996

  @DF-RHF Final Energy:  -344.95402858838975

   => Energetics <=

    Nuclear Repulsion Energy =            320.8744337456881226
    One-Electron Energy =               -1106.0925187829070637
    Two-Electron Energy =                 440.2640564488292512
    Total Energy =                       -344.9540285883897468
  Basis Set: (AUG-CC-PVTZ AUX)
    Blend: AUG-CC-PVTZ-RI
    Molecular point group: c1

    Geometry (in Angstrom), charge = 0, multiplicity = 1:

       Center              X                  Y                   Z               Mass
    ------------   -----------------  -----------------  -----------------  -----------------
         O           -0.000394477273    -0.611415221199    -0.156482243449    15.994914619570
         O            1.355392522727     0.993002778801     0.723566756551    15.994914619570
         C           -1.166050477273     0.167703778801     0.238156756551    12.000000000000
         C           -1.419062477273     1.247062778801    -0.796619243449    12.000000000000
         C           -2.293784477273    -0.834170221199     0.354028756551    12.000000000000
         C            1.206047522727    -0.074532221199     0.152454756551    12.000000000000
         C            2.321724522727    -0.864282021199    -0.540620743449    12.000000000000
         H           -0.948639477273     0.623462778801     1.207524756551     1.007825032230
         H           -2.316666477273     1.816443778801    -0.537730243449     1.007825032230
         H           -0.574600477273     1.935690778801    -0.841939243449     1.007825032230
         H           -1.566170477273     0.793573778801    -1.780290243449     1.007825032230
         H           -3.212883477273    -0.332258221199     0.668686756551     1.007825032230
         H           -2.049574477273    -1.606159221199     1.086500756551     1.007825032230
         H           -2.472569477273    -1.314721221199    -0.610418243449     1.007825032230
         H            2.222768522727    -1.220963221199    -1.341014243449     1.007825032230
         H            2.226930522727    -1.947823221199     0.268115756551     1.007825032230
         H            3.274221522727    -0.538078221199    -0.063495243449     1.007825032230

  Basis Set: AUG-CC-PVTZ
    Blend: AUG-CC-PVTZ
  Basis Set: (AUG-CC-PVTZ AUX)
    Blend: AUG-CC-PVTZ-JKFIT
	 Reference Energy          =    -344.9540285883897468 [Eh]
	 Singles Energy            =      -0.0000000000000000 [Eh]
	 Same-Spin Energy          =      -0.3426088720088210 [Eh]
	 Opposite-Spin Energy      =      -1.1361549924014032 [Eh]
	 Correlation Energy        =      -1.4787638644102241 [Eh]
	 Total Energy              =    -346.4327924527999585 [Eh]

	 ================> DF-SCS-MP2 Energies <==================
	-----------------------------------------------------------
	 SCS Same-Spin Scale       =       0.3333333333333333 [-]
	 SCS Opposite-Spin Scale   =       1.2000000000000000 [-]
	 SCS Same-Spin Energy      =      -0.1142029573362736 [Eh]
	 SCS Opposite-Spin Energy  =      -1.3633859908816837 [Eh]
	 SCS Correlation Energy    =      -1.4775889482179574 [Eh]
	 SCS Total Energy          =    -346.4316175366076891 [Eh]
	-----------------------------------------------------------

  Dipole Moment: [D]
     X:    -1.0096      Y:    -1.2866      Z:    -0.7727     Total:     1.8088

*** Psi4 exiting successfully. Buy a developer a beer!
