                               Psi4 1.3.2 release

  ==> Input File <==

--------------------------------------------------------------------------
#psi4
#
memory 32 gb

molecule  {
0 1
  S        2.2579180    -0.2726900    -0.2934460
  O       -2.2551230    -0.6936910    -0.5624970
  O       -0.5935940    -1.5242440     0.7320250
  N       -1.2606890     1.7473760     0.2743420
  C       -0.5031245     0.8256599    -0.0172624
  C        0.9828140     0.8061630     0.4219110
  C       -1.0384360    -0.6244090     0.0410490
  H       -0.2310720     0.7525000    -1.3524110
  H        1.3604600     1.8262100     0.3009430
  H        0.8701070     0.6147400     1.4903500
  H       -2.1754500     1.6690270    -0.1683570
  H       -0.8885410     2.6612730     0.0174870
  H        1.7688800    -1.4122240     0.2118940
  H       -2.6365250    -1.5573750    -0.2997250
units angstrom
no_reorient  #important for SAPT in psi4, default
symmetry c1  #important for SAPT in psi4, default
}

set PROPERTIES_ORIGIN ["COM"]
properties('MP2/aug-cc-pvtz', properties = ['dipole'])
--------------------------------------------------------------------------

    Molecular point group: c1
  Charge       = 0
  Multiplicity = 1
  Basis Set: AUG-CC-PVTZ
    Blend: AUG-CC-PVTZ
  Basis Set: (AUG-CC-PVTZ AUX)
    Blend: AUG-CC-PVTZ-JKFIT

    Orbital Energies [Eh]
    ---------------------

    Doubly Occupied:

       1A    -91.955007     2A    -20.625936     3A    -20.563857
       4A    -15.576628     5A    -11.402377     6A    -11.310858
       7A    -11.269262     8A     -8.955710     9A     -6.637051
      10A     -6.636057    11A     -6.635066    12A     -1.471645
      13A     -1.368973    14A     -1.308153    15A     -1.058267
      16A     -0.954875    17A     -0.884561    18A     -0.795120
      19A     -0.739160    20A     -0.719041    21A     -0.708418
      22A     -0.662681    23A     -0.625045    24A     -0.622731
      25A     -0.560747    26A     -0.545516    27A     -0.524755
      28A     -0.499043    29A     -0.475609    30A     -0.452601
      31A     -0.361495    32A     -0.356169

  @DF-RHF Final Energy:  -719.44934826416181

   => Energetics <=

    Nuclear Repulsion Energy =            381.1817549385382904
    One-Electron Energy =               -1746.7373830688875387
    Two-Electron Energy =                 646.1062798661874922
    Total Energy =                       -719.4493482641618129
  Basis Set: (AUG-CC-PVTZ AUX)
    Blend: AUG-CC-PVTZ-RI
    Molecular point group: c1

    Geometry (in Angstrom), charge = 0, multiplicity = 1:

       Center              X                  Y                   Z               Mass
    ------------   -----------------  -----------------  -----------------  -----------------
         S            2.255277188203    -0.247514312277    -0.315932077249    31.972071174400
         O           -2.257763811797    -0.668515312277    -0.584983077249    15.994914619570
         O           -0.596234811797    -1.499068312277     0.709538922751    15.994914619570
         N           -1.263329811797     1.772551687723     0.251855922751    14.003074004430
         C           -0.505765311797     0.850835587723    -0.039748477249    12.000000000000
         C            0.980173188203     0.831338687723     0.399424922751    12.000000000000
         C           -1.041076811797    -0.599233312277     0.018562922751    12.000000000000
         H           -0.233712811797     0.777675687723    -1.374897077249     1.007825032230
         H            1.357819188203     1.851385687723     0.278456922751     1.007825032230
         H            0.867466188203     0.639915687723     1.467863922751     1.007825032230
         H           -2.178090811797     1.694202687723    -0.190843077249     1.007825032230
         H           -0.891181811797     2.686448687723    -0.004999077249     1.007825032230
         H            1.766239188203    -1.387048312277     0.189407922751     1.007825032230
         H           -2.639165811797    -1.532199312277    -0.322211077249     1.007825032230

  Basis Set: AUG-CC-PVTZ
    Blend: AUG-CC-PVTZ
  Basis Set: (AUG-CC-PVTZ AUX)
    Blend: AUG-CC-PVTZ-JKFIT
	 Reference Energy          =    -719.4493482641618129 [Eh]
	 Singles Energy            =      -0.0000000000000000 [Eh]
	 Same-Spin Energy          =      -0.3780452988815025 [Eh]
	 Opposite-Spin Energy      =      -1.1633223705415341 [Eh]
	 Correlation Energy        =      -1.5413676694230367 [Eh]
	 Total Energy              =    -720.9907159335848519 [Eh]

	 ================> DF-SCS-MP2 Energies <==================
	-----------------------------------------------------------
	 SCS Same-Spin Scale       =       0.3333333333333333 [-]
	 SCS Opposite-Spin Scale   =       1.2000000000000000 [-]
	 SCS Same-Spin Energy      =      -0.1260150996271675 [Eh]
	 SCS Opposite-Spin Energy  =      -1.3959868446498409 [Eh]
	 SCS Correlation Energy    =      -1.5220019442770085 [Eh]
	 SCS Total Energy          =    -720.9713502084388210 [Eh]
	-----------------------------------------------------------

  Dipole Moment: [D]
     X:    -2.4149      Y:     1.7816      Z:    -0.4697     Total:     3.0375

*** Psi4 exiting successfully. Buy a developer a beer!
