                               Psi4 1.3.2 release

  ==> Input File <==

--------------------------------------------------------------------------
#psi4
#
memory 32 gb

molecule  {
0 1
  S        2.2579180    -0.2726900    -0.2934460
  O       -2.2551230    -0.6936910    -0.5624970
  O       -0.5935940    -1.5242440     0.7320250
  N       -1.2606890     1.7473760     0.2743420
  C       -0.4387508     0.7653479    -0.1385822
  C        0.9828140     0.8061630     0.4219110
  C       -1.0384360    -0.6244090     0.0410490
  H       -0.2310720     0.7525000    -1.3524110
  H        1.3604600     1.8262100     0.3009430
  H        0.8701070     0.6147400     1.4903500
  H       -2.1754500     1.6690270    -0.1683570
  H       -0.8885410     2.6612730     0.0174870
  H        1.7688800    -1.4122240     0.2118940
  H       -2.6365250    -1.5573750    -0.2997250
units angstrom
no_reorient  #important for SAPT in psi4, default
symmetry c1  #important for SAPT in psi4, default
}

set PROPERTIES_ORIGIN ["COM"]
properties('MP2/aug-cc-pvtz', properties = ['dipole'])
--------------------------------------------------------------------------

    Molecular point group: c1
  Charge       = 0
  Multiplicity = 1
  Basis Set: AUG-CC-PVTZ
    Blend: AUG-CC-PVTZ
  Basis Set: (AUG-CC-PVTZ AUX)
    Blend: AUG-CC-PVTZ-JKFIT

    Orbital Energies [Eh]
    ---------------------

    Doubly Occupied:

       1A    -91.952814     2A    -20.627473     3A    -20.564851
       4A    -15.570474     5A    -11.400638     6A    -11.300707
       7A    -11.267433     8A     -8.953878     9A     -6.635240
      10A     -6.634272    11A     -6.633285    12A     -1.472841
      13A     -1.370026    14A     -1.255206    15A     -1.061332
      16A     -0.960085    17A     -0.882285    18A     -0.785816
      19A     -0.722278    20A     -0.711628    21A     -0.695982
      22A     -0.660833    23A     -0.622797    24A     -0.617703
      25A     -0.562765    26A     -0.545443    27A     -0.525680
      28A     -0.497404    29A     -0.478106    30A     -0.452203
      31A     -0.397807    32A     -0.359554

  @DF-RHF Final Energy:  -719.51662027978637

   => Energetics <=

    Nuclear Repulsion Energy =            380.7216195704255597
    One-Electron Energy =               -1746.1188040841591373
    Two-Electron Energy =                 645.8805642339470978
    Total Energy =                       -719.5166202797863662
  Basis Set: (AUG-CC-PVTZ AUX)
    Blend: AUG-CC-PVTZ-RI
    Molecular point group: c1

    Geometry (in Angstrom), charge = 0, multiplicity = 1:

       Center              X                  Y                   Z               Mass
    ------------   -----------------  -----------------  -----------------  -----------------
         S            2.248894061464    -0.241533933023    -0.303902325045    31.972071174400
         O           -2.264146938536    -0.662534933023    -0.572953325045    15.994914619570
         O           -0.602617938536    -1.493087933023     0.721568674955    15.994914619570
         N           -1.269712938536     1.778532066977     0.263885674955    14.003074004430
         C           -0.447774738536     0.796503966977    -0.149038525045    12.000000000000
         C            0.973790061464     0.837319066977     0.411454674955    12.000000000000
         C           -1.047459938536    -0.593252933023     0.030592674955    12.000000000000
         H           -0.240095938536     0.783656066977    -1.362867325045     1.007825032230
         H            1.351436061464     1.857366066977     0.290486674955     1.007825032230
         H            0.861083061464     0.645896066977     1.479893674955     1.007825032230
         H           -2.184473938536     1.700183066977    -0.178813325045     1.007825032230
         H           -0.897564938536     2.692429066977     0.007030674955     1.007825032230
         H            1.759856061464    -1.381067933023     0.201437674955     1.007825032230
         H           -2.645548938536    -1.526218933023    -0.310181325045     1.007825032230

  Basis Set: AUG-CC-PVTZ
    Blend: AUG-CC-PVTZ
  Basis Set: (AUG-CC-PVTZ AUX)
    Blend: AUG-CC-PVTZ-JKFIT
	 Reference Energy          =    -719.5166202797863662 [Eh]
	 Singles Energy            =      -0.0000000000000000 [Eh]
	 Same-Spin Energy          =      -0.3758459722928499 [Eh]
	 Opposite-Spin Energy      =      -1.1602157187623283 [Eh]
	 Correlation Energy        =      -1.5360616910551783 [Eh]
	 Total Energy              =    -721.0526819708414905 [Eh]

	 ================> DF-SCS-MP2 Energies <==================
	-----------------------------------------------------------
	 SCS Same-Spin Scale       =       0.3333333333333333 [-]
	 SCS Opposite-Spin Scale   =       1.2000000000000000 [-]
	 SCS Same-Spin Energy      =      -0.1252819907642833 [Eh]
	 SCS Opposite-Spin Energy  =      -1.3922588625147940 [Eh]
	 SCS Correlation Energy    =      -1.5175408532790773 [Eh]
	 SCS Total Energy          =    -721.0341611330654814 [Eh]
	-----------------------------------------------------------

  Dipole Moment: [D]
     X:    -2.1617      Y:     1.4567      Z:    -0.9506     Total:     2.7747

*** Psi4 exiting successfully. Buy a developer a beer!
