                               Psi4 1.3.2 release

  ==> Input File <==

--------------------------------------------------------------------------
#psi4
#
memory 32 gb

molecule  {
0 1
  S        2.2579180    -0.2726900    -0.2934460
  O       -2.2551230    -0.6936910    -0.5624970
  O       -0.5935940    -1.5242440     0.7320250
  N       -1.2606890     1.7473760     0.2743420
  C       -0.4602087     0.7854519    -0.0981423
  C        0.9828140     0.8061630     0.4219110
  C       -1.0384360    -0.6244090     0.0410490
  H       -0.2310720     0.7525000    -1.3524110
  H        1.3604600     1.8262100     0.3009430
  H        0.8701070     0.6147400     1.4903500
  H       -2.1754500     1.6690270    -0.1683570
  H       -0.8885410     2.6612730     0.0174870
  H        1.7688800    -1.4122240     0.2118940
  H       -2.6365250    -1.5573750    -0.2997250
units angstrom
no_reorient  #important for SAPT in psi4, default
symmetry c1  #important for SAPT in psi4, default
}

set PROPERTIES_ORIGIN ["COM"]
properties('MP2/aug-cc-pvtz', properties = ['dipole'])
--------------------------------------------------------------------------

    Molecular point group: c1
  Charge       = 0
  Multiplicity = 1
  Basis Set: AUG-CC-PVTZ
    Blend: AUG-CC-PVTZ
  Basis Set: (AUG-CC-PVTZ AUX)
    Blend: AUG-CC-PVTZ-JKFIT

    Orbital Energies [Eh]
    ---------------------

    Doubly Occupied:

       1A    -91.953634     2A    -20.627042     3A    -20.564562
       4A    -15.571611     5A    -11.400928     6A    -11.303661
       7A    -11.267708     8A     -8.954575     9A     -6.635932
      10A     -6.634955    11A     -6.633968    12A     -1.472493
      13A     -1.369713    14A     -1.271153    15A     -1.060413
      16A     -0.958399    17A     -0.883077    18A     -0.786747
      19A     -0.725336    20A     -0.713890    21A     -0.701894
      22A     -0.661623    23A     -0.622746    24A     -0.620795
      25A     -0.561169    26A     -0.544622    27A     -0.525648
      28A     -0.497983    29A     -0.477793    30A     -0.452657
      31A     -0.386255    32A     -0.359299

  @DF-RHF Final Energy:  -719.49935601761661

   => Energetics <=

    Nuclear Repulsion Energy =            380.8834268663420062
    One-Electron Energy =               -1746.3610013331183382
    Two-Electron Energy =                 645.9782184491597263
    Total Energy =                       -719.4993560176166056
  Basis Set: (AUG-CC-PVTZ AUX)
    Blend: AUG-CC-PVTZ-RI
    Molecular point group: c1

    Geometry (in Angstrom), charge = 0, multiplicity = 1:

       Center              X                  Y                   Z               Mass
    ------------   -----------------  -----------------  -----------------  -----------------
         S            2.251021770377    -0.243527392775    -0.307912239141    31.972071174400
         O           -2.262019229623    -0.664528392775    -0.576963239141    15.994914619570
         O           -0.600490229623    -1.495081392775     0.717558760859    15.994914619570
         N           -1.267585229623     1.776538607225     0.259875760859    14.003074004430
         C           -0.467104929623     0.814614507225    -0.112608539141    12.000000000000
         C            0.975917770377     0.835325607225     0.407444760859    12.000000000000
         C           -1.045332229623    -0.595246392775     0.026582760859    12.000000000000
         H           -0.237968229623     0.781662607225    -1.366877239141     1.007825032230
         H            1.353563770377     1.855372607225     0.286476760859     1.007825032230
         H            0.863210770377     0.643902607225     1.475883760859     1.007825032230
         H           -2.182346229623     1.698189607225    -0.182823239141     1.007825032230
         H           -0.895437229623     2.690435607225     0.003020760859     1.007825032230
         H            1.761983770377    -1.383061392775     0.197427760859     1.007825032230
         H           -2.643421229623    -1.528212392775    -0.314191239141     1.007825032230

  Basis Set: AUG-CC-PVTZ
    Blend: AUG-CC-PVTZ
  Basis Set: (AUG-CC-PVTZ AUX)
    Blend: AUG-CC-PVTZ-JKFIT
	 Reference Energy          =    -719.4993560176166056 [Eh]
	 Singles Energy            =      -0.0000000000000000 [Eh]
	 Same-Spin Energy          =      -0.3764684374986695 [Eh]
	 Opposite-Spin Energy      =      -1.1610417094282446 [Eh]
	 Correlation Energy        =      -1.5375101469269141 [Eh]
	 Total Energy              =    -721.0368661645435395 [Eh]

	 ================> DF-SCS-MP2 Energies <==================
	-----------------------------------------------------------
	 SCS Same-Spin Scale       =       0.3333333333333333 [-]
	 SCS Opposite-Spin Scale   =       1.2000000000000000 [-]
	 SCS Same-Spin Energy      =      -0.1254894791662232 [Eh]
	 SCS Opposite-Spin Energy  =      -1.3932500513138935 [Eh]
	 SCS Correlation Energy    =      -1.5187395304801166 [Eh]
	 SCS Total Energy          =    -721.0180955480967668 [Eh]
	-----------------------------------------------------------

  Dipole Moment: [D]
     X:    -2.2308      Y:     1.5445      Z:    -0.8193     Total:     2.8343

*** Psi4 exiting successfully. Buy a developer a beer!
