                               Psi4 1.3.2 release

  ==> Input File <==

--------------------------------------------------------------------------
#psi4
#
memory 32 gb

molecule  {
0 1
  S        2.2579180    -0.2726900    -0.2934460
  O       -2.2551230    -0.6936910    -0.5624970
  O       -0.5935940    -1.5242440     0.7320250
  N       -1.2606890     1.7473760     0.2743420
  C       -0.3958349     0.7251400    -0.2194621
  C        0.9828140     0.8061630     0.4219110
  C       -1.0384360    -0.6244090     0.0410490
  H       -0.2310720     0.7525000    -1.3524110
  H        1.3604600     1.8262100     0.3009430
  H        0.8701070     0.6147400     1.4903500
  H       -2.1754500     1.6690270    -0.1683570
  H       -0.8885410     2.6612730     0.0174870
  H        1.7688800    -1.4122240     0.2118940
  H       -2.6365250    -1.5573750    -0.2997250
units angstrom
no_reorient  #important for SAPT in psi4, default
symmetry c1  #important for SAPT in psi4, default
}

set PROPERTIES_ORIGIN ["COM"]
properties('MP2/aug-cc-pvtz', properties = ['dipole'])
--------------------------------------------------------------------------

    Molecular point group: c1
  Charge       = 0
  Multiplicity = 1
  Basis Set: AUG-CC-PVTZ
    Blend: AUG-CC-PVTZ
  Basis Set: (AUG-CC-PVTZ AUX)
    Blend: AUG-CC-PVTZ-JKFIT

    Orbital Energies [Eh]
    ---------------------

    Doubly Occupied:

       1A    -91.951030     2A    -20.628130     3A    -20.565361
       4A    -15.569857     5A    -11.400926     6A    -11.296253
       7A    -11.267817     8A     -8.952346     9A     -6.633712
      10A     -6.632763    11A     -6.631775    12A     -1.473390
      13A     -1.370573    14A     -1.228052    15A     -1.062889
      16A     -0.963239    17A     -0.880409    18A     -0.788143
      19A     -0.720541    20A     -0.713361    21A     -0.679589
      22A     -0.658514    23A     -0.623320    24A     -0.608687
      25A     -0.565944    26A     -0.551997    27A     -0.525168
      28A     -0.496005    29A     -0.476580    30A     -0.450805
      31A     -0.416272    32A     -0.359423

  @DF-RHF Final Energy:  -719.53629033712218

   => Energetics <=

    Nuclear Repulsion Energy =            380.3676978728009885
    One-Electron Energy =               -1745.5222387554308625
    Two-Electron Energy =                 645.6182505455076353
    Total Energy =                       -719.5362903371221819
  Basis Set: (AUG-CC-PVTZ AUX)
    Blend: AUG-CC-PVTZ-RI
    Molecular point group: c1

    Geometry (in Angstrom), charge = 0, multiplicity = 1:

       Center              X                  Y                   Z               Mass
    ------------   -----------------  -----------------  -----------------  -----------------
         S            2.244638633721    -0.237547023437    -0.295882486937    31.972071174400
         O           -2.268402366279    -0.658548023437    -0.564933486937    15.994914619570
         O           -0.606873366279    -1.489101023437     0.729588513063    15.994914619570
         N           -1.273968366279     1.782518976563     0.271905513063    14.003074004430
         C           -0.409114266279     0.760282976563    -0.221898586937    12.000000000000
         C            0.969534633721     0.841305976563     0.419474513063    12.000000000000
         C           -1.051715366279    -0.589266023437     0.038612513063    12.000000000000
         H           -0.244351366279     0.787642976563    -1.354847486937     1.007825032230
         H            1.347180633721     1.861352976563     0.298506513063     1.007825032230
         H            0.856827633721     0.649882976563     1.487913513063     1.007825032230
         H           -2.188729366279     1.704169976563    -0.170793486937     1.007825032230
         H           -0.901820366279     2.696415976563     0.015050513063     1.007825032230
         H            1.755600633721    -1.377081023437     0.209457513063     1.007825032230
         H           -2.649804366279    -1.522232023437    -0.302161486937     1.007825032230

  Basis Set: AUG-CC-PVTZ
    Blend: AUG-CC-PVTZ
  Basis Set: (AUG-CC-PVTZ AUX)
    Blend: AUG-CC-PVTZ-JKFIT
	 Reference Energy          =    -719.5362903371221819 [Eh]
	 Singles Energy            =      -0.0000000000000000 [Eh]
	 Same-Spin Energy          =      -0.3750050098182471 [Eh]
	 Opposite-Spin Energy      =      -1.1593772501038104 [Eh]
	 Correlation Energy        =      -1.5343822599220576 [Eh]
	 Total Energy              =    -721.0706725970442221 [Eh]

	 ================> DF-SCS-MP2 Energies <==================
	-----------------------------------------------------------
	 SCS Same-Spin Scale       =       0.3333333333333333 [-]
	 SCS Opposite-Spin Scale   =       1.2000000000000000 [-]
	 SCS Same-Spin Energy      =      -0.1250016699394157 [Eh]
	 SCS Opposite-Spin Energy  =      -1.3912527001245725 [Eh]
	 SCS Correlation Energy    =      -1.5162543700639881 [Eh]
	 SCS Total Energy          =    -721.0525447071861436 [Eh]
	-----------------------------------------------------------

  Dipole Moment: [D]
     X:    -2.0614      Y:     1.3289      Z:    -1.1404     Total:     2.7048

*** Psi4 exiting successfully. Buy a developer a beer!
