                               Psi4 1.3.2 release

  ==> Input File <==

--------------------------------------------------------------------------
#psi4
#
memory 32 gb

molecule  {
0 1
  S        2.2579180    -0.2726900    -0.2934460
  O       -2.2551230    -0.6936910    -0.5624970
  O       -0.5935940    -1.5242440     0.7320250
  N       -1.2606890     1.7473760     0.2743420
  C       -0.4816666     0.8055559    -0.0577024
  C        0.9828140     0.8061630     0.4219110
  C       -1.0384360    -0.6244090     0.0410490
  H       -0.2310720     0.7525000    -1.3524110
  H        1.3604600     1.8262100     0.3009430
  H        0.8701070     0.6147400     1.4903500
  H       -2.1754500     1.6690270    -0.1683570
  H       -0.8885410     2.6612730     0.0174870
  H        1.7688800    -1.4122240     0.2118940
  H       -2.6365250    -1.5573750    -0.2997250
units angstrom
no_reorient  #important for SAPT in psi4, default
symmetry c1  #important for SAPT in psi4, default
}

set PROPERTIES_ORIGIN ["COM"]
properties('MP2/aug-cc-pvtz', properties = ['dipole'])
--------------------------------------------------------------------------

    Molecular point group: c1
  Charge       = 0
  Multiplicity = 1
  Basis Set: AUG-CC-PVTZ
    Blend: AUG-CC-PVTZ
  Basis Set: (AUG-CC-PVTZ AUX)
    Blend: AUG-CC-PVTZ-JKFIT

    Orbital Energies [Eh]
    ---------------------

    Doubly Occupied:

       1A    -91.954372     2A    -20.626533     3A    -20.564235
       4A    -15.573586     5A    -11.401508     6A    -11.307063
       7A    -11.268311     8A     -8.955193     9A     -6.636543
      10A     -6.635557    11A     -6.634569    12A     -1.472095
      13A     -1.369365    14A     -1.288796    15A     -1.059391
      16A     -0.956652    17A     -0.883815    18A     -0.789639
      19A     -0.731409    20A     -0.716624    21A     -0.705623
      22A     -0.662172    23A     -0.623500    24A     -0.622423
      25A     -0.560170    26A     -0.545002    27A     -0.525346
      28A     -0.498517    29A     -0.476907    30A     -0.452827
      31A     -0.373538    32A     -0.358693

  @DF-RHF Final Energy:  -719.47698842799934

   => Energetics <=

    Nuclear Repulsion Energy =            381.0364635046413468
    One-Electron Energy =               -1746.5669547745444561
    Two-Electron Energy =                 646.0535028419036507
    Total Energy =                       -719.4769884279993448
  Basis Set: (AUG-CC-PVTZ AUX)
    Blend: AUG-CC-PVTZ-RI
    Molecular point group: c1

    Geometry (in Angstrom), charge = 0, multiplicity = 1:

       Center              X                  Y                   Z               Mass
    ------------   -----------------  -----------------  -----------------  -----------------
         S            2.253149479290    -0.245520852526    -0.311922153237    31.972071174400
         O           -2.259891520710    -0.666521852526    -0.580973153237    15.994914619570
         O           -0.598362520710    -1.497074852526     0.713548846763    15.994914619570
         N           -1.265457520710     1.774545147474     0.255865846763    14.003074004430
         C           -0.486435120710     0.832725047474    -0.076178553237    12.000000000000
         C            0.978045479290     0.833332147474     0.403434846763    12.000000000000
         C           -1.043204520710    -0.597239852526     0.022572846763    12.000000000000
         H           -0.235840520710     0.779669147474    -1.370887153237     1.007825032230
         H            1.355691479290     1.853379147474     0.282466846763     1.007825032230
         H            0.865338479290     0.641909147474     1.471873846763     1.007825032230
         H           -2.180218520710     1.696196147474    -0.186833153237     1.007825032230
         H           -0.893309520710     2.688442147474    -0.000989153237     1.007825032230
         H            1.764111479290    -1.385054852526     0.193417846763     1.007825032230
         H           -2.641293520710    -1.530205852526    -0.318201153237     1.007825032230

  Basis Set: AUG-CC-PVTZ
    Blend: AUG-CC-PVTZ
  Basis Set: (AUG-CC-PVTZ AUX)
    Blend: AUG-CC-PVTZ-JKFIT
	 Reference Energy          =    -719.4769884279993448 [Eh]
	 Singles Energy            =      -0.0000000000000000 [Eh]
	 Same-Spin Energy          =      -0.3772096967275467 [Eh]
	 Opposite-Spin Energy      =      -1.1620952868763665 [Eh]
	 Correlation Energy        =      -1.5393049836039132 [Eh]
	 Total Energy              =    -721.0162934116032147 [Eh]

	 ================> DF-SCS-MP2 Energies <==================
	-----------------------------------------------------------
	 SCS Same-Spin Scale       =       0.3333333333333333 [-]
	 SCS Opposite-Spin Scale   =       1.2000000000000000 [-]
	 SCS Same-Spin Energy      =      -0.1257365655758489 [Eh]
	 SCS Opposite-Spin Energy  =      -1.3945143442516399 [Eh]
	 SCS Correlation Energy    =      -1.5202509098274888 [Eh]
	 SCS Total Energy          =    -720.9972393378268407 [Eh]
	-----------------------------------------------------------

  Dipole Moment: [D]
     X:    -2.3149      Y:     1.6520      Z:    -0.6597     Total:     2.9194

*** Psi4 exiting successfully. Buy a developer a beer!
