                               Psi4 1.3.2 release

  ==> Input File <==

--------------------------------------------------------------------------
#psi4
#
memory 32 gb

molecule  {
0 1
  S        2.2579180    -0.2726900    -0.2934460
  O       -2.2551230    -0.6936910    -0.5624970
  O       -0.5935940    -1.5242440     0.7320250
  N       -1.2606890     1.7473760     0.2743420
  C       -0.4172928     0.7452440    -0.1790221
  C        0.9828140     0.8061630     0.4219110
  C       -1.0384360    -0.6244090     0.0410490
  H       -0.2310720     0.7525000    -1.3524110
  H        1.3604600     1.8262100     0.3009430
  H        0.8701070     0.6147400     1.4903500
  H       -2.1754500     1.6690270    -0.1683570
  H       -0.8885410     2.6612730     0.0174870
  H        1.7688800    -1.4122240     0.2118940
  H       -2.6365250    -1.5573750    -0.2997250
units angstrom
no_reorient  #important for SAPT in psi4, default
symmetry c1  #important for SAPT in psi4, default
}

set PROPERTIES_ORIGIN ["COM"]
properties('MP2/aug-cc-pvtz', properties = ['dipole'])
--------------------------------------------------------------------------

    Molecular point group: c1
  Charge       = 0
  Multiplicity = 1
  Basis Set: AUG-CC-PVTZ
    Blend: AUG-CC-PVTZ
  Basis Set: (AUG-CC-PVTZ AUX)
    Blend: AUG-CC-PVTZ-JKFIT

    Orbital Energies [Eh]
    ---------------------

    Doubly Occupied:

       1A    -91.951936     2A    -20.627833     3A    -20.565114
       4A    -15.569955     5A    -11.400637     6A    -11.298232
       7A    -11.267472     8A     -8.953126     9A     -6.634490
      10A     -6.633532    11A     -6.632545    12A     -1.473138
      13A     -1.370310    14A     -1.240877    15A     -1.062154
      16A     -0.961698    17A     -0.881402    18A     -0.786368
      19A     -0.721052    20A     -0.711558    21A     -0.687973
      22A     -0.659768    23A     -0.623011    24A     -0.613670
      25A     -0.564427    26A     -0.547920    27A     -0.525496
      28A     -0.496745    29A     -0.477726    30A     -0.451560
      31A     -0.407864    32A     -0.359582

  @DF-RHF Final Energy:  -719.52890845093657

   => Energetics <=

    Nuclear Repulsion Energy =            380.5500212552857988
    One-Electron Energy =               -1745.8395230121736859
    Two-Electron Energy =                 645.7605933059512608
    Total Energy =                       -719.5289084509365694
  Basis Set: (AUG-CC-PVTZ AUX)
    Blend: AUG-CC-PVTZ-RI
    Molecular point group: c1

    Geometry (in Angstrom), charge = 0, multiplicity = 1:

       Center              X                  Y                   Z               Mass
    ------------   -----------------  -----------------  -----------------  -----------------
         S            2.246766342635    -0.239540483188    -0.299892410948    31.972071174400
         O           -2.266274657365    -0.660541483188    -0.568943410948    15.994914619570
         O           -0.604745657365    -1.491094483188     0.725578589052    15.994914619570
         N           -1.271840657365     1.780525516812     0.267895589052    14.003074004430
         C           -0.428444457365     0.778393516812    -0.185468510948    12.000000000000
         C            0.971662342635     0.839312516812     0.415464589052    12.000000000000
         C           -1.049587657365    -0.591259483188     0.034602589052    12.000000000000
         H           -0.242223657365     0.785649516812    -1.358857410948     1.007825032230
         H            1.349308342635     1.859359516812     0.294496589052     1.007825032230
         H            0.858955342635     0.647889516812     1.483903589052     1.007825032230
         H           -2.186601657365     1.702176516812    -0.174803410948     1.007825032230
         H           -0.899692657365     2.694422516812     0.011040589052     1.007825032230
         H            1.757728342635    -1.379074483188     0.205447589052     1.007825032230
         H           -2.647676657365    -1.524225483188    -0.306171410948     1.007825032230

  Basis Set: AUG-CC-PVTZ
    Blend: AUG-CC-PVTZ
  Basis Set: (AUG-CC-PVTZ AUX)
    Blend: AUG-CC-PVTZ-JKFIT
	 Reference Energy          =    -719.5289084509365694 [Eh]
	 Singles Energy            =      -0.0000000000000000 [Eh]
	 Same-Spin Energy          =      -0.3753560022255767 [Eh]
	 Opposite-Spin Energy      =      -1.1596531580833656 [Eh]
	 Correlation Energy        =      -1.5350091603089422 [Eh]
	 Total Energy              =    -721.0639176112455289 [Eh]

	 ================> DF-SCS-MP2 Energies <==================
	-----------------------------------------------------------
	 SCS Same-Spin Scale       =       0.3333333333333333 [-]
	 SCS Opposite-Spin Scale   =       1.2000000000000000 [-]
	 SCS Same-Spin Energy      =      -0.1251186674085256 [Eh]
	 SCS Opposite-Spin Energy  =      -1.3915837897000387 [Eh]
	 SCS Correlation Energy    =      -1.5167024571085643 [Eh]
	 SCS Total Energy          =    -721.0456109080450915 [Eh]
	-----------------------------------------------------------

  Dipole Moment: [D]
     X:    -2.1061      Y:     1.3859      Z:    -1.0565     Total:     2.7336

*** Psi4 exiting successfully. Buy a developer a beer!
