                               Psi4 1.3.2 release

  ==> Input File <==

--------------------------------------------------------------------------
#psi4
#
memory 32 gb

molecule  {
0 1
  O        1.5353870    -1.6551020    -0.6345320
  N        1.0070505     0.3802047     0.2466199
  C       -0.3967540     0.1698250     0.1061120
  C       -0.9676930    -1.0124890     0.5938810
  C       -1.2114290     1.1495920    -0.4744810
  C        1.4334500     1.7470840     0.6117170
  C        1.9002030    -0.5546920    -0.2186930
  C       -2.3437090    -1.2082300     0.4876030
  C       -2.5901160     0.9502090    -0.5611550
  C       -3.1615570    -0.2292440    -0.0824530
  C        3.3698180    -0.1837380    -0.1580780
  H       -0.3333780    -1.7703900     1.0389010
  H       -0.7697760     2.0586490    -0.8748040
  H        2.3549360     1.7005960     1.1924500
  H        0.6579290     2.1862960     1.2404600
  H        1.5971270     2.4005710    -0.2540720
  H       -2.7807830    -2.1295030     0.8652160
  H       -3.2150400     1.7168070    -1.0131720
  H       -4.2346400    -0.3865090    -0.1557870
  H        3.7069390    -0.0577910     0.8753960
  H        3.5849000     0.7417310    -0.6992960
  H        3.9227600    -1.0051460    -0.6125730
units angstrom
no_reorient  #important for SAPT in psi4, default
symmetry c1  #important for SAPT in psi4, default
}

set PROPERTIES_ORIGIN ["COM"]
properties('MP2/aug-cc-pvtz', properties = ['dipole'])
--------------------------------------------------------------------------

    Molecular point group: c1
  Charge       = 0
  Multiplicity = 1
  Basis Set: AUG-CC-PVTZ
    Blend: AUG-CC-PVTZ
  Basis Set: (AUG-CC-PVTZ AUX)
    Blend: AUG-CC-PVTZ-JKFIT

    Orbital Energies [Eh]
    ---------------------

    Doubly Occupied:

       1A    -20.516644     2A    -15.599251     3A    -11.354473
       4A    -11.278585     5A    -11.278320     6A    -11.240728
       7A    -11.238463     8A    -11.237141     9A    -11.234853
      10A    -11.232129    11A    -11.230224    12A     -1.376354
      13A     -1.257728    14A     -1.142251    15A     -1.030399
      16A     -1.016067    17A     -0.992212    18A     -0.954802
      19A     -0.842378    20A     -0.827333    21A     -0.755060
      22A     -0.694633    23A     -0.678945    24A     -0.661333
      25A     -0.656787    26A     -0.618642    27A     -0.612703
      28A     -0.587873    29A     -0.584154    30A     -0.575546
      31A     -0.564693    32A     -0.558175    33A     -0.524459
      34A     -0.510639    35A     -0.496640    36A     -0.495706
      37A     -0.422862    38A     -0.405601    39A     -0.335891
      40A     -0.315851

  @DF-RHF Final Energy:  -476.70045987847612

   => Energetics <=

    Nuclear Repulsion Energy =            589.1072412019918829
    One-Electron Energy =               -1815.7423473423034466
    Two-Electron Energy =                 749.9346462618353826
    Total Energy =                       -476.7004598784761811
  Basis Set: (AUG-CC-PVTZ AUX)
    Blend: AUG-CC-PVTZ-RI
    Molecular point group: c1

    Geometry (in Angstrom), charge = 0, multiplicity = 1:

       Center              X                  Y                   Z               Mass
    ------------   -----------------  -----------------  -----------------  -----------------
         O            1.565082604043    -1.616792220343    -0.624959198677    15.994914619570
         N            1.036746104043     0.418514479657     0.256192701323    14.003074004430
         C           -0.367058395957     0.208134779657     0.115684801323    12.000000000000
         C           -0.937997395957    -0.974179220343     0.603453801323    12.000000000000
         C           -1.181733395957     1.187901779657    -0.464908198677    12.000000000000
         C            1.463145604043     1.785393779657     0.621289801323    12.000000000000
         C            1.929898604043    -0.516382220343    -0.209120198677    12.000000000000
         C           -2.314013395957    -1.169920220343     0.497175801323    12.000000000000
         C           -2.560420395957     0.988518779657    -0.551582198677    12.000000000000
         C           -3.131861395957    -0.190934220343    -0.072880198677    12.000000000000
         C            3.399513604043    -0.145428220343    -0.148505198677    12.000000000000
         H           -0.303682395957    -1.732080220343     1.048473801323     1.007825032230
         H           -0.740080395957     2.096958779657    -0.865231198677     1.007825032230
         H            2.384631604043     1.738905779657     1.202022801323     1.007825032230
         H            0.687624604043     2.224605779657     1.250032801323     1.007825032230
         H            1.626822604043     2.438880779657    -0.244499198677     1.007825032230
         H           -2.751087395957    -2.091193220343     0.874788801323     1.007825032230
         H           -3.185344395957     1.755116779657    -1.003599198677     1.007825032230
         H           -4.204944395957    -0.348199220343    -0.146214198677     1.007825032230
         H            3.736634604043    -0.019481220343     0.884968801323     1.007825032230
         H            3.614595604043     0.780040779657    -0.689723198677     1.007825032230
         H            3.952455604043    -0.966836220343    -0.603000198677     1.007825032230

  Basis Set: AUG-CC-PVTZ
    Blend: AUG-CC-PVTZ
  Basis Set: (AUG-CC-PVTZ AUX)
    Blend: AUG-CC-PVTZ-JKFIT
	 Reference Energy          =    -476.7004598784761242 [Eh]
	 Singles Energy            =      -0.0000000000000000 [Eh]
	 Same-Spin Energy          =      -0.5114941820591954 [Eh]
	 Opposite-Spin Energy      =      -1.6153129767727155 [Eh]
	 Correlation Energy        =      -2.1268071588319106 [Eh]
	 Total Energy              =    -478.8272670373080473 [Eh]

	 ================> DF-SCS-MP2 Energies <==================
	-----------------------------------------------------------
	 SCS Same-Spin Scale       =       0.3333333333333333 [-]
	 SCS Opposite-Spin Scale   =       1.2000000000000000 [-]
	 SCS Same-Spin Energy      =      -0.1704980606863984 [Eh]
	 SCS Opposite-Spin Energy  =      -1.9383755721272584 [Eh]
	 SCS Correlation Energy    =      -2.1088736328136570 [Eh]
	 SCS Total Energy          =    -478.8093335112897648 [Eh]
	-----------------------------------------------------------

  Dipole Moment: [D]
     X:     0.6664      Y:     3.4001      Z:     1.2736     Total:     3.6914

*** Psi4 exiting successfully. Buy a developer a beer!
