                               Psi4 1.3.2 release

  ==> Input File <==

--------------------------------------------------------------------------
#psi4
#
memory 32 gb

molecule  {
0 1
  O        1.5353870    -1.6551020    -0.6345320
  N        1.0046660     0.4022290     0.2352610
  C       -0.2002590     0.2024107     0.1242202
  C       -0.9676930    -1.0124890     0.5938810
  C       -1.2114290     1.1495920    -0.4744810
  C        1.4334500     1.7470840     0.6117170
  C        1.9002030    -0.5546920    -0.2186930
  C       -2.3437090    -1.2082300     0.4876030
  C       -2.5901160     0.9502090    -0.5611550
  C       -3.1615570    -0.2292440    -0.0824530
  C        3.3698180    -0.1837380    -0.1580780
  H       -0.3333780    -1.7703900     1.0389010
  H       -0.7697760     2.0586490    -0.8748040
  H        2.3549360     1.7005960     1.1924500
  H        0.6579290     2.1862960     1.2404600
  H        1.5971270     2.4005710    -0.2540720
  H       -2.7807830    -2.1295030     0.8652160
  H       -3.2150400     1.7168070    -1.0131720
  H       -4.2346400    -0.3865090    -0.1557870
  H        3.7069390    -0.0577910     0.8753960
  H        3.5849000     0.7417310    -0.6992960
  H        3.9227600    -1.0051460    -0.6125730
units angstrom
no_reorient  #important for SAPT in psi4, default
symmetry c1  #important for SAPT in psi4, default
}

set PROPERTIES_ORIGIN ["COM"]
properties('MP2/aug-cc-pvtz', properties = ['dipole'])
--------------------------------------------------------------------------

    Molecular point group: c1
  Charge       = 0
  Multiplicity = 1
  Basis Set: AUG-CC-PVTZ
    Blend: AUG-CC-PVTZ
  Basis Set: (AUG-CC-PVTZ AUX)
    Blend: AUG-CC-PVTZ-JKFIT

    Orbital Energies [Eh]
    ---------------------

    Doubly Occupied:

       1A    -20.535934     2A    -15.610114     3A    -11.371126
       4A    -11.288433     5A    -11.287180     6A    -11.250928
       7A    -11.236231     8A    -11.231459     9A    -11.231199
      10A    -11.228218    11A    -11.222105    12A     -1.403429
      13A     -1.318580    14A     -1.118567    15A     -1.044951
      16A     -1.005296    17A     -0.993095    18A     -0.957681
      19A     -0.873496    20A     -0.810330    21A     -0.756049
      22A     -0.704929    23A     -0.694794    24A     -0.679169
      25A     -0.670608    26A     -0.612836    27A     -0.603064
      28A     -0.598180    29A     -0.588433    30A     -0.580083
      31A     -0.569425    32A     -0.566528    33A     -0.534621
      34A     -0.513240    35A     -0.487784    36A     -0.469199
      37A     -0.439095    38A     -0.408294    39A     -0.326637
      40A     -0.283421

  @DF-RHF Final Energy:  -476.63617601532167

   => Energetics <=

    Nuclear Repulsion Energy =            589.9961339031021907
    One-Electron Energy =               -1817.0551365881462971
    Two-Electron Energy =                 750.4228266697224399
    Total Energy =                       -476.6361760153216665
  Basis Set: (AUG-CC-PVTZ AUX)
    Blend: AUG-CC-PVTZ-RI
    Molecular point group: c1

    Geometry (in Angstrom), charge = 0, multiplicity = 1:

       Center              X                  Y                   Z               Mass
    ------------   -----------------  -----------------  -----------------  -----------------
         O            1.549490396479    -1.621483776799    -0.625349843265    15.994914619570
         N            1.018769396479     0.435847223201     0.244443156735    14.003074004430
         C           -0.186155603521     0.236028923201     0.133402356735    12.000000000000
         C           -0.953589603521    -0.978870776799     0.603063156735    12.000000000000
         C           -1.197325603521     1.183210223201    -0.465298843265    12.000000000000
         C            1.447553396479     1.780702223201     0.620899156735    12.000000000000
         C            1.914306396479    -0.521073776799    -0.209510843265    12.000000000000
         C           -2.329605603521    -1.174611776799     0.496785156735    12.000000000000
         C           -2.576012603521     0.983827223201    -0.551972843265    12.000000000000
         C           -3.147453603521    -0.195625776799    -0.073270843265    12.000000000000
         C            3.383921396479    -0.150119776799    -0.148895843265    12.000000000000
         H           -0.319274603521    -1.736771776799     1.048083156735     1.007825032230
         H           -0.755672603521     2.092267223201    -0.865621843265     1.007825032230
         H            2.369039396479     1.734214223201     1.201632156735     1.007825032230
         H            0.672032396479     2.219914223201     1.249642156735     1.007825032230
         H            1.611230396479     2.434189223201    -0.244889843265     1.007825032230
         H           -2.766679603521    -2.095884776799     0.874398156735     1.007825032230
         H           -3.200936603521     1.750425223201    -1.003989843265     1.007825032230
         H           -4.220536603521    -0.352890776799    -0.146604843265     1.007825032230
         H            3.721042396479    -0.024172776799     0.884578156735     1.007825032230
         H            3.599003396479     0.775349223201    -0.690113843265     1.007825032230
         H            3.936863396479    -0.971527776799    -0.603390843265     1.007825032230

  Basis Set: AUG-CC-PVTZ
    Blend: AUG-CC-PVTZ
  Basis Set: (AUG-CC-PVTZ AUX)
    Blend: AUG-CC-PVTZ-JKFIT
	 Reference Energy          =    -476.6361760153216665 [Eh]
	 Singles Energy            =      -0.0000000000000000 [Eh]
	 Same-Spin Energy          =      -0.5157965217791131 [Eh]
	 Opposite-Spin Energy      =      -1.6219834398986841 [Eh]
	 Correlation Energy        =      -2.1377799616777970 [Eh]
	 Total Energy              =    -478.7739559769994457 [Eh]

	 ================> DF-SCS-MP2 Energies <==================
	-----------------------------------------------------------
	 SCS Same-Spin Scale       =       0.3333333333333333 [-]
	 SCS Opposite-Spin Scale   =       1.2000000000000000 [-]
	 SCS Same-Spin Energy      =      -0.1719321739263710 [Eh]
	 SCS Opposite-Spin Energy  =      -1.9463801278784207 [Eh]
	 SCS Correlation Energy    =      -2.1183123018047918 [Eh]
	 SCS Total Energy          =    -478.7544883171264587 [Eh]
	-----------------------------------------------------------

  Dipole Moment: [D]
     X:     1.9349      Y:     3.3476      Z:     1.2877     Total:     4.0753

*** Psi4 exiting successfully. Buy a developer a beer!
