                               Psi4 1.3.2 release

  ==> Input File <==

--------------------------------------------------------------------------
#psi4
#
memory 32 gb

molecule  {
0 1
  O        1.5353870    -1.6551020    -0.6345320
  N        1.0018546     0.4241825     0.2238628
  C       -0.3967540     0.1698250     0.1061120
  C       -0.9676930    -1.0124890     0.5938810
  C       -1.2114290     1.1495920    -0.4744810
  C        1.4334500     1.7470840     0.6117170
  C        1.9002030    -0.5546920    -0.2186930
  C       -2.3437090    -1.2082300     0.4876030
  C       -2.5901160     0.9502090    -0.5611550
  C       -3.1615570    -0.2292440    -0.0824530
  C        3.3698180    -0.1837380    -0.1580780
  H       -0.3333780    -1.7703900     1.0389010
  H       -0.7697760     2.0586490    -0.8748040
  H        2.3549360     1.7005960     1.1924500
  H        0.6579290     2.1862960     1.2404600
  H        1.5971270     2.4005710    -0.2540720
  H       -2.7807830    -2.1295030     0.8652160
  H       -3.2150400     1.7168070    -1.0131720
  H       -4.2346400    -0.3865090    -0.1557870
  H        3.7069390    -0.0577910     0.8753960
  H        3.5849000     0.7417310    -0.6992960
  H        3.9227600    -1.0051460    -0.6125730
units angstrom
no_reorient  #important for SAPT in psi4, default
symmetry c1  #important for SAPT in psi4, default
}

set PROPERTIES_ORIGIN ["COM"]
properties('MP2/aug-cc-pvtz', properties = ['dipole'])
--------------------------------------------------------------------------

    Molecular point group: c1
  Charge       = 0
  Multiplicity = 1
  Basis Set: AUG-CC-PVTZ
    Blend: AUG-CC-PVTZ
  Basis Set: (AUG-CC-PVTZ AUX)
    Blend: AUG-CC-PVTZ-JKFIT

    Orbital Energies [Eh]
    ---------------------

    Doubly Occupied:

       1A    -20.521840     2A    -15.597463     3A    -11.358748
       4A    -11.278168     5A    -11.275029     6A    -11.241461
       7A    -11.237548     8A    -11.235622     9A    -11.235007
      10A    -11.231638    11A    -11.230721    12A     -1.376948
      13A     -1.260231    14A     -1.141971    15A     -1.030036
      16A     -1.015628    17A     -0.994921    18A     -0.950808
      19A     -0.840952    20A     -0.825609    21A     -0.754720
      22A     -0.696471    23A     -0.680389    24A     -0.662637
      25A     -0.657082    26A     -0.618391    27A     -0.612763
      28A     -0.588266    29A     -0.584267    30A     -0.579060
      31A     -0.563928    32A     -0.559773    33A     -0.521933
      34A     -0.510948    35A     -0.497401    36A     -0.495650
      37A     -0.424330    38A     -0.404618    39A     -0.335509
      40A     -0.314547

  @DF-RHF Final Energy:  -476.69974346628140

   => Energetics <=

    Nuclear Repulsion Energy =            588.9903643108292499
    One-Electron Energy =               -1815.4941523880943350
    Two-Electron Energy =                 749.8040446109838513
    Total Energy =                       -476.6997434662813475
  Basis Set: (AUG-CC-PVTZ AUX)
    Blend: AUG-CC-PVTZ-RI
    Molecular point group: c1

    Geometry (in Angstrom), charge = 0, multiplicity = 1:

       Center              X                  Y                   Z               Mass
    ------------   -----------------  -----------------  -----------------  -----------------
         O            1.565570641263    -1.620922939426    -0.622821684130    15.994914619570
         N            1.032038241263     0.458361560574     0.235573115870    14.003074004430
         C           -0.366570358737     0.204004060574     0.117822315870    12.000000000000
         C           -0.937509358737    -0.978309939426     0.605591315870    12.000000000000
         C           -1.181245358737     1.183771060574    -0.462770684130    12.000000000000
         C            1.463633641263     1.781263060574     0.623427315870    12.000000000000
         C            1.930386641263    -0.520512939426    -0.206982684130    12.000000000000
         C           -2.313525358737    -1.174050939426     0.499313315870    12.000000000000
         C           -2.559932358737     0.984388060574    -0.549444684130    12.000000000000
         C           -3.131373358737    -0.195064939426    -0.070742684130    12.000000000000
         C            3.400001641263    -0.149558939426    -0.146367684130    12.000000000000
         H           -0.303194358737    -1.736210939426     1.050611315870     1.007825032230
         H           -0.739592358737     2.092828060574    -0.863093684130     1.007825032230
         H            2.385119641263     1.734775060574     1.204160315870     1.007825032230
         H            0.688112641263     2.220475060574     1.252170315870     1.007825032230
         H            1.627310641263     2.434750060574    -0.242361684130     1.007825032230
         H           -2.750599358737    -2.095323939426     0.876926315870     1.007825032230
         H           -3.184856358737     1.750986060574    -1.001461684130     1.007825032230
         H           -4.204456358737    -0.352329939426    -0.144076684130     1.007825032230
         H            3.737122641263    -0.023611939426     0.887106315870     1.007825032230
         H            3.615083641263     0.775910060574    -0.687585684130     1.007825032230
         H            3.952943641263    -0.970966939426    -0.600862684130     1.007825032230

  Basis Set: AUG-CC-PVTZ
    Blend: AUG-CC-PVTZ
  Basis Set: (AUG-CC-PVTZ AUX)
    Blend: AUG-CC-PVTZ-JKFIT
	 Reference Energy          =    -476.6997434662814044 [Eh]
	 Singles Energy            =      -0.0000000000000000 [Eh]
	 Same-Spin Energy          =      -0.5117769656707327 [Eh]
	 Opposite-Spin Energy      =      -1.6156134600153271 [Eh]
	 Correlation Energy        =      -2.1273904256860598 [Eh]
	 Total Energy              =    -478.8271338919674918 [Eh]

	 ================> DF-SCS-MP2 Energies <==================
	-----------------------------------------------------------
	 SCS Same-Spin Scale       =       0.3333333333333333 [-]
	 SCS Opposite-Spin Scale   =       1.2000000000000000 [-]
	 SCS Same-Spin Energy      =      -0.1705923218902442 [Eh]
	 SCS Opposite-Spin Energy  =      -1.9387361520183926 [Eh]
	 SCS Correlation Energy    =      -2.1093284739086369 [Eh]
	 SCS Total Energy          =    -478.8090719401900515 [Eh]
	-----------------------------------------------------------

  Dipole Moment: [D]
     X:     0.7360      Y:     3.2540      Z:     1.2676     Total:     3.5689

*** Psi4 exiting successfully. Buy a developer a beer!
