                               Psi4 1.3.2 release

  ==> Input File <==

--------------------------------------------------------------------------
#psi4
#
memory 32 gb

molecule  {
0 1
  O        1.5353870    -1.6551020    -0.6345320
  N        1.0046660     0.4022290     0.2352610
  C       -0.3919077     0.1478342     0.0954961
  C       -0.9676930    -1.0124890     0.5938810
  C       -1.2114290     1.1495920    -0.4744810
  C        1.4334500     1.7470840     0.6117170
  C        1.9002030    -0.5546920    -0.2186930
  C       -2.3437090    -1.2082300     0.4876030
  C       -2.5901160     0.9502090    -0.5611550
  C       -3.1615570    -0.2292440    -0.0824530
  C        3.3698180    -0.1837380    -0.1580780
  H       -0.3333780    -1.7703900     1.0389010
  H       -0.7697760     2.0586490    -0.8748040
  H        2.3549360     1.7005960     1.1924500
  H        0.6579290     2.1862960     1.2404600
  H        1.5971270     2.4005710    -0.2540720
  H       -2.7807830    -2.1295030     0.8652160
  H       -3.2150400     1.7168070    -1.0131720
  H       -4.2346400    -0.3865090    -0.1557870
  H        3.7069390    -0.0577910     0.8753960
  H        3.5849000     0.7417310    -0.6992960
  H        3.9227600    -1.0051460    -0.6125730
units angstrom
no_reorient  #important for SAPT in psi4, default
symmetry c1  #important for SAPT in psi4, default
}

set PROPERTIES_ORIGIN ["COM"]
properties('MP2/aug-cc-pvtz', properties = ['dipole'])
--------------------------------------------------------------------------

    Molecular point group: c1
  Charge       = 0
  Multiplicity = 1
  Basis Set: AUG-CC-PVTZ
    Blend: AUG-CC-PVTZ
  Basis Set: (AUG-CC-PVTZ AUX)
    Blend: AUG-CC-PVTZ-JKFIT

    Orbital Energies [Eh]
    ---------------------

    Doubly Occupied:

       1A    -20.519069     2A    -15.598427     3A    -11.356127
       4A    -11.278443     5A    -11.277325     6A    -11.240813
       7A    -11.238372     8A    -11.237157     9A    -11.235166
      10A    -11.231768    11A    -11.228954    12A     -1.376693
      13A     -1.258759    14A     -1.141975    15A     -1.030255
      16A     -1.015809    17A     -0.993345    18A     -0.953189
      19A     -0.840609    20A     -0.827166    21A     -0.754143
      22A     -0.695971    23A     -0.679508    24A     -0.661920
      25A     -0.657244    26A     -0.618326    27A     -0.612492
      28A     -0.587941    29A     -0.584375    30A     -0.577107
      31A     -0.564542    32A     -0.559068    33A     -0.523119
      34A     -0.510848    35A     -0.497348    36A     -0.495333
      37A     -0.423363    38A     -0.405153    39A     -0.335424
      40A     -0.315274

  @DF-RHF Final Energy:  -476.70001149085130

   => Energetics <=

    Nuclear Repulsion Energy =            589.0990747721575644
    One-Electron Energy =               -1815.7223262732084095
    Two-Electron Energy =                 749.9232400101996063
    Total Energy =                       -476.7000114908512387
  Basis Set: (AUG-CC-PVTZ AUX)
    Blend: AUG-CC-PVTZ-RI
    Molecular point group: c1

    Geometry (in Angstrom), charge = 0, multiplicity = 1:

       Center              X                  Y                   Z               Mass
    ------------   -----------------  -----------------  -----------------  -----------------
         O            1.564916487898    -1.617090832426    -0.623037797357    15.994914619570
         N            1.034195487898     0.440240167574     0.246755202643    14.003074004430
         C           -0.362378212102     0.185845367574     0.106990302643    12.000000000000
         C           -0.938163512102    -0.974477832426     0.605375202643    12.000000000000
         C           -1.181899512102     1.187603167574    -0.462986797357    12.000000000000
         C            1.462979487898     1.785095167574     0.623211202643    12.000000000000
         C            1.929732487898    -0.516680832426    -0.207198797357    12.000000000000
         C           -2.314179512102    -1.170218832426     0.499097202643    12.000000000000
         C           -2.560586512102     0.988220167574    -0.549660797357    12.000000000000
         C           -3.132027512102    -0.191232832426    -0.070958797357    12.000000000000
         C            3.399347487898    -0.145726832426    -0.146583797357    12.000000000000
         H           -0.303848512102    -1.732378832426     1.050395202643     1.007825032230
         H           -0.740246512102     2.096660167574    -0.863309797357     1.007825032230
         H            2.384465487898     1.738607167574     1.203944202643     1.007825032230
         H            0.687458487898     2.224307167574     1.251954202643     1.007825032230
         H            1.626656487898     2.438582167574    -0.242577797357     1.007825032230
         H           -2.751253512102    -2.091491832426     0.876710202643     1.007825032230
         H           -3.185510512102     1.754818167574    -1.001677797357     1.007825032230
         H           -4.205110512102    -0.348497832426    -0.144292797357     1.007825032230
         H            3.736468487898    -0.019779832426     0.886890202643     1.007825032230
         H            3.614429487898     0.779742167574    -0.687801797357     1.007825032230
         H            3.952289487898    -0.967134832426    -0.601078797357     1.007825032230

  Basis Set: AUG-CC-PVTZ
    Blend: AUG-CC-PVTZ
  Basis Set: (AUG-CC-PVTZ AUX)
    Blend: AUG-CC-PVTZ-JKFIT
	 Reference Energy          =    -476.7000114908512955 [Eh]
	 Singles Energy            =      -0.0000000000000000 [Eh]
	 Same-Spin Energy          =      -0.5116505329971304 [Eh]
	 Opposite-Spin Energy      =      -1.6154722939822235 [Eh]
	 Correlation Energy        =      -2.1271228269793538 [Eh]
	 Total Energy              =    -478.8271343178306552 [Eh]

	 ================> DF-SCS-MP2 Energies <==================
	-----------------------------------------------------------
	 SCS Same-Spin Scale       =       0.3333333333333333 [-]
	 SCS Opposite-Spin Scale   =       1.2000000000000000 [-]
	 SCS Same-Spin Energy      =      -0.1705501776657101 [Eh]
	 SCS Opposite-Spin Energy  =      -1.9385667527786681 [Eh]
	 SCS Correlation Energy    =      -2.1091169304443782 [Eh]
	 SCS Total Energy          =    -478.8091284212956680 [Eh]
	-----------------------------------------------------------

  Dipole Moment: [D]
     X:     0.7001      Y:     3.3366      Z:     1.2802     Total:     3.6417

*** Psi4 exiting successfully. Buy a developer a beer!
