                               Psi4 1.3.2 release

  ==> Input File <==

--------------------------------------------------------------------------
#psi4
#
memory 32 gb

molecule  {
0 1
  O        1.5353870    -1.6551020    -0.6345320
  N        1.0046660     0.4022290     0.2352610
  C       -0.4010332     0.1935846     0.1121904
  C       -0.9676930    -1.0124890     0.5938810
  C       -1.2114290     1.1495920    -0.4744810
  C        1.4334500     1.7470840     0.6117170
  C        1.9002030    -0.5546920    -0.2186930
  C       -2.3437090    -1.2082300     0.4876030
  C       -2.5901160     0.9502090    -0.5611550
  C       -3.1615570    -0.2292440    -0.0824530
  C        3.3698180    -0.1837380    -0.1580780
  H       -0.3333780    -1.7703900     1.0389010
  H       -0.7697760     2.0586490    -0.8748040
  H        2.3549360     1.7005960     1.1924500
  H        0.6579290     2.1862960     1.2404600
  H        1.5971270     2.4005710    -0.2540720
  H       -2.7807830    -2.1295030     0.8652160
  H       -3.2150400     1.7168070    -1.0131720
  H       -4.2346400    -0.3865090    -0.1557870
  H        3.7069390    -0.0577910     0.8753960
  H        3.5849000     0.7417310    -0.6992960
  H        3.9227600    -1.0051460    -0.6125730
units angstrom
no_reorient  #important for SAPT in psi4, default
symmetry c1  #important for SAPT in psi4, default
}

set PROPERTIES_ORIGIN ["COM"]
properties('MP2/aug-cc-pvtz', properties = ['dipole'])
--------------------------------------------------------------------------

    Molecular point group: c1
  Charge       = 0
  Multiplicity = 1
  Basis Set: AUG-CC-PVTZ
    Blend: AUG-CC-PVTZ
  Basis Set: (AUG-CC-PVTZ AUX)
    Blend: AUG-CC-PVTZ-JKFIT

    Orbital Energies [Eh]
    ---------------------

    Doubly Occupied:

       1A    -20.519373     2A    -15.598372     3A    -11.357104
       4A    -11.278302     5A    -11.276080     6A    -11.241346
       7A    -11.237850     8A    -11.235080     9A    -11.234649
      10A    -11.232348    11A    -11.231953    12A     -1.376517
      13A     -1.259216    14A     -1.142242    15A     -1.030490
      16A     -1.015669    17A     -0.993683    18A     -0.952598
      19A     -0.842675    20A     -0.825688    21A     -0.755606
      22A     -0.695119    23A     -0.679797    24A     -0.662308
      25A     -0.656605    26A     -0.618961    27A     -0.612564
      28A     -0.588126    29A     -0.584041    30A     -0.576840
      31A     -0.564667    32A     -0.559013    33A     -0.523272
      34A     -0.511236    35A     -0.496734    36A     -0.495166
      37A     -0.423936    38A     -0.405206    39A     -0.336290
      40A     -0.314847

  @DF-RHF Final Energy:  -476.70007589670132

   => Energetics <=

    Nuclear Repulsion Energy =            588.9984359960687925
    One-Electron Energy =               -1815.5138839905514487
    Two-Electron Energy =                 749.8153720977813919
    Total Energy =                       -476.7000758967012644
  Basis Set: (AUG-CC-PVTZ AUX)
    Blend: AUG-CC-PVTZ-RI
    Molecular point group: c1

    Geometry (in Angstrom), charge = 0, multiplicity = 1:

       Center              X                  Y                   Z               Mass
    ------------   -----------------  -----------------  -----------------  -----------------
         O            1.565651013085    -1.620773350767    -0.624381546613    15.994914619570
         N            1.034930013085     0.436557649233     0.245411453387    14.003074004430
         C           -0.370769186915     0.227913249233     0.122340853387    12.000000000000
         C           -0.937428986915    -0.978160350767     0.604031453387    12.000000000000
         C           -1.181164986915     1.183920649233    -0.464330546613    12.000000000000
         C            1.463714013085     1.781412649233     0.621867453387    12.000000000000
         C            1.930467013085    -0.520363350767    -0.208542546613    12.000000000000
         C           -2.313444986915    -1.173901350767     0.497753453387    12.000000000000
         C           -2.559851986915     0.984537649233    -0.551004546613    12.000000000000
         C           -3.131292986915    -0.194915350767    -0.072302546613    12.000000000000
         C            3.400082013085    -0.149409350767    -0.147927546613    12.000000000000
         H           -0.303113986915    -1.736061350767     1.049051453387     1.007825032230
         H           -0.739511986915     2.092977649233    -0.864653546613     1.007825032230
         H            2.385200013085     1.734924649233     1.202600453387     1.007825032230
         H            0.688193013085     2.220624649233     1.250610453387     1.007825032230
         H            1.627391013085     2.434899649233    -0.243921546613     1.007825032230
         H           -2.750518986915    -2.095174350767     0.875366453387     1.007825032230
         H           -3.184775986915     1.751135649233    -1.003021546613     1.007825032230
         H           -4.204375986915    -0.352180350767    -0.145636546613     1.007825032230
         H            3.737203013085    -0.023462350767     0.885546453387     1.007825032230
         H            3.615164013085     0.776059649233    -0.689145546613     1.007825032230
         H            3.953024013085    -0.970817350767    -0.602422546613     1.007825032230

  Basis Set: AUG-CC-PVTZ
    Blend: AUG-CC-PVTZ
  Basis Set: (AUG-CC-PVTZ AUX)
    Blend: AUG-CC-PVTZ-JKFIT
	 Reference Energy          =    -476.7000758967013212 [Eh]
	 Singles Energy            =      -0.0000000000000000 [Eh]
	 Same-Spin Energy          =      -0.5115797264964793 [Eh]
	 Opposite-Spin Energy      =      -1.6154509691514116 [Eh]
	 Correlation Energy        =      -2.1270306956478908 [Eh]
	 Total Energy              =    -478.8271065923491960 [Eh]

	 ================> DF-SCS-MP2 Energies <==================
	-----------------------------------------------------------
	 SCS Same-Spin Scale       =       0.3333333333333333 [-]
	 SCS Opposite-Spin Scale   =       1.2000000000000000 [-]
	 SCS Same-Spin Energy      =      -0.1705265754988264 [Eh]
	 SCS Opposite-Spin Energy  =      -1.9385411629816938 [Eh]
	 SCS Correlation Energy    =      -2.1090677384805203 [Eh]
	 SCS Total Energy          =    -478.8091436351818402 [Eh]
	-----------------------------------------------------------

  Dipole Moment: [D]
     X:     0.7018      Y:     3.3223      Z:     1.2603     Total:     3.6220

*** Psi4 exiting successfully. Buy a developer a beer!
