                               Psi4 1.3.2 release

  ==> Input File <==

--------------------------------------------------------------------------
#psi4
#
memory 32 gb

molecule  {
0 1
  O        1.5353870    -1.6551020    -0.6345320
  N        1.0046660     0.4022290     0.2352610
  C       -0.4159849     0.3131908     0.1431076
  C       -0.9676930    -1.0124890     0.5938810
  C       -1.2114290     1.1495920    -0.4744810
  C        1.4334500     1.7470840     0.6117170
  C        1.9002030    -0.5546920    -0.2186930
  C       -2.3437090    -1.2082300     0.4876030
  C       -2.5901160     0.9502090    -0.5611550
  C       -3.1615570    -0.2292440    -0.0824530
  C        3.3698180    -0.1837380    -0.1580780
  H       -0.3333780    -1.7703900     1.0389010
  H       -0.7697760     2.0586490    -0.8748040
  H        2.3549360     1.7005960     1.1924500
  H        0.6579290     2.1862960     1.2404600
  H        1.5971270     2.4005710    -0.2540720
  H       -2.7807830    -2.1295030     0.8652160
  H       -3.2150400     1.7168070    -1.0131720
  H       -4.2346400    -0.3865090    -0.1557870
  H        3.7069390    -0.0577910     0.8753960
  H        3.5849000     0.7417310    -0.6992960
  H        3.9227600    -1.0051460    -0.6125730
units angstrom
no_reorient  #important for SAPT in psi4, default
symmetry c1  #important for SAPT in psi4, default
}

set PROPERTIES_ORIGIN ["COM"]
properties('MP2/aug-cc-pvtz', properties = ['dipole'])
--------------------------------------------------------------------------

    Molecular point group: c1
  Charge       = 0
  Multiplicity = 1
  Basis Set: AUG-CC-PVTZ
    Blend: AUG-CC-PVTZ
  Basis Set: (AUG-CC-PVTZ AUX)
    Blend: AUG-CC-PVTZ-JKFIT

    Orbital Energies [Eh]
    ---------------------

    Doubly Occupied:

       1A    -20.520234     2A    -15.598322     3A    -11.359754
       4A    -11.277753     5A    -11.273275     6A    -11.242699
       7A    -11.241047     8A    -11.237424     9A    -11.234034
      10A    -11.231834    11A    -11.228098    12A     -1.376423
      13A     -1.260624    14A     -1.143627    15A     -1.036299
      16A     -1.013914    17A     -0.991748    18A     -0.951501
      19A     -0.847091    20A     -0.822619    21A     -0.757661
      22A     -0.693636    23A     -0.680724    24A     -0.664810
      25A     -0.655188    26A     -0.621760    27A     -0.609515
      28A     -0.588539    29A     -0.583433    30A     -0.576646
      31A     -0.563837    32A     -0.557923    33A     -0.524378
      34A     -0.514826    35A     -0.497810    36A     -0.482320
      37A     -0.425567    38A     -0.405115    39A     -0.342176
      40A     -0.310895

  @DF-RHF Final Energy:  -476.68002710436201

   => Energetics <=

    Nuclear Repulsion Energy =            588.7036359436851853
    One-Electron Energy =               -1814.8771702869366891
    Two-Electron Energy =                 749.4935072388894923
    Total Energy =                       -476.6800271043620114
  Basis Set: (AUG-CC-PVTZ AUX)
    Blend: AUG-CC-PVTZ-RI
    Molecular point group: c1

    Geometry (in Angstrom), charge = 0, multiplicity = 1:

       Center              X                  Y                   Z               Mass
    ------------   -----------------  -----------------  -----------------  -----------------
         O            1.566854497852    -1.630400633266    -0.626870118430    15.994914619570
         N            1.036133497852     0.426930366734     0.242922881570    14.003074004430
         C           -0.384517402148     0.337892166734     0.150769481570    12.000000000000
         C           -0.936225502148    -0.987787633266     0.601542881570    12.000000000000
         C           -1.179961502148     1.174293366734    -0.466819118430    12.000000000000
         C            1.464917497852     1.771785366734     0.619378881570    12.000000000000
         C            1.931670497852    -0.529990633266    -0.211031118430    12.000000000000
         C           -2.312241502148    -1.183528633266     0.495264881570    12.000000000000
         C           -2.558648502148     0.974910366734    -0.553493118430    12.000000000000
         C           -3.130089502148    -0.204542633266    -0.074791118430    12.000000000000
         C            3.401285497852    -0.159036633266    -0.150416118430    12.000000000000
         H           -0.301910502148    -1.745688633266     1.046562881570     1.007825032230
         H           -0.738308502148     2.083350366734    -0.867142118430     1.007825032230
         H            2.386403497852     1.725297366734     1.200111881570     1.007825032230
         H            0.689396497852     2.210997366734     1.248121881570     1.007825032230
         H            1.628594497852     2.425272366734    -0.246410118430     1.007825032230
         H           -2.749315502148    -2.104801633266     0.872877881570     1.007825032230
         H           -3.183572502148     1.741508366734    -1.005510118430     1.007825032230
         H           -4.203172502148    -0.361807633266    -0.148125118430     1.007825032230
         H            3.738406497852    -0.033089633266     0.883057881570     1.007825032230
         H            3.616367497852     0.766432366734    -0.691634118430     1.007825032230
         H            3.954227497852    -0.980444633266    -0.604911118430     1.007825032230

  Basis Set: AUG-CC-PVTZ
    Blend: AUG-CC-PVTZ
  Basis Set: (AUG-CC-PVTZ AUX)
    Blend: AUG-CC-PVTZ-JKFIT
	 Reference Energy          =    -476.6800271043620114 [Eh]
	 Singles Energy            =      -0.0000000000000000 [Eh]
	 Same-Spin Energy          =      -0.5113413336519250 [Eh]
	 Opposite-Spin Energy      =      -1.6167067765156720 [Eh]
	 Correlation Energy        =      -2.1280481101675970 [Eh]
	 Total Energy              =    -478.8080752145295946 [Eh]

	 ================> DF-SCS-MP2 Energies <==================
	-----------------------------------------------------------
	 SCS Same-Spin Scale       =       0.3333333333333333 [-]
	 SCS Opposite-Spin Scale   =       1.2000000000000000 [-]
	 SCS Same-Spin Energy      =      -0.1704471112173083 [Eh]
	 SCS Opposite-Spin Energy  =      -1.9400481318188063 [Eh]
	 SCS Correlation Energy    =      -2.1104952430361146 [Eh]
	 SCS Total Energy          =    -478.7905223473981096 [Eh]
	-----------------------------------------------------------

  Dipole Moment: [D]
     X:     0.7025      Y:     3.2953      Z:     1.2030     Total:     3.5777

*** Psi4 exiting successfully. Buy a developer a beer!
