                               Psi4 1.3.2 release

  ==> Input File <==

--------------------------------------------------------------------------
#psi4
#
memory 32 gb

molecule  {
0 1
  O        1.5353870    -1.6551020    -0.6345320
  N        0.9908684     0.4895516     0.1894669
  C       -0.3967540     0.1698250     0.1061120
  C       -0.9676930    -1.0124890     0.5938810
  C       -1.2114290     1.1495920    -0.4744810
  C        1.4334500     1.7470840     0.6117170
  C        1.9002030    -0.5546920    -0.2186930
  C       -2.3437090    -1.2082300     0.4876030
  C       -2.5901160     0.9502090    -0.5611550
  C       -3.1615570    -0.2292440    -0.0824530
  C        3.3698180    -0.1837380    -0.1580780
  H       -0.3333780    -1.7703900     1.0389010
  H       -0.7697760     2.0586490    -0.8748040
  H        2.3549360     1.7005960     1.1924500
  H        0.6579290     2.1862960     1.2404600
  H        1.5971270     2.4005710    -0.2540720
  H       -2.7807830    -2.1295030     0.8652160
  H       -3.2150400     1.7168070    -1.0131720
  H       -4.2346400    -0.3865090    -0.1557870
  H        3.7069390    -0.0577910     0.8753960
  H        3.5849000     0.7417310    -0.6992960
  H        3.9227600    -1.0051460    -0.6125730
units angstrom
no_reorient  #important for SAPT in psi4, default
symmetry c1  #important for SAPT in psi4, default
}

set PROPERTIES_ORIGIN ["COM"]
properties('MP2/aug-cc-pvtz', properties = ['dipole'])
--------------------------------------------------------------------------

    Molecular point group: c1
  Charge       = 0
  Multiplicity = 1
  Basis Set: AUG-CC-PVTZ
    Blend: AUG-CC-PVTZ
  Basis Set: (AUG-CC-PVTZ AUX)
    Blend: AUG-CC-PVTZ-JKFIT

    Orbital Energies [Eh]
    ---------------------

    Doubly Occupied:

       1A    -20.530164     2A    -15.594366     3A    -11.365209
       4A    -11.277680     5A    -11.269821     6A    -11.242880
       7A    -11.236299     8A    -11.235233     9A    -11.233195
      10A    -11.231514    11A    -11.230860    12A     -1.378876
      13A     -1.264278    14A     -1.141709    15A     -1.029712
      16A     -1.014963    17A     -0.999041    18A     -0.943913
      19A     -0.839411    20A     -0.822351    21A     -0.754144
      22A     -0.699308    23A     -0.682780    24A     -0.664622
      25A     -0.657242    26A     -0.618179    27A     -0.613140
      28A     -0.589415    29A     -0.586767    30A     -0.584078
      31A     -0.561590    32A     -0.559622    33A     -0.518698
      34A     -0.510878    35A     -0.498582    36A     -0.495152
      37A     -0.426118    38A     -0.402096    39A     -0.334952
      40A     -0.312577

  @DF-RHF Final Energy:  -476.69139875440152

   => Energetics <=

    Nuclear Repulsion Energy =            588.7967548883791551
    One-Electron Energy =               -1815.0734752552771170
    Two-Electron Energy =                 749.5853216124963865
    Total Energy =                       -476.6913987544015754
  Basis Set: (AUG-CC-PVTZ AUX)
    Blend: AUG-CC-PVTZ-RI
    Molecular point group: c1

    Geometry (in Angstrom), charge = 0, multiplicity = 1:

       Center              X                  Y                   Z               Mass
    ------------   -----------------  -----------------  -----------------  -----------------
         O            1.566602546133    -1.627062887053    -0.619590967712    15.994914619570
         N            1.022083946133     0.517590712947     0.204407932288    14.003074004430
         C           -0.365538453867     0.197864112947     0.121053032288    12.000000000000
         C           -0.936477453867    -0.984449887053     0.608822032288    12.000000000000
         C           -1.180213453867     1.177631112947    -0.459539967712    12.000000000000
         C            1.464665546133     1.775123112947     0.626658032288    12.000000000000
         C            1.931418546133    -0.526652887053    -0.203751967712    12.000000000000
         C           -2.312493453867    -1.180190887053     0.502544032288    12.000000000000
         C           -2.558900453867     0.978248112947    -0.546213967712    12.000000000000
         C           -3.130341453867    -0.201204887053    -0.067511967712    12.000000000000
         C            3.401033546133    -0.155698887053    -0.143136967712    12.000000000000
         H           -0.302162453867    -1.742350887053     1.053842032288     1.007825032230
         H           -0.738560453867     2.086688112947    -0.859862967712     1.007825032230
         H            2.386151546133     1.728635112947     1.207391032288     1.007825032230
         H            0.689144546133     2.214335112947     1.255401032288     1.007825032230
         H            1.628342546133     2.428610112947    -0.239130967712     1.007825032230
         H           -2.749567453867    -2.101463887053     0.880157032288     1.007825032230
         H           -3.183824453867     1.744846112947    -0.998230967712     1.007825032230
         H           -4.203424453867    -0.358469887053    -0.140845967712     1.007825032230
         H            3.738154546133    -0.029751887053     0.890337032288     1.007825032230
         H            3.616115546133     0.769770112947    -0.684354967712     1.007825032230
         H            3.953975546133    -0.977106887053    -0.597631967712     1.007825032230

  Basis Set: AUG-CC-PVTZ
    Blend: AUG-CC-PVTZ
  Basis Set: (AUG-CC-PVTZ AUX)
    Blend: AUG-CC-PVTZ-JKFIT
	 Reference Energy          =    -476.6913987544015185 [Eh]
	 Singles Energy            =      -0.0000000000000000 [Eh]
	 Same-Spin Energy          =      -0.5124453552441023 [Eh]
	 Opposite-Spin Energy      =      -1.6166519306769023 [Eh]
	 Correlation Energy        =      -2.1290972859210044 [Eh]
	 Total Energy              =    -478.8204960403224959 [Eh]

	 ================> DF-SCS-MP2 Energies <==================
	-----------------------------------------------------------
	 SCS Same-Spin Scale       =       0.3333333333333333 [-]
	 SCS Opposite-Spin Scale   =       1.2000000000000000 [-]
	 SCS Same-Spin Energy      =      -0.1708151184147008 [Eh]
	 SCS Opposite-Spin Energy  =      -1.9399823168122827 [Eh]
	 SCS Correlation Energy    =      -2.1107974352269836 [Eh]
	 SCS Total Energy          =    -478.8021961896284893 [Eh]
	-----------------------------------------------------------

  Dipole Moment: [D]
     X:     0.8526      Y:     3.0063      Z:     1.2509     Total:     3.3659

*** Psi4 exiting successfully. Buy a developer a beer!
