                               Psi4 1.3.2 release

  ==> Input File <==

--------------------------------------------------------------------------
#psi4
#
memory 32 gb

molecule  {
0 1
  O        1.5353870    -1.6551020    -0.6345320
  N        1.0090074     0.3581163     0.2579359
  C       -0.3967540     0.1698250     0.1061120
  C       -0.9676930    -1.0124890     0.5938810
  C       -1.2114290     1.1495920    -0.4744810
  C        1.4334500     1.7470840     0.6117170
  C        1.9002030    -0.5546920    -0.2186930
  C       -2.3437090    -1.2082300     0.4876030
  C       -2.5901160     0.9502090    -0.5611550
  C       -3.1615570    -0.2292440    -0.0824530
  C        3.3698180    -0.1837380    -0.1580780
  H       -0.3333780    -1.7703900     1.0389010
  H       -0.7697760     2.0586490    -0.8748040
  H        2.3549360     1.7005960     1.1924500
  H        0.6579290     2.1862960     1.2404600
  H        1.5971270     2.4005710    -0.2540720
  H       -2.7807830    -2.1295030     0.8652160
  H       -3.2150400     1.7168070    -1.0131720
  H       -4.2346400    -0.3865090    -0.1557870
  H        3.7069390    -0.0577910     0.8753960
  H        3.5849000     0.7417310    -0.6992960
  H        3.9227600    -1.0051460    -0.6125730
units angstrom
no_reorient  #important for SAPT in psi4, default
symmetry c1  #important for SAPT in psi4, default
}

set PROPERTIES_ORIGIN ["COM"]
properties('MP2/aug-cc-pvtz', properties = ['dipole'])
--------------------------------------------------------------------------

    Molecular point group: c1
  Charge       = 0
  Multiplicity = 1
  Basis Set: AUG-CC-PVTZ
    Blend: AUG-CC-PVTZ
  Basis Set: (AUG-CC-PVTZ AUX)
    Blend: AUG-CC-PVTZ-JKFIT

    Orbital Energies [Eh]
    ---------------------

    Doubly Occupied:

       1A    -20.514194     2A    -15.600050     3A    -11.352399
       4A    -11.279880     5A    -11.278823     6A    -11.240433
       7A    -11.239002     8A    -11.237800     9A    -11.234774
      10A    -11.232366    11A    -11.229973    12A     -1.376289
      13A     -1.256520    14A     -1.142414    15A     -1.030618
      16A     -1.016280    17A     -0.990912    18A     -0.956571
      19A     -0.843213    20A     -0.828039    21A     -0.755201
      22A     -0.693748    23A     -0.678293    24A     -0.660688
      25A     -0.656582    26A     -0.618777    27A     -0.612738
      28A     -0.587789    29A     -0.584061    30A     -0.574984
      31A     -0.564005    32A     -0.557018    33A     -0.525788
      34A     -0.510377    35A     -0.496317    36A     -0.495550
      37A     -0.422096    38A     -0.405899    39A     -0.336082
      40A     -0.316488

  @DF-RHF Final Energy:  -476.69937318487570

   => Energetics <=

    Nuclear Repulsion Energy =            589.1614958276024936
    One-Electron Energy =               -1815.8556701547938701
    Two-Electron Energy =                 749.9948011423157368
    Total Energy =                       -476.6993731848756397
  Basis Set: (AUG-CC-PVTZ AUX)
    Blend: AUG-CC-PVTZ-RI
    Molecular point group: c1

    Geometry (in Angstrom), charge = 0, multiplicity = 1:

       Center              X                  Y                   Z               Mass
    ------------   -----------------  -----------------  -----------------  -----------------
         O            1.564898797573    -1.614717515029    -0.626022080793    15.994914619570
         N            1.038519197573     0.398500784971     0.266445819207    14.003074004430
         C           -0.367242202427     0.210209484971     0.114621919207    12.000000000000
         C           -0.938181202427    -0.972104515029     0.602390919207    12.000000000000
         C           -1.181917202427     1.189976484971    -0.465971080793    12.000000000000
         C            1.462961797573     1.787468484971     0.620226919207    12.000000000000
         C            1.929714797573    -0.514307515029    -0.210183080793    12.000000000000
         C           -2.314197202427    -1.167845515029     0.496112919207    12.000000000000
         C           -2.560604202427     0.990593484971    -0.552645080793    12.000000000000
         C           -3.132045202427    -0.188859515029    -0.073943080793    12.000000000000
         C            3.399329797573    -0.143353515029    -0.149568080793    12.000000000000
         H           -0.303866202427    -1.730005515029     1.047410919207     1.007825032230
         H           -0.740264202427     2.099033484971    -0.866294080793     1.007825032230
         H            2.384447797573     1.740980484971     1.200959919207     1.007825032230
         H            0.687440797573     2.226680484971     1.248969919207     1.007825032230
         H            1.626638797573     2.440955484971    -0.245562080793     1.007825032230
         H           -2.751271202427    -2.089118515029     0.873725919207     1.007825032230
         H           -3.185528202427     1.757191484971    -1.004662080793     1.007825032230
         H           -4.205128202427    -0.346124515029    -0.147277080793     1.007825032230
         H            3.736450797573    -0.017406515029     0.883905919207     1.007825032230
         H            3.614411797573     0.782115484971    -0.690786080793     1.007825032230
         H            3.952271797573    -0.964761515029    -0.604063080793     1.007825032230

  Basis Set: AUG-CC-PVTZ
    Blend: AUG-CC-PVTZ
  Basis Set: (AUG-CC-PVTZ AUX)
    Blend: AUG-CC-PVTZ-JKFIT
	 Reference Energy          =    -476.6993731848756966 [Eh]
	 Singles Energy            =      -0.0000000000000000 [Eh]
	 Same-Spin Energy          =      -0.5114061498730225 [Eh]
	 Opposite-Spin Energy      =      -1.6152856232927457 [Eh]
	 Correlation Energy        =      -2.1266917731657680 [Eh]
	 Total Energy              =    -478.8260649580414565 [Eh]

	 ================> DF-SCS-MP2 Energies <==================
	-----------------------------------------------------------
	 SCS Same-Spin Scale       =       0.3333333333333333 [-]
	 SCS Opposite-Spin Scale   =       1.2000000000000000 [-]
	 SCS Same-Spin Energy      =      -0.1704687166243408 [Eh]
	 SCS Opposite-Spin Energy  =      -1.9383427479512947 [Eh]
	 SCS Correlation Energy    =      -2.1088114645756355 [Eh]
	 SCS Total Energy          =    -478.8081846494513343 [Eh]
	-----------------------------------------------------------

  Dipole Moment: [D]
     X:     0.6343      Y:     3.4664      Z:     1.2748     Total:     3.7474

*** Psi4 exiting successfully. Buy a developer a beer!
