                               Psi4 1.3.2 release

  ==> Input File <==

--------------------------------------------------------------------------
#psi4
#
memory 32 gb

molecule  {
0 1
  O        1.5353870    -1.6551020    -0.6345320
  N        1.0046660     0.4022290     0.2352610
  C       -0.4118575     0.2584289     0.1489365
  C       -0.9676930    -1.0124890     0.5938810
  C       -1.2114290     1.1495920    -0.4744810
  C        1.4334500     1.7470840     0.6117170
  C        1.9002030    -0.5546920    -0.2186930
  C       -2.3437090    -1.2082300     0.4876030
  C       -2.5901160     0.9502090    -0.5611550
  C       -3.1615570    -0.2292440    -0.0824530
  C        3.3698180    -0.1837380    -0.1580780
  H       -0.3333780    -1.7703900     1.0389010
  H       -0.7697760     2.0586490    -0.8748040
  H        2.3549360     1.7005960     1.1924500
  H        0.6579290     2.1862960     1.2404600
  H        1.5971270     2.4005710    -0.2540720
  H       -2.7807830    -2.1295030     0.8652160
  H       -3.2150400     1.7168070    -1.0131720
  H       -4.2346400    -0.3865090    -0.1557870
  H        3.7069390    -0.0577910     0.8753960
  H        3.5849000     0.7417310    -0.6992960
  H        3.9227600    -1.0051460    -0.6125730
units angstrom
no_reorient  #important for SAPT in psi4, default
symmetry c1  #important for SAPT in psi4, default
}

set PROPERTIES_ORIGIN ["COM"]
properties('MP2/aug-cc-pvtz', properties = ['dipole'])
--------------------------------------------------------------------------

    Molecular point group: c1
  Charge       = 0
  Multiplicity = 1
  Basis Set: AUG-CC-PVTZ
    Blend: AUG-CC-PVTZ
  Basis Set: (AUG-CC-PVTZ AUX)
    Blend: AUG-CC-PVTZ-JKFIT

    Orbital Energies [Eh]
    ---------------------

    Doubly Occupied:

       1A    -20.519673     2A    -15.598157     3A    -11.358498
       4A    -11.278322     5A    -11.274289     6A    -11.242056
       7A    -11.237695     8A    -11.237069     9A    -11.233784
      10A    -11.232609    11A    -11.232327    12A     -1.376226
      13A     -1.259787    14A     -1.142654    15A     -1.032453
      16A     -1.014854    17A     -0.993181    18A     -0.951700
      19A     -0.845196    20A     -0.824095    21A     -0.757032
      22A     -0.694088    23A     -0.680235    24A     -0.663209
      25A     -0.655530    26A     -0.620239    27A     -0.611432
      28A     -0.588289    29A     -0.583743    30A     -0.576567
      31A     -0.564401    32A     -0.558577    33A     -0.523530
      34A     -0.512830    35A     -0.497290    36A     -0.490289
      37A     -0.424613    38A     -0.405139    39A     -0.338147
      40A     -0.313529

  @DF-RHF Final Energy:  -476.69317403624473

   => Energetics <=

    Nuclear Repulsion Energy =            588.7895432970516367
    One-Electron Energy =               -1815.0787638426443209
    Two-Electron Energy =                 749.5960465093480707
    Total Energy =                       -476.6931740362447272
  Basis Set: (AUG-CC-PVTZ AUX)
    Blend: AUG-CC-PVTZ-RI
    Molecular point group: c1

    Geometry (in Angstrom), charge = 0, multiplicity = 1:

       Center              X                  Y                   Z               Mass
    ------------   -----------------  -----------------  -----------------  -----------------
         O            1.566522277233    -1.625992765768    -0.627339295337    15.994914619570
         N            1.035801277233     0.431338234232     0.242453704663    14.003074004430
         C           -0.380722222767     0.287538134232     0.156129204663    12.000000000000
         C           -0.936557722767    -0.983379765768     0.601073704663    12.000000000000
         C           -1.180293722767     1.178701234232    -0.467288295337    12.000000000000
         C            1.464585277233     1.776193234232     0.618909704663    12.000000000000
         C            1.931338277233    -0.525582765768    -0.211500295337    12.000000000000
         C           -2.312573722767    -1.179120765768     0.494795704663    12.000000000000
         C           -2.558980722767     0.979318234232    -0.553962295337    12.000000000000
         C           -3.130421722767    -0.200134765768    -0.075260295337    12.000000000000
         C            3.400953277233    -0.154628765768    -0.150885295337    12.000000000000
         H           -0.302242722767    -1.741280765768     1.046093704663     1.007825032230
         H           -0.738640722767     2.087758234232    -0.867611295337     1.007825032230
         H            2.386071277233     1.729705234232     1.199642704663     1.007825032230
         H            0.689064277233     2.215405234232     1.247652704663     1.007825032230
         H            1.628262277233     2.429680234232    -0.246879295337     1.007825032230
         H           -2.749647722767    -2.100393765768     0.872408704663     1.007825032230
         H           -3.183904722767     1.745916234232    -1.005979295337     1.007825032230
         H           -4.203504722767    -0.357399765768    -0.148594295337     1.007825032230
         H            3.738074277233    -0.028681765768     0.882588704663     1.007825032230
         H            3.616035277233     0.770840234232    -0.692103295337     1.007825032230
         H            3.953895277233    -0.976036765768    -0.605380295337     1.007825032230

  Basis Set: AUG-CC-PVTZ
    Blend: AUG-CC-PVTZ
  Basis Set: (AUG-CC-PVTZ AUX)
    Blend: AUG-CC-PVTZ-JKFIT
	 Reference Energy          =    -476.6931740362447272 [Eh]
	 Singles Energy            =      -0.0000000000000000 [Eh]
	 Same-Spin Energy          =      -0.5115628747816721 [Eh]
	 Opposite-Spin Energy      =      -1.6160240534954640 [Eh]
	 Correlation Energy        =      -2.1275869282771360 [Eh]
	 Total Energy              =    -478.8207609645218668 [Eh]

	 ================> DF-SCS-MP2 Energies <==================
	-----------------------------------------------------------
	 SCS Same-Spin Scale       =       0.3333333333333333 [-]
	 SCS Opposite-Spin Scale   =       1.2000000000000000 [-]
	 SCS Same-Spin Energy      =      -0.1705209582605574 [Eh]
	 SCS Opposite-Spin Energy  =      -1.9392288641945568 [Eh]
	 SCS Correlation Energy    =      -2.1097498224551141 [Eh]
	 SCS Total Energy          =    -478.8029238586998417 [Eh]
	-----------------------------------------------------------

  Dipole Moment: [D]
     X:     0.6908      Y:     3.3004      Z:     1.2335     Total:     3.5905

*** Psi4 exiting successfully. Buy a developer a beer!
