                               Psi4 1.3.2 release

  ==> Input File <==

--------------------------------------------------------------------------
#psi4
#
memory 32 gb

molecule  {
0 1
  O        1.5353870    -1.6551020    -0.6345320
  N        1.0046660     0.4022290     0.2352610
  C       -0.4048842     0.2174078     0.1183064
  C       -0.9676930    -1.0124890     0.5938810
  C       -1.2114290     1.1495920    -0.4744810
  C        1.4334500     1.7470840     0.6117170
  C        1.9002030    -0.5546920    -0.2186930
  C       -2.3437090    -1.2082300     0.4876030
  C       -2.5901160     0.9502090    -0.5611550
  C       -3.1615570    -0.2292440    -0.0824530
  C        3.3698180    -0.1837380    -0.1580780
  H       -0.3333780    -1.7703900     1.0389010
  H       -0.7697760     2.0586490    -0.8748040
  H        2.3549360     1.7005960     1.1924500
  H        0.6579290     2.1862960     1.2404600
  H        1.5971270     2.4005710    -0.2540720
  H       -2.7807830    -2.1295030     0.8652160
  H       -3.2150400     1.7168070    -1.0131720
  H       -4.2346400    -0.3865090    -0.1557870
  H        3.7069390    -0.0577910     0.8753960
  H        3.5849000     0.7417310    -0.6992960
  H        3.9227600    -1.0051460    -0.6125730
units angstrom
no_reorient  #important for SAPT in psi4, default
symmetry c1  #important for SAPT in psi4, default
}

set PROPERTIES_ORIGIN ["COM"]
properties('MP2/aug-cc-pvtz', properties = ['dipole'])
--------------------------------------------------------------------------

    Molecular point group: c1
  Charge       = 0
  Multiplicity = 1
  Basis Set: AUG-CC-PVTZ
    Blend: AUG-CC-PVTZ
  Basis Set: (AUG-CC-PVTZ AUX)
    Blend: AUG-CC-PVTZ-JKFIT

    Orbital Energies [Eh]
    ---------------------

    Doubly Occupied:

       1A    -20.519549     2A    -15.598357     3A    -11.357622
       4A    -11.278214     5A    -11.275477     6A    -11.241620
       7A    -11.237778     8A    -11.234797     9A    -11.233674
      10A    -11.233608    11A    -11.232186    12A     -1.376475
      13A     -1.259476    14A     -1.142428    15A     -1.031155
      16A     -1.015346    17A     -0.993645    18A     -0.952339
      19A     -0.843669    20A     -0.824911    21A     -0.756225
      22A     -0.694730    23A     -0.679953    24A     -0.662754
      25A     -0.656251    26A     -0.619548    27A     -0.612147
      28A     -0.588220    29A     -0.583880    30A     -0.576733
      31A     -0.564594    32A     -0.558928    33A     -0.523408
      34A     -0.511888    35A     -0.496926    36A     -0.493496
      37A     -0.424263    38A     -0.405223    39A     -0.337147
      40A     -0.314286

  @DF-RHF Final Energy:  -476.69838400984008

   => Energetics <=

    Nuclear Repulsion Energy =            588.9445061856308712
    One-Electron Energy =               -1815.3999318229498385
    Two-Electron Energy =                 749.7570416274788840
    Total Energy =                       -476.6983840098400833
  Basis Set: (AUG-CC-PVTZ AUX)
    Blend: AUG-CC-PVTZ-RI
    Molecular point group: c1

    Geometry (in Angstrom), charge = 0, multiplicity = 1:

       Center              X                  Y                   Z               Mass
    ------------   -----------------  -----------------  -----------------  -----------------
         O            1.565960985853    -1.622690915880    -0.624873832629    15.994914619570
         N            1.035239985853     0.434640084120     0.244919167371    14.003074004430
         C           -0.374310214147     0.249818884120     0.127964567371    12.000000000000
         C           -0.937119014147    -0.980077915880     0.603539167371    12.000000000000
         C           -1.180855014147     1.182003084120    -0.464822832629    12.000000000000
         C            1.464023985853     1.779495084120     0.621375167371    12.000000000000
         C            1.930776985853    -0.522280915880    -0.209034832629    12.000000000000
         C           -2.313135014147    -1.175818915880     0.497261167371    12.000000000000
         C           -2.559542014147     0.982620084120    -0.551496832629    12.000000000000
         C           -3.130983014147    -0.196832915880    -0.072794832629    12.000000000000
         C            3.400391985853    -0.151326915880    -0.148419832629    12.000000000000
         H           -0.302804014147    -1.737978915880     1.048559167371     1.007825032230
         H           -0.739202014147     2.091060084120    -0.865145832629     1.007825032230
         H            2.385509985853     1.733007084120     1.202108167371     1.007825032230
         H            0.688502985853     2.218707084120     1.250118167371     1.007825032230
         H            1.627700985853     2.432982084120    -0.244413832629     1.007825032230
         H           -2.750209014147    -2.097091915880     0.874874167371     1.007825032230
         H           -3.184466014147     1.749218084120    -1.003513832629     1.007825032230
         H           -4.204066014147    -0.354097915880    -0.146128832629     1.007825032230
         H            3.737512985853    -0.025379915880     0.885054167371     1.007825032230
         H            3.615473985853     0.774142084120    -0.689637832629     1.007825032230
         H            3.953333985853    -0.972734915880    -0.602914832629     1.007825032230

  Basis Set: AUG-CC-PVTZ
    Blend: AUG-CC-PVTZ
  Basis Set: (AUG-CC-PVTZ AUX)
    Blend: AUG-CC-PVTZ-JKFIT
	 Reference Energy          =    -476.6983840098400833 [Eh]
	 Singles Energy            =      -0.0000000000000000 [Eh]
	 Same-Spin Energy          =      -0.5115340922835170 [Eh]
	 Opposite-Spin Energy      =      -1.6155556353029739 [Eh]
	 Correlation Energy        =      -2.1270897275864908 [Eh]
	 Total Energy              =    -478.8254737374265915 [Eh]

	 ================> DF-SCS-MP2 Energies <==================
	-----------------------------------------------------------
	 SCS Same-Spin Scale       =       0.3333333333333333 [-]
	 SCS Opposite-Spin Scale   =       1.2000000000000000 [-]
	 SCS Same-Spin Energy      =      -0.1705113640945057 [Eh]
	 SCS Opposite-Spin Energy  =      -1.9386667623635685 [Eh]
	 SCS Correlation Energy    =      -2.1091781264580742 [Eh]
	 SCS Total Energy          =    -478.8075621362981451 [Eh]
	-----------------------------------------------------------

  Dipole Moment: [D]
     X:     0.7029      Y:     3.3158      Z:     1.2492     Total:     3.6124

*** Psi4 exiting successfully. Buy a developer a beer!
