                               Psi4 1.3.2 release

  ==> Input File <==

--------------------------------------------------------------------------
#psi4
#
memory 32 gb

molecule  {
0 1
  O        1.5353870    -1.6551020    -0.6345320
  N        1.0116360     0.3137742     0.2804259
  C       -0.3967540     0.1698250     0.1061120
  C       -0.9676930    -1.0124890     0.5938810
  C       -1.2114290     1.1495920    -0.4744810
  C        1.4334500     1.7470840     0.6117170
  C        1.9002030    -0.5546920    -0.2186930
  C       -2.3437090    -1.2082300     0.4876030
  C       -2.5901160     0.9502090    -0.5611550
  C       -3.1615570    -0.2292440    -0.0824530
  C        3.3698180    -0.1837380    -0.1580780
  H       -0.3333780    -1.7703900     1.0389010
  H       -0.7697760     2.0586490    -0.8748040
  H        2.3549360     1.7005960     1.1924500
  H        0.6579290     2.1862960     1.2404600
  H        1.5971270     2.4005710    -0.2540720
  H       -2.7807830    -2.1295030     0.8652160
  H       -3.2150400     1.7168070    -1.0131720
  H       -4.2346400    -0.3865090    -0.1557870
  H        3.7069390    -0.0577910     0.8753960
  H        3.5849000     0.7417310    -0.6992960
  H        3.9227600    -1.0051460    -0.6125730
units angstrom
no_reorient  #important for SAPT in psi4, default
symmetry c1  #important for SAPT in psi4, default
}

set PROPERTIES_ORIGIN ["COM"]
properties('MP2/aug-cc-pvtz', properties = ['dipole'])
--------------------------------------------------------------------------

    Molecular point group: c1
  Charge       = 0
  Multiplicity = 1
  Basis Set: AUG-CC-PVTZ
    Blend: AUG-CC-PVTZ
  Basis Set: (AUG-CC-PVTZ AUX)
    Blend: AUG-CC-PVTZ-JKFIT

    Orbital Energies [Eh]
    ---------------------

    Doubly Occupied:

       1A    -20.509655     2A    -15.601454     3A    -11.348460
       4A    -11.282779     5A    -11.279356     6A    -11.240318
       7A    -11.239997     8A    -11.238819     9A    -11.234622
      10A    -11.232798    11A    -11.229462    12A     -1.376643
      13A     -1.254165    14A     -1.142767    15A     -1.031115
      16A     -1.016682    17A     -0.988516    18A     -0.959568
      19A     -0.845093    20A     -0.829146    21A     -0.755405
      22A     -0.692070    23A     -0.677165    24A     -0.659427
      25A     -0.656057    26A     -0.619044    27A     -0.612950
      28A     -0.587796    29A     -0.583846    30A     -0.575588
      31A     -0.561916    32A     -0.553390    33A     -0.528506
      34A     -0.509654    35A     -0.496019    36A     -0.494474
      37A     -0.420556    38A     -0.406165    39A     -0.336459
      40A     -0.317716

  @DF-RHF Final Energy:  -476.69439551684104

   => Energetics <=

    Nuclear Repulsion Energy =            589.2603448815840466
    One-Electron Energy =               -1816.0582415551120903
    Two-Electron Energy =                 750.1035011566871162
    Total Energy =                       -476.6943955168410412
  Basis Set: (AUG-CC-PVTZ AUX)
    Blend: AUG-CC-PVTZ-RI
    Molecular point group: c1

    Geometry (in Angstrom), charge = 0, multiplicity = 1:

       Center              X                  Y                   Z               Mass
    ------------   -----------------  -----------------  -----------------  -----------------
         O            1.564651900089    -1.610552578206    -0.628134507340    15.994914619570
         N            1.040900900089     0.358323621794     0.286823392660    14.003074004430
         C           -0.367489099911     0.214374421794     0.112509492660    12.000000000000
         C           -0.938428099911    -0.967939578206     0.600278492660    12.000000000000
         C           -1.182164099911     1.194141421794    -0.468083507340    12.000000000000
         C            1.462714900089     1.791633421794     0.618114492660    12.000000000000
         C            1.929467900089    -0.510142578206    -0.212295507340    12.000000000000
         C           -2.314444099911    -1.163680578206     0.494000492660    12.000000000000
         C           -2.560851099911     0.994758421794    -0.554757507340    12.000000000000
         C           -3.132292099911    -0.184694578206    -0.076055507340    12.000000000000
         C            3.399082900089    -0.139188578206    -0.151680507340    12.000000000000
         H           -0.304113099911    -1.725840578206     1.045298492660     1.007825032230
         H           -0.740511099911     2.103198421794    -0.868406507340     1.007825032230
         H            2.384200900089     1.745145421794     1.198847492660     1.007825032230
         H            0.687193900089     2.230845421794     1.246857492660     1.007825032230
         H            1.626391900089     2.445120421794    -0.247674507340     1.007825032230
         H           -2.751518099911    -2.084953578206     0.871613492660     1.007825032230
         H           -3.185775099911     1.761356421794    -1.006774507340     1.007825032230
         H           -4.205375099911    -0.341959578206    -0.149389507340     1.007825032230
         H            3.736203900089    -0.013241578206     0.881793492660     1.007825032230
         H            3.614164900089     0.786280421794    -0.692898507340     1.007825032230
         H            3.952024900089    -0.960596578206    -0.606175507340     1.007825032230

  Basis Set: AUG-CC-PVTZ
    Blend: AUG-CC-PVTZ
  Basis Set: (AUG-CC-PVTZ AUX)
    Blend: AUG-CC-PVTZ-JKFIT
	 Reference Energy          =    -476.6943955168410412 [Eh]
	 Singles Energy            =      -0.0000000000000000 [Eh]
	 Same-Spin Energy          =      -0.5113438821064495 [Eh]
	 Opposite-Spin Energy      =      -1.6154832093665217 [Eh]
	 Correlation Energy        =      -2.1268270914729710 [Eh]
	 Total Energy              =    -478.8212226083140308 [Eh]

	 ================> DF-SCS-MP2 Energies <==================
	-----------------------------------------------------------
	 SCS Same-Spin Scale       =       0.3333333333333333 [-]
	 SCS Opposite-Spin Scale   =       1.2000000000000000 [-]
	 SCS Same-Spin Energy      =      -0.1704479607021498 [Eh]
	 SCS Opposite-Spin Energy  =      -1.9385798512398260 [Eh]
	 SCS Correlation Energy    =      -2.1090278119419761 [Eh]
	 SCS Total Energy          =    -478.8034233287830261 [Eh]
	-----------------------------------------------------------

  Dipole Moment: [D]
     X:     0.5763      Y:     3.5840      Z:     1.2727     Total:     3.8466

*** Psi4 exiting successfully. Buy a developer a beer!
