                               Psi4 1.3.2 release

  ==> Input File <==

--------------------------------------------------------------------------
#psi4
#
memory 32 gb

molecule  {
0 1
  O        1.5353870    -1.6551020    -0.6345320
  N        1.0046660     0.4022290     0.2352610
  C       -0.4112971     0.2652159     0.1306432
  C       -0.9676930    -1.0124890     0.5938810
  C       -1.2114290     1.1495920    -0.4744810
  C        1.4334500     1.7470840     0.6117170
  C        1.9002030    -0.5546920    -0.2186930
  C       -2.3437090    -1.2082300     0.4876030
  C       -2.5901160     0.9502090    -0.5611550
  C       -3.1615570    -0.2292440    -0.0824530
  C        3.3698180    -0.1837380    -0.1580780
  H       -0.3333780    -1.7703900     1.0389010
  H       -0.7697760     2.0586490    -0.8748040
  H        2.3549360     1.7005960     1.1924500
  H        0.6579290     2.1862960     1.2404600
  H        1.5971270     2.4005710    -0.2540720
  H       -2.7807830    -2.1295030     0.8652160
  H       -3.2150400     1.7168070    -1.0131720
  H       -4.2346400    -0.3865090    -0.1557870
  H        3.7069390    -0.0577910     0.8753960
  H        3.5849000     0.7417310    -0.6992960
  H        3.9227600    -1.0051460    -0.6125730
units angstrom
no_reorient  #important for SAPT in psi4, default
symmetry c1  #important for SAPT in psi4, default
}

set PROPERTIES_ORIGIN ["COM"]
properties('MP2/aug-cc-pvtz', properties = ['dipole'])
--------------------------------------------------------------------------

    Molecular point group: c1
  Charge       = 0
  Multiplicity = 1
  Basis Set: AUG-CC-PVTZ
    Blend: AUG-CC-PVTZ
  Basis Set: (AUG-CC-PVTZ AUX)
    Blend: AUG-CC-PVTZ-JKFIT

    Orbital Energies [Eh]
    ---------------------

    Doubly Occupied:

       1A    -20.519899     2A    -15.598331     3A    -11.358679
       4A    -11.277987     5A    -11.274328     6A    -11.242163
       7A    -11.237861     8A    -11.237627     9A    -11.233586
      10A    -11.232409    11A    -11.230795    12A     -1.376428
      13A     -1.260026    14A     -1.142940    15A     -1.033356
      16A     -1.014550    17A     -0.993035    18A     -0.951879
      19A     -0.845486    20A     -0.823581    21A     -0.757162
      22A     -0.694079    23A     -0.680295    24A     -0.663804
      25A     -0.655628    26A     -0.620765    27A     -0.610910
      28A     -0.588395    29A     -0.583620    30A     -0.576613
      31A     -0.564256    32A     -0.558582    33A     -0.523797
      34A     -0.513431    35A     -0.497406    36A     -0.488609
      37A     -0.424918    38A     -0.405211    39A     -0.339446
      40A     -0.312737

  @DF-RHF Final Energy:  -476.69148662046297

   => Energetics <=

    Nuclear Repulsion Energy =            588.8294696883847337
    One-Electron Energy =               -1815.1526924895283628
    Two-Electron Energy =                 749.6317361806806048
    Total Energy =                       -476.6914866204630243
  Basis Set: (AUG-CC-PVTZ AUX)
    Blend: AUG-CC-PVTZ-RI
    Molecular point group: c1

    Geometry (in Angstrom), charge = 0, multiplicity = 1:

       Center              X                  Y                   Z               Mass
    ------------   -----------------  -----------------  -----------------  -----------------
         O            1.566477169796    -1.626539061582    -0.625866840172    15.994914619570
         N            1.035756169796     0.430791938418     0.243926159828    14.003074004430
         C           -0.380206930204     0.293778838418     0.139308359828    12.000000000000
         C           -0.936602830204    -0.983926061582     0.602546159828    12.000000000000
         C           -1.180338830204     1.178154938418    -0.465815840172    12.000000000000
         C            1.464540169796     1.775646938418     0.620382159828    12.000000000000
         C            1.931293169796    -0.526129061582    -0.210027840172    12.000000000000
         C           -2.312618830204    -1.179667061582     0.496268159828    12.000000000000
         C           -2.559025830204     0.978771938418    -0.552489840172    12.000000000000
         C           -3.130466830204    -0.200681061582    -0.073787840172    12.000000000000
         C            3.400908169796    -0.155175061582    -0.149412840172    12.000000000000
         H           -0.302287830204    -1.741827061582     1.047566159828     1.007825032230
         H           -0.738685830204     2.087211938418    -0.866138840172     1.007825032230
         H            2.386026169796     1.729158938418     1.201115159828     1.007825032230
         H            0.689019169796     2.214858938418     1.249125159828     1.007825032230
         H            1.628217169796     2.429133938418    -0.245406840172     1.007825032230
         H           -2.749692830204    -2.100940061582     0.873881159828     1.007825032230
         H           -3.183949830204     1.745369938418    -1.004506840172     1.007825032230
         H           -4.203549830204    -0.357946061582    -0.147121840172     1.007825032230
         H            3.738029169796    -0.029228061582     0.884061159828     1.007825032230
         H            3.615990169796     0.770293938418    -0.690630840172     1.007825032230
         H            3.953850169796    -0.976583061582    -0.603907840172     1.007825032230

  Basis Set: AUG-CC-PVTZ
    Blend: AUG-CC-PVTZ
  Basis Set: (AUG-CC-PVTZ AUX)
    Blend: AUG-CC-PVTZ-JKFIT
	 Reference Energy          =    -476.6914866204629675 [Eh]
	 Singles Energy            =      -0.0000000000000000 [Eh]
	 Same-Spin Energy          =      -0.5114316108680921 [Eh]
	 Opposite-Spin Energy      =      -1.6159884880313713 [Eh]
	 Correlation Energy        =      -2.1274200988994636 [Eh]
	 Total Energy              =    -478.8189067193624169 [Eh]

	 ================> DF-SCS-MP2 Energies <==================
	-----------------------------------------------------------
	 SCS Same-Spin Scale       =       0.3333333333333333 [-]
	 SCS Opposite-Spin Scale   =       1.2000000000000000 [-]
	 SCS Same-Spin Energy      =      -0.1704772036226974 [Eh]
	 SCS Opposite-Spin Energy  =      -1.9391861856376456 [Eh]
	 SCS Correlation Energy    =      -2.1096633892603429 [Eh]
	 SCS Total Energy          =    -478.8011500097233011 [Eh]
	-----------------------------------------------------------

  Dipole Moment: [D]
     X:     0.7036      Y:     3.3042      Z:     1.2265     Total:     3.5940

*** Psi4 exiting successfully. Buy a developer a beer!
