                               Psi4 1.3.2 release

  ==> Input File <==

--------------------------------------------------------------------------
#psi4
#
memory 32 gb

molecule  {
0 1
  O        1.5353870    -1.6551020    -0.6345320
  N        1.0046660     0.4022290     0.2352610
  C       -0.3869164     0.1225253     0.0940750
  C       -0.9676930    -1.0124890     0.5938810
  C       -1.2114290     1.1495920    -0.4744810
  C        1.4334500     1.7470840     0.6117170
  C        1.9002030    -0.5546920    -0.2186930
  C       -2.3437090    -1.2082300     0.4876030
  C       -2.5901160     0.9502090    -0.5611550
  C       -3.1615570    -0.2292440    -0.0824530
  C        3.3698180    -0.1837380    -0.1580780
  H       -0.3333780    -1.7703900     1.0389010
  H       -0.7697760     2.0586490    -0.8748040
  H        2.3549360     1.7005960     1.1924500
  H        0.6579290     2.1862960     1.2404600
  H        1.5971270     2.4005710    -0.2540720
  H       -2.7807830    -2.1295030     0.8652160
  H       -3.2150400     1.7168070    -1.0131720
  H       -4.2346400    -0.3865090    -0.1557870
  H        3.7069390    -0.0577910     0.8753960
  H        3.5849000     0.7417310    -0.6992960
  H        3.9227600    -1.0051460    -0.6125730
units angstrom
no_reorient  #important for SAPT in psi4, default
symmetry c1  #important for SAPT in psi4, default
}

set PROPERTIES_ORIGIN ["COM"]
properties('MP2/aug-cc-pvtz', properties = ['dipole'])
--------------------------------------------------------------------------

    Molecular point group: c1
  Charge       = 0
  Multiplicity = 1
  Basis Set: AUG-CC-PVTZ
    Blend: AUG-CC-PVTZ
  Basis Set: (AUG-CC-PVTZ AUX)
    Blend: AUG-CC-PVTZ-JKFIT

    Orbital Energies [Eh]
    ---------------------

    Doubly Occupied:

       1A    -20.518860     2A    -15.598427     3A    -11.355614
       4A    -11.278427     5A    -11.277981     6A    -11.240523
       7A    -11.239710     8A    -11.237453     9A    -11.235541
      10A    -11.231707    11A    -11.226744    12A     -1.376753
      13A     -1.258483    14A     -1.141959    15A     -1.030862
      16A     -1.015620    17A     -0.992873    18A     -0.953490
      19A     -0.839348    20A     -0.828296    21A     -0.753255
      22A     -0.696471    23A     -0.679353    24A     -0.661948
      25A     -0.657444    26A     -0.618364    27A     -0.611866
      28A     -0.587839    29A     -0.584634    30A     -0.577263
      31A     -0.564338    32A     -0.559036    33A     -0.523041
      34A     -0.511201    35A     -0.497521    36A     -0.494516
      37A     -0.422974    38A     -0.405079    39A     -0.335447
      40A     -0.315172

  @DF-RHF Final Energy:  -476.69807745684852

   => Energetics <=

    Nuclear Repulsion Energy =            589.1469404477132912
    One-Electron Energy =               -1815.8191717820793656
    Two-Electron Energy =                 749.9741538775176650
    Total Energy =                       -476.6980774568485231
  Basis Set: (AUG-CC-PVTZ AUX)
    Blend: AUG-CC-PVTZ-RI
    Molecular point group: c1

    Geometry (in Angstrom), charge = 0, multiplicity = 1:

       Center              X                  Y                   Z               Mass
    ------------   -----------------  -----------------  -----------------  -----------------
         O            1.564514730671    -1.615053681090    -0.622923410886    15.994914619570
         N            1.033793730671     0.442277318910     0.246869589114    14.003074004430
         C           -0.357788669329     0.162573618910     0.105683589114    12.000000000000
         C           -0.938565269329    -0.972440681090     0.605489589114    12.000000000000
         C           -1.182301269329     1.189640318910    -0.462872410886    12.000000000000
         C            1.462577730671     1.787132318910     0.623325589114    12.000000000000
         C            1.929330730671    -0.514643681090    -0.207084410886    12.000000000000
         C           -2.314581269329    -1.168181681090     0.499211589114    12.000000000000
         C           -2.560988269329     0.990257318910    -0.549546410886    12.000000000000
         C           -3.132429269329    -0.189195681090    -0.070844410886    12.000000000000
         C            3.398945730671    -0.143689681090    -0.146469410886    12.000000000000
         H           -0.304250269329    -1.730341681090     1.050509589114     1.007825032230
         H           -0.740648269329     2.098697318910    -0.863195410886     1.007825032230
         H            2.384063730671     1.740644318910     1.204058589114     1.007825032230
         H            0.687056730671     2.226344318910     1.252068589114     1.007825032230
         H            1.626254730671     2.440619318910    -0.242463410886     1.007825032230
         H           -2.751655269329    -2.089454681090     0.876824589114     1.007825032230
         H           -3.185912269329     1.756855318910    -1.001563410886     1.007825032230
         H           -4.205512269329    -0.346460681090    -0.144178410886     1.007825032230
         H            3.736066730671    -0.017742681090     0.887004589114     1.007825032230
         H            3.614027730671     0.781779318910    -0.687687410886     1.007825032230
         H            3.951887730671    -0.965097681090    -0.600964410886     1.007825032230

  Basis Set: AUG-CC-PVTZ
    Blend: AUG-CC-PVTZ
  Basis Set: (AUG-CC-PVTZ AUX)
    Blend: AUG-CC-PVTZ-JKFIT
	 Reference Energy          =    -476.6980774568485231 [Eh]
	 Singles Energy            =      -0.0000000000000000 [Eh]
	 Same-Spin Energy          =      -0.5116720600996028 [Eh]
	 Opposite-Spin Energy      =      -1.6155968864503261 [Eh]
	 Correlation Energy        =      -2.1272689465499290 [Eh]
	 Total Energy              =    -478.8253464033984415 [Eh]

	 ================> DF-SCS-MP2 Energies <==================
	-----------------------------------------------------------
	 SCS Same-Spin Scale       =       0.3333333333333333 [-]
	 SCS Opposite-Spin Scale   =       1.2000000000000000 [-]
	 SCS Same-Spin Energy      =      -0.1705573533665342 [Eh]
	 SCS Opposite-Spin Energy  =      -1.9387162637403912 [Eh]
	 SCS Correlation Energy    =      -2.1092736171069255 [Eh]
	 SCS Total Energy          =    -478.8073510739554308 [Eh]
	-----------------------------------------------------------

  Dipole Moment: [D]
     X:     0.6965      Y:     3.3431      Z:     1.2923     Total:     3.6512

*** Psi4 exiting successfully. Buy a developer a beer!
