                               Psi4 1.3.2 release

  ==> Input File <==

--------------------------------------------------------------------------
#psi4
#
memory 32 gb

molecule  {
0 1
  O        1.5353870    -1.6551020    -0.6345320
  N        1.0046660     0.4022290     0.2352610
  C       -0.2985065     0.1861178     0.1151661
  C       -0.9676930    -1.0124890     0.5938810
  C       -1.2114290     1.1495920    -0.4744810
  C        1.4334500     1.7470840     0.6117170
  C        1.9002030    -0.5546920    -0.2186930
  C       -2.3437090    -1.2082300     0.4876030
  C       -2.5901160     0.9502090    -0.5611550
  C       -3.1615570    -0.2292440    -0.0824530
  C        3.3698180    -0.1837380    -0.1580780
  H       -0.3333780    -1.7703900     1.0389010
  H       -0.7697760     2.0586490    -0.8748040
  H        2.3549360     1.7005960     1.1924500
  H        0.6579290     2.1862960     1.2404600
  H        1.5971270     2.4005710    -0.2540720
  H       -2.7807830    -2.1295030     0.8652160
  H       -3.2150400     1.7168070    -1.0131720
  H       -4.2346400    -0.3865090    -0.1557870
  H        3.7069390    -0.0577910     0.8753960
  H        3.5849000     0.7417310    -0.6992960
  H        3.9227600    -1.0051460    -0.6125730
units angstrom
no_reorient  #important for SAPT in psi4, default
symmetry c1  #important for SAPT in psi4, default
}

set PROPERTIES_ORIGIN ["COM"]
properties('MP2/aug-cc-pvtz', properties = ['dipole'])
--------------------------------------------------------------------------

    Molecular point group: c1
  Charge       = 0
  Multiplicity = 1
  Basis Set: AUG-CC-PVTZ
    Blend: AUG-CC-PVTZ
  Basis Set: (AUG-CC-PVTZ AUX)
    Blend: AUG-CC-PVTZ-JKFIT

    Orbital Energies [Eh]
    ---------------------

    Doubly Occupied:

       1A    -20.526607     2A    -15.604136     3A    -11.363193
       4A    -11.282173     5A    -11.281997     6A    -11.245518
       7A    -11.237213     8A    -11.234467     9A    -11.232231
      10A    -11.231021    11A    -11.228038    12A     -1.387130
      13A     -1.285619    14A     -1.129998    15A     -1.035562
      16A     -1.008207    17A     -0.993022    18A     -0.958005
      19A     -0.855416    20A     -0.818587    21A     -0.757053
      22A     -0.696932    23A     -0.686668    24A     -0.669581
      25A     -0.666210    26A     -0.615100    27A     -0.605727
      28A     -0.591933    29A     -0.583001    30A     -0.575785
      31A     -0.573299    32A     -0.563823    33A     -0.528385
      34A     -0.514060    35A     -0.490967    36A     -0.481933
      37A     -0.430370    38A     -0.410812    39A     -0.331199
      40A     -0.300596

  @DF-RHF Final Energy:  -476.68484948150609

   => Energetics <=

    Nuclear Repulsion Energy =            589.3901777249308225
    One-Electron Energy =               -1816.1269107530695237
    Two-Electron Energy =                 750.0518835466325527
    Total Energy =                       -476.6848494815060349
  Basis Set: (AUG-CC-PVTZ AUX)
    Blend: AUG-CC-PVTZ-RI
    Molecular point group: c1

    Geometry (in Angstrom), charge = 0, multiplicity = 1:

       Center              X                  Y                   Z               Mass
    ------------   -----------------  -----------------  -----------------  -----------------
         O            1.557398485167    -1.620172336832    -0.624621065171    15.994914619570
         N            1.026677485167     0.437158663168     0.245171934829    14.003074004430
         C           -0.276495014833     0.221047463168     0.125077034829    12.000000000000
         C           -0.945681514833    -0.977559336832     0.603791934829    12.000000000000
         C           -1.189417514833     1.184521663168    -0.464570065171    12.000000000000
         C            1.455461485167     1.782013663168     0.621627934829    12.000000000000
         C            1.922214485167    -0.519762336832    -0.208782065171    12.000000000000
         C           -2.321697514833    -1.173300336832     0.497513934829    12.000000000000
         C           -2.568104514833     0.985138663168    -0.551244065171    12.000000000000
         C           -3.139545514833    -0.194314336832    -0.072542065171    12.000000000000
         C            3.391829485167    -0.148808336832    -0.148167065171    12.000000000000
         H           -0.311366514833    -1.735460336832     1.048811934829     1.007825032230
         H           -0.747764514833     2.093578663168    -0.864893065171     1.007825032230
         H            2.376947485167     1.735525663168     1.202360934829     1.007825032230
         H            0.679940485167     2.221225663168     1.250370934829     1.007825032230
         H            1.619138485167     2.435500663168    -0.244161065171     1.007825032230
         H           -2.758771514833    -2.094573336832     0.875126934829     1.007825032230
         H           -3.193028514833     1.751736663168    -1.003261065171     1.007825032230
         H           -4.212628514833    -0.351579336832    -0.145876065171     1.007825032230
         H            3.728950485167    -0.022861336832     0.885306934829     1.007825032230
         H            3.606911485167     0.776660663168    -0.689385065171     1.007825032230
         H            3.944771485167    -0.970216336832    -0.602662065171     1.007825032230

  Basis Set: AUG-CC-PVTZ
    Blend: AUG-CC-PVTZ
  Basis Set: (AUG-CC-PVTZ AUX)
    Blend: AUG-CC-PVTZ-JKFIT
	 Reference Energy          =    -476.6848494815060917 [Eh]
	 Singles Energy            =      -0.0000000000000000 [Eh]
	 Same-Spin Energy          =      -0.5131491979661850 [Eh]
	 Opposite-Spin Energy      =      -1.6178187163108193 [Eh]
	 Correlation Energy        =      -2.1309679142770044 [Eh]
	 Total Energy              =    -478.8158173957830854 [Eh]

	 ================> DF-SCS-MP2 Energies <==================
	-----------------------------------------------------------
	 SCS Same-Spin Scale       =       0.3333333333333333 [-]
	 SCS Opposite-Spin Scale   =       1.2000000000000000 [-]
	 SCS Same-Spin Energy      =      -0.1710497326553950 [Eh]
	 SCS Opposite-Spin Energy  =      -1.9413824595729832 [Eh]
	 SCS Correlation Energy    =      -2.1124321922283782 [Eh]
	 SCS Total Energy          =    -478.7972816737344601 [Eh]
	-----------------------------------------------------------

  Dipole Moment: [D]
     X:     1.2773      Y:     3.3371      Z:     1.2784     Total:     3.7950

*** Psi4 exiting successfully. Buy a developer a beer!
