                               Psi4 1.3.2 release

  ==> Input File <==

--------------------------------------------------------------------------
#psi4
#
memory 32 gb

molecule  {
0 1
  O        1.5353870    -1.6551020    -0.6345320
  N        1.0125487     0.2692567     0.3027035
  C       -0.3967540     0.1698250     0.1061120
  C       -0.9676930    -1.0124890     0.5938810
  C       -1.2114290     1.1495920    -0.4744810
  C        1.4334500     1.7470840     0.6117170
  C        1.9002030    -0.5546920    -0.2186930
  C       -2.3437090    -1.2082300     0.4876030
  C       -2.5901160     0.9502090    -0.5611550
  C       -3.1615570    -0.2292440    -0.0824530
  C        3.3698180    -0.1837380    -0.1580780
  H       -0.3333780    -1.7703900     1.0389010
  H       -0.7697760     2.0586490    -0.8748040
  H        2.3549360     1.7005960     1.1924500
  H        0.6579290     2.1862960     1.2404600
  H        1.5971270     2.4005710    -0.2540720
  H       -2.7807830    -2.1295030     0.8652160
  H       -3.2150400     1.7168070    -1.0131720
  H       -4.2346400    -0.3865090    -0.1557870
  H        3.7069390    -0.0577910     0.8753960
  H        3.5849000     0.7417310    -0.6992960
  H        3.9227600    -1.0051460    -0.6125730
units angstrom
no_reorient  #important for SAPT in psi4, default
symmetry c1  #important for SAPT in psi4, default
}

set PROPERTIES_ORIGIN ["COM"]
properties('MP2/aug-cc-pvtz', properties = ['dipole'])
--------------------------------------------------------------------------

    Molecular point group: c1
  Charge       = 0
  Multiplicity = 1
  Basis Set: AUG-CC-PVTZ
    Blend: AUG-CC-PVTZ
  Basis Set: (AUG-CC-PVTZ AUX)
    Blend: AUG-CC-PVTZ-JKFIT

    Orbital Energies [Eh]
    ---------------------

    Doubly Occupied:

       1A    -20.505681     2A    -15.602617     3A    -11.344907
       4A    -11.285326     5A    -11.279964     6A    -11.241785
       7A    -11.239775     8A    -11.239575     9A    -11.234500
      10A    -11.233129    11A    -11.228932    12A     -1.377638
      13A     -1.251858    14A     -1.143121    15A     -1.031665
      16A     -1.017043    17A     -0.986557    18A     -0.961719
      19A     -0.847169    20A     -0.829882    21A     -0.755482
      22A     -0.690528    23A     -0.676313    24A     -0.658246
      25A     -0.655360    26A     -0.619287    27A     -0.613349
      28A     -0.587952    29A     -0.583654    30A     -0.576811
      31A     -0.560503    32A     -0.548400    33A     -0.531202
      34A     -0.508727    35A     -0.495873    36A     -0.492374
      37A     -0.419041    38A     -0.406093    39A     -0.336822
      40A     -0.318860

  @DF-RHF Final Energy:  -476.68586864697920

   => Energetics <=

    Nuclear Repulsion Energy =            589.3442021895434664
    One-Electron Energy =               -1816.2246981288312782
    Two-Electron Energy =                 750.1946272923086099
    Total Energy =                       -476.6858686469792019
  Basis Set: (AUG-CC-PVTZ AUX)
    Blend: AUG-CC-PVTZ-RI
    Molecular point group: c1

    Geometry (in Angstrom), charge = 0, multiplicity = 1:

       Center              X                  Y                   Z               Mass
    ------------   -----------------  -----------------  -----------------  -----------------
         O            1.564566172578    -1.606371166522    -0.630226983712    15.994914619570
         N            1.041727872578     0.317987533478     0.307008516288    14.003074004430
         C           -0.367574827422     0.218555833478     0.110417016288    12.000000000000
         C           -0.938513827422    -0.963758166522     0.598186016288    12.000000000000
         C           -1.182249827422     1.198322833478    -0.470175983712    12.000000000000
         C            1.462629172578     1.795814833478     0.616022016288    12.000000000000
         C            1.929382172578    -0.505961166522    -0.214387983712    12.000000000000
         C           -2.314529827422    -1.159499166522     0.491908016288    12.000000000000
         C           -2.560936827422     0.998939833478    -0.556849983712    12.000000000000
         C           -3.132377827422    -0.180513166522    -0.078147983712    12.000000000000
         C            3.398997172578    -0.135007166522    -0.153772983712    12.000000000000
         H           -0.304198827422    -1.721659166522     1.043206016288     1.007825032230
         H           -0.740596827422     2.107379833478    -0.870498983712     1.007825032230
         H            2.384115172578     1.749326833478     1.196755016288     1.007825032230
         H            0.687108172578     2.235026833478     1.244765016288     1.007825032230
         H            1.626306172578     2.449301833478    -0.249766983712     1.007825032230
         H           -2.751603827422    -2.080772166522     0.869521016288     1.007825032230
         H           -3.185860827422     1.765537833478    -1.008866983712     1.007825032230
         H           -4.205460827422    -0.337778166522    -0.151481983712     1.007825032230
         H            3.736118172578    -0.009060166522     0.879701016288     1.007825032230
         H            3.614079172578     0.790461833478    -0.694990983712     1.007825032230
         H            3.951939172578    -0.956415166522    -0.608267983712     1.007825032230

  Basis Set: AUG-CC-PVTZ
    Blend: AUG-CC-PVTZ
  Basis Set: (AUG-CC-PVTZ AUX)
    Blend: AUG-CC-PVTZ-JKFIT
	 Reference Energy          =    -476.6858686469792019 [Eh]
	 Singles Energy            =      -0.0000000000000000 [Eh]
	 Same-Spin Energy          =      -0.5114415944045425 [Eh]
	 Opposite-Spin Energy      =      -1.6160249867156351 [Eh]
	 Correlation Energy        =      -2.1274665811201778 [Eh]
	 Total Energy              =    -478.8133352280993904 [Eh]

	 ================> DF-SCS-MP2 Energies <==================
	-----------------------------------------------------------
	 SCS Same-Spin Scale       =       0.3333333333333333 [-]
	 SCS Opposite-Spin Scale   =       1.2000000000000000 [-]
	 SCS Same-Spin Energy      =      -0.1704805314681808 [Eh]
	 SCS Opposite-Spin Energy  =      -1.9392299840587621 [Eh]
	 SCS Correlation Energy    =      -2.1097105155269431 [Eh]
	 SCS Total Energy          =    -478.7955791625061579 [Eh]
	-----------------------------------------------------------

  Dipole Moment: [D]
     X:     0.5273      Y:     3.6794      Z:     1.2640     Total:     3.9261

*** Psi4 exiting successfully. Buy a developer a beer!
