                               Psi4 1.3.2 release

  ==> Input File <==

--------------------------------------------------------------------------
#psi4
#
memory 32 gb

molecule  {
0 1
  O        1.5353870    -1.6551020    -0.6345320
  N        0.9814290     0.5326550     0.1664035
  C       -0.3967540     0.1698250     0.1061120
  C       -0.9676930    -1.0124890     0.5938810
  C       -1.2114290     1.1495920    -0.4744810
  C        1.4334500     1.7470840     0.6117170
  C        1.9002030    -0.5546920    -0.2186930
  C       -2.3437090    -1.2082300     0.4876030
  C       -2.5901160     0.9502090    -0.5611550
  C       -3.1615570    -0.2292440    -0.0824530
  C        3.3698180    -0.1837380    -0.1580780
  H       -0.3333780    -1.7703900     1.0389010
  H       -0.7697760     2.0586490    -0.8748040
  H        2.3549360     1.7005960     1.1924500
  H        0.6579290     2.1862960     1.2404600
  H        1.5971270     2.4005710    -0.2540720
  H       -2.7807830    -2.1295030     0.8652160
  H       -3.2150400     1.7168070    -1.0131720
  H       -4.2346400    -0.3865090    -0.1557870
  H        3.7069390    -0.0577910     0.8753960
  H        3.5849000     0.7417310    -0.6992960
  H        3.9227600    -1.0051460    -0.6125730
units angstrom
no_reorient  #important for SAPT in psi4, default
symmetry c1  #important for SAPT in psi4, default
}

set PROPERTIES_ORIGIN ["COM"]
properties('MP2/aug-cc-pvtz', properties = ['dipole'])
--------------------------------------------------------------------------

    Molecular point group: c1
  Charge       = 0
  Multiplicity = 1
  Basis Set: AUG-CC-PVTZ
    Blend: AUG-CC-PVTZ
  Basis Set: (AUG-CC-PVTZ AUX)
    Blend: AUG-CC-PVTZ-JKFIT

    Orbital Energies [Eh]
    ---------------------

    Doubly Occupied:

       1A    -20.535894     2A    -15.592114     3A    -11.369344
       4A    -11.277432     5A    -11.266298     6A    -11.243998
       7A    -11.235506     8A    -11.235350     9A    -11.232034
      10A    -11.231607    11A    -11.230394    12A     -1.380715
      13A     -1.267210    14A     -1.141655    15A     -1.029657
      16A     -1.014536    17A     -1.001702    18A     -0.938909
      19A     -0.838704    20A     -0.819866    21A     -0.753780
      22A     -0.701165    23A     -0.684431    24A     -0.665960
      25A     -0.657164    26A     -0.618292    27A     -0.613547
      28A     -0.591507    29A     -0.590429    30A     -0.583958
      31A     -0.562708    32A     -0.556093    33A     -0.517092
      34A     -0.510472    35A     -0.499371    36A     -0.494644
      37A     -0.426778    38A     -0.399714    39A     -0.334599
      40A     -0.311308

  @DF-RHF Final Energy:  -476.68112364030441

   => Energetics <=

    Nuclear Repulsion Energy =            588.6564571551344898
    One-Electron Energy =               -1814.7632823206283774
    Two-Electron Energy =                 749.4257015251893108
    Total Energy =                       -476.6811236403044632
  Basis Set: (AUG-CC-PVTZ AUX)
    Blend: AUG-CC-PVTZ-RI
    Molecular point group: c1

    Geometry (in Angstrom), charge = 0, multiplicity = 1:

       Center              X                  Y                   Z               Mass
    ------------   -----------------  -----------------  -----------------  -----------------
         O            1.567489164147    -1.631111476043    -0.617424683212    15.994914619570
         N            1.013531164147     0.556645523957     0.183510816788    14.003074004430
         C           -0.364651835853     0.193815523957     0.123219316788    12.000000000000
         C           -0.935590835853    -0.988498476043     0.610988316788    12.000000000000
         C           -1.179326835853     1.173582523957    -0.457373683212    12.000000000000
         C            1.465552164147     1.771074523957     0.628824316788    12.000000000000
         C            1.932305164147    -0.530701476043    -0.201585683212    12.000000000000
         C           -2.311606835853    -1.184239476043     0.504710316788    12.000000000000
         C           -2.558013835853     0.974199523957    -0.544047683212    12.000000000000
         C           -3.129454835853    -0.205253476043    -0.065345683212    12.000000000000
         C            3.401920164147    -0.159747476043    -0.140970683212    12.000000000000
         H           -0.301275835853    -1.746399476043     1.056008316788     1.007825032230
         H           -0.737673835853     2.082639523957    -0.857696683212     1.007825032230
         H            2.387038164147     1.724586523957     1.209557316788     1.007825032230
         H            0.690031164147     2.210286523957     1.257567316788     1.007825032230
         H            1.629229164147     2.424561523957    -0.236964683212     1.007825032230
         H           -2.748680835853    -2.105512476043     0.882323316788     1.007825032230
         H           -3.182937835853     1.740797523957    -0.996064683212     1.007825032230
         H           -4.202537835853    -0.362518476043    -0.138679683212     1.007825032230
         H            3.739041164147    -0.033800476043     0.892503316788     1.007825032230
         H            3.617002164147     0.765721523957    -0.682188683212     1.007825032230
         H            3.954862164147    -0.981155476043    -0.595465683212     1.007825032230

  Basis Set: AUG-CC-PVTZ
    Blend: AUG-CC-PVTZ
  Basis Set: (AUG-CC-PVTZ AUX)
    Blend: AUG-CC-PVTZ-JKFIT
	 Reference Energy          =    -476.6811236403044063 [Eh]
	 Singles Energy            =      -0.0000000000000000 [Eh]
	 Same-Spin Energy          =      -0.5130365062701042 [Eh]
	 Opposite-Spin Energy      =      -1.6177071953439368 [Eh]
	 Correlation Energy        =      -2.1307437016140409 [Eh]
	 Total Energy              =    -478.8118673419184574 [Eh]

	 ================> DF-SCS-MP2 Energies <==================
	-----------------------------------------------------------
	 SCS Same-Spin Scale       =       0.3333333333333333 [-]
	 SCS Opposite-Spin Scale   =       1.2000000000000000 [-]
	 SCS Same-Spin Energy      =      -0.1710121687567014 [Eh]
	 SCS Opposite-Spin Energy  =      -1.9412486344127240 [Eh]
	 SCS Correlation Energy    =      -2.1122608031694252 [Eh]
	 SCS Total Energy          =    -478.7933844434738262 [Eh]
	-----------------------------------------------------------

  Dipole Moment: [D]
     X:     0.9374      Y:     2.8264      Z:     1.2358     Total:     3.2240

*** Psi4 exiting successfully. Buy a developer a beer!
