                               Psi4 1.4a3.dev225

  ==> Input File <==

--------------------------------------------------------------------------
#psi4
#
memory 32 gb

molecule  {
0 1
  O        1.5353870    -1.6551020    -0.6345320
  N        1.0046660     0.4022290     0.2352610
  C       -0.3771045     0.1730836     0.1079228
  C       -0.9676930    -1.0124890     0.5938810
  C       -1.2114290     1.1495920    -0.4744810
  C        1.4334500     1.7470840     0.6117170
  C        1.9002030    -0.5546920    -0.2186930
  C       -2.3437090    -1.2082300     0.4876030
  C       -2.5901160     0.9502090    -0.5611550
  C       -3.1615570    -0.2292440    -0.0824530
  C        3.3698180    -0.1837380    -0.1580780
  H       -0.3333780    -1.7703900     1.0389010
  H       -0.7697760     2.0586490    -0.8748040
  H        2.3549360     1.7005960     1.1924500
  H        0.6579290     2.1862960     1.2404600
  H        1.5971270     2.4005710    -0.2540720
  H       -2.7807830    -2.1295030     0.8652160
  H       -3.2150400     1.7168070    -1.0131720
  H       -4.2346400    -0.3865090    -0.1557870
  H        3.7069390    -0.0577910     0.8753960
  H        3.5849000     0.7417310    -0.6992960
  H        3.9227600    -1.0051460    -0.6125730
units angstrom
no_reorient  #important for SAPT in psi4, default
symmetry c1  #important for SAPT in psi4, default
}

set PROPERTIES_ORIGIN ["COM"]
properties('MP2/aug-cc-pvtz', properties = ['dipole'])
--------------------------------------------------------------------------

    Molecular point group: c1
  Charge       = 0
  Multiplicity = 1
  Basis Set: AUG-CC-PVTZ
    Blend: AUG-CC-PVTZ
  Basis Set: (AUG-CC-PVTZ AUX)
    Blend: AUG-CC-PVTZ-JKFIT

    Orbital Energies [Eh]
    ---------------------

    Doubly Occupied:

       1A    -20.520578     2A    -15.599603     3A    -11.357855
       4A    -11.278979     5A    -11.277705     6A    -11.241918
       7A    -11.237558     8A    -11.236326     9A    -11.234314
      10A    -11.231246    11A    -11.230668    12A     -1.378423
      13A     -1.263745    14A     -1.139613    15A     -1.030979
      16A     -1.014141    17A     -0.993401    18A     -0.954167
      19A     -0.843810    20A     -0.825097    21A     -0.755549
      22A     -0.695482    23A     -0.680990    24A     -0.663731
      25A     -0.658648    26A     -0.617813    27A     -0.610984
      28A     -0.588311    29A     -0.583283    30A     -0.577941
      31A     -0.566373    32A     -0.560002    33A     -0.524054
      34A     -0.511830    35A     -0.495728    36A     -0.493135
      37A     -0.424896    38A     -0.406628    39A     -0.334778
      40A     -0.312495

  @DF-RHF Final Energy:  -476.69968215432175

   => Energetics <=

    Nuclear Repulsion Energy =            589.0997588119885222
    One-Electron Energy =               -1815.6933271655937006
    Two-Electron Energy =                 749.8938861992834291
    Total Energy =                       -476.6996821543217493
  Basis Set: (AUG-CC-PVTZ AUX)
    Blend: AUG-CC-PVTZ-RI
    Molecular point group: c1

    Geometry (in Angstrom), charge = 0, multiplicity = 1:

       Center              X                  Y                   Z               Mass
    ------------   -----------------  -----------------  -----------------  -----------------
         O            1.563724956118    -1.619123194517    -0.624038041085    15.994914619570
         N            1.033003956118     0.438207805483     0.245754958915    14.003074004430
         C           -0.348766543882     0.209062405483     0.118416758915    12.000000000000
         C           -0.939355043882    -0.976510194517     0.604374958915    12.000000000000
         C           -1.183091043882     1.185570805483    -0.463987041085    12.000000000000
         C            1.461787956118     1.783062805483     0.622210958915    12.000000000000
         C            1.928540956118    -0.518713194517    -0.208199041085    12.000000000000
         C           -2.315371043882    -1.172251194517     0.498096958915    12.000000000000
         C           -2.561778043882     0.986187805483    -0.550661041085    12.000000000000
         C           -3.133219043882    -0.193265194517    -0.071959041085    12.000000000000
         C            3.398155956118    -0.147759194517    -0.147584041085    12.000000000000
         H           -0.305040043882    -1.734411194517     1.049394958915     1.007825032230
         H           -0.741438043882     2.094627805483    -0.864310041085     1.007825032230
         H            2.383273956118     1.736574805483     1.202943958915     1.007825032230
         H            0.686266956118     2.222274805483     1.250953958915     1.007825032230
         H            1.625464956118     2.436549805483    -0.243578041085     1.007825032230
         H           -2.752445043882    -2.093524194517     0.875709958915     1.007825032230
         H           -3.186702043882     1.752785805483    -1.002678041085     1.007825032230
         H           -4.206302043882    -0.350530194517    -0.145293041085     1.007825032230
         H            3.735276956118    -0.021812194517     0.885889958915     1.007825032230
         H            3.613237956118     0.777709805483    -0.688802041085     1.007825032230
         H            3.951097956118    -0.969167194517    -0.602079041085     1.007825032230

  Basis Set: AUG-CC-PVTZ
    Blend: AUG-CC-PVTZ
  Basis Set: (AUG-CC-PVTZ AUX)
    Blend: AUG-CC-PVTZ-JKFIT
	 Reference Energy          =    -476.6996821543217493 [Eh]
	 Singles Energy            =      -0.0000000000000000 [Eh]
	 Same-Spin Energy          =      -0.5118296578230962 [Eh]
	 Opposite-Spin Energy      =      -1.6157461320108901 [Eh]
	 Correlation Energy        =      -2.1275757898339864 [Eh]
	 Total Energy              =    -478.8272579441557468 [Eh]

	 ================> DF-SCS-MP2 Energies <==================
	-----------------------------------------------------------
	 SCS Same-Spin Scale       =       0.3333333333333333 [-]
	 SCS Opposite-Spin Scale   =       1.2000000000000000 [-]
	 SCS Same-Spin Energy      =      -0.1706098859410320 [Eh]
	 SCS Opposite-Spin Energy  =      -1.9388953584130681 [Eh]
	 SCS Correlation Energy    =      -2.1095052443541000 [Eh]
	 SCS Total Energy          =    -478.8091873986758742 [Eh]
	-----------------------------------------------------------

  Dipole Moment: [D]
     X:     0.8104      Y:     3.3306      Z:     1.2725     Total:     3.6564

*** Psi4 exiting successfully. Buy a developer a beer!
