                               Psi4 1.4a3.dev225

  ==> Input File <==

--------------------------------------------------------------------------
#psi4
#
memory 32 gb

molecule  {
0 1
  O        1.5353870    -1.6551020    -0.6345320
  N        1.0046660     0.4022290     0.2352610
  C       -0.4458777     0.1616786     0.1015850
  C       -0.9676930    -1.0124890     0.5938810
  C       -1.2114290     1.1495920    -0.4744810
  C        1.4334500     1.7470840     0.6117170
  C        1.9002030    -0.5546920    -0.2186930
  C       -2.3437090    -1.2082300     0.4876030
  C       -2.5901160     0.9502090    -0.5611550
  C       -3.1615570    -0.2292440    -0.0824530
  C        3.3698180    -0.1837380    -0.1580780
  H       -0.3333780    -1.7703900     1.0389010
  H       -0.7697760     2.0586490    -0.8748040
  H        2.3549360     1.7005960     1.1924500
  H        0.6579290     2.1862960     1.2404600
  H        1.5971270     2.4005710    -0.2540720
  H       -2.7807830    -2.1295030     0.8652160
  H       -3.2150400     1.7168070    -1.0131720
  H       -4.2346400    -0.3865090    -0.1557870
  H        3.7069390    -0.0577910     0.8753960
  H        3.5849000     0.7417310    -0.6992960
  H        3.9227600    -1.0051460    -0.6125730
units angstrom
no_reorient  #important for SAPT in psi4, default
symmetry c1  #important for SAPT in psi4, default
}

set PROPERTIES_ORIGIN ["COM"]
properties('MP2/aug-cc-pvtz', properties = ['dipole'])
--------------------------------------------------------------------------

    Molecular point group: c1
  Charge       = 0
  Multiplicity = 1
  Basis Set: AUG-CC-PVTZ
    Blend: AUG-CC-PVTZ
  Basis Set: (AUG-CC-PVTZ AUX)
    Blend: AUG-CC-PVTZ-JKFIT

    Orbital Energies [Eh]
    ---------------------

    Doubly Occupied:

       1A    -20.515877     2A    -15.595069     3A    -11.353498
       4A    -11.277252     5A    -11.274237     6A    -11.239472
       7A    -11.238987     8A    -11.236568     9A    -11.236272
      10A    -11.233371    11A    -11.229961    12A     -1.372322
      13A     -1.248149    14A     -1.148461    15A     -1.028851
      16A     -1.020505    17A     -0.993762    18A     -0.949352
      19A     -0.838521    20A     -0.828681    21A     -0.752929
      22A     -0.696050    23A     -0.676377    24A     -0.657591
      25A     -0.652978    26A     -0.620685    27A     -0.617307
      28A     -0.590024    29A     -0.583635    30A     -0.574419
      31A     -0.560773    32A     -0.556596    33A     -0.521672
      34A     -0.507892    35A     -0.502155    36A     -0.498804
      37A     -0.420400    38A     -0.401209    39A     -0.338102
      40A     -0.321510

  @DF-RHF Final Energy:  -476.69849443400392

   => Energetics <=

    Nuclear Repulsion Energy =            588.9612995377354991
    One-Electron Energy =               -1815.4990346193342248
    Two-Electron Energy =                 749.8392406475949201
    Total Energy =                       -476.6984944340039192
  Basis Set: (AUG-CC-PVTZ AUX)
    Blend: AUG-CC-PVTZ-RI
    Molecular point group: c1

    Geometry (in Angstrom), charge = 0, multiplicity = 1:

       Center              X                  Y                   Z               Mass
    ------------   -----------------  -----------------  -----------------  -----------------
         O            1.569260614176    -1.618205188954    -0.623527902054    15.994914619570
         N            1.038539614176     0.439125811046     0.246265097946    14.003074004430
         C           -0.412004085824     0.198575411046     0.112589097946    12.000000000000
         C           -0.933819385824    -0.975592188954     0.604885097946    12.000000000000
         C           -1.177555385824     1.186488811046    -0.463476902054    12.000000000000
         C            1.467323614176     1.783980811046     0.622721097946    12.000000000000
         C            1.934076614176    -0.517795188954    -0.207688902054    12.000000000000
         C           -2.309835385824    -1.171333188954     0.498607097946    12.000000000000
         C           -2.556242385824     0.987105811046    -0.550150902054    12.000000000000
         C           -3.127683385824    -0.192347188954    -0.071448902054    12.000000000000
         C            3.403691614176    -0.146841188954    -0.147073902054    12.000000000000
         H           -0.299504385824    -1.733493188954     1.049905097946     1.007825032230
         H           -0.735902385824     2.095545811046    -0.863799902054     1.007825032230
         H            2.388809614176     1.737492811046     1.203454097946     1.007825032230
         H            0.691802614176     2.223192811046     1.251464097946     1.007825032230
         H            1.631000614176     2.437467811046    -0.243067902054     1.007825032230
         H           -2.746909385824    -2.092606188954     0.876220097946     1.007825032230
         H           -3.181166385824     1.753703811046    -1.002167902054     1.007825032230
         H           -4.200766385824    -0.349612188954    -0.144782902054     1.007825032230
         H            3.740812614176    -0.020894188954     0.886400097946     1.007825032230
         H            3.618773614176     0.778627811046    -0.688291902054     1.007825032230
         H            3.956633614176    -0.968249188954    -0.601568902054     1.007825032230

  Basis Set: AUG-CC-PVTZ
    Blend: AUG-CC-PVTZ
  Basis Set: (AUG-CC-PVTZ AUX)
    Blend: AUG-CC-PVTZ-JKFIT
	 Reference Energy          =    -476.6984944340039192 [Eh]
	 Singles Energy            =      -0.0000000000000000 [Eh]
	 Same-Spin Energy          =      -0.5112955976249725 [Eh]
	 Opposite-Spin Energy      =      -1.6149549571411717 [Eh]
	 Correlation Energy        =      -2.1262505547661439 [Eh]
	 Total Energy              =    -478.8247449887700782 [Eh]

	 ================> DF-SCS-MP2 Energies <==================
	-----------------------------------------------------------
	 SCS Same-Spin Scale       =       0.3333333333333333 [-]
	 SCS Opposite-Spin Scale   =       1.2000000000000000 [-]
	 SCS Same-Spin Energy      =      -0.1704318658749908 [Eh]
	 SCS Opposite-Spin Energy  =      -1.9379459485694059 [Eh]
	 SCS Correlation Energy    =      -2.1083778144443968 [Eh]
	 SCS Total Energy          =    -478.8068722484483146 [Eh]
	-----------------------------------------------------------

  Dipole Moment: [D]
     X:     0.4328      Y:     3.3254      Z:     1.2683     Total:     3.5852

*** Psi4 exiting successfully. Buy a developer a beer!
