                               Psi4 1.3.2 release

  ==> Input File <==

--------------------------------------------------------------------------
#psi4
#
memory 32 gb

molecule  {
0 1
  O        1.5353870    -1.6551020    -0.6345320
  N        1.0046660     0.4022290     0.2352610
  C       -0.4950015     0.1535322     0.0970579
  C       -0.9676930    -1.0124890     0.5938810
  C       -1.2114290     1.1495920    -0.4744810
  C        1.4334500     1.7470840     0.6117170
  C        1.9002030    -0.5546920    -0.2186930
  C       -2.3437090    -1.2082300     0.4876030
  C       -2.5901160     0.9502090    -0.5611550
  C       -3.1615570    -0.2292440    -0.0824530
  C        3.3698180    -0.1837380    -0.1580780
  H       -0.3333780    -1.7703900     1.0389010
  H       -0.7697760     2.0586490    -0.8748040
  H        2.3549360     1.7005960     1.1924500
  H        0.6579290     2.1862960     1.2404600
  H        1.5971270     2.4005710    -0.2540720
  H       -2.7807830    -2.1295030     0.8652160
  H       -3.2150400     1.7168070    -1.0131720
  H       -4.2346400    -0.3865090    -0.1557870
  H        3.7069390    -0.0577910     0.8753960
  H        3.5849000     0.7417310    -0.6992960
  H        3.9227600    -1.0051460    -0.6125730
units angstrom
no_reorient  #important for SAPT in psi4, default
symmetry c1  #important for SAPT in psi4, default
}

set PROPERTIES_ORIGIN ["COM"]
properties('MP2/aug-cc-pvtz', properties = ['dipole'])
--------------------------------------------------------------------------

    Molecular point group: c1
  Charge       = 0
  Multiplicity = 1
  Basis Set: AUG-CC-PVTZ
    Blend: AUG-CC-PVTZ
  Basis Set: (AUG-CC-PVTZ AUX)
    Blend: AUG-CC-PVTZ-JKFIT

    Orbital Energies [Eh]
    ---------------------

    Doubly Occupied:

       1A    -20.512659     2A    -15.591200     3A    -11.350385
       4A    -11.276835     5A    -11.271772     6A    -11.241228
       7A    -11.238369     8A    -11.236883     9A    -11.236195
      10A    -11.234744    11A    -11.229604    12A     -1.368410
      13A     -1.238889    14A     -1.154940    15A     -1.028252
      16A     -1.025766    17A     -0.993520    18A     -0.945578
      19A     -0.840012    20A     -0.827602    21A     -0.750684
      22A     -0.696787    23A     -0.673190    24A     -0.653762
      25A     -0.649241    26A     -0.625516    27A     -0.619921
      28A     -0.592729    29A     -0.581643    30A     -0.571843
      31A     -0.557767    32A     -0.554034    33A     -0.521919
      34A     -0.509270    35A     -0.504193    36A     -0.496917
      37A     -0.417062    38A     -0.396982    39A     -0.340698
      40A     -0.327160

  @DF-RHF Final Energy:  -476.69073214521023

   => Energetics <=

    Nuclear Repulsion Energy =            588.9174195903141253
    One-Electron Energy =               -1815.4479860365715922
    Two-Electron Energy =                 749.8398343010474036
    Total Energy =                       -476.6907321452101769
  Basis Set: (AUG-CC-PVTZ AUX)
    Blend: AUG-CC-PVTZ-RI
    Molecular point group: c1

    Geometry (in Angstrom), charge = 0, multiplicity = 1:

       Center              X                  Y                   Z               Mass
    ------------   -----------------  -----------------  -----------------  -----------------
         O            1.573214662545    -1.617549472995    -0.623163508982    15.994914619570
         N            1.042493662545     0.439781527005     0.246629491018    14.003074004430
         C           -0.457173837455     0.191084727005     0.108426391018    12.000000000000
         C           -0.929865337455    -0.974936472995     0.605249491018    12.000000000000
         C           -1.173601337455     1.187144527005    -0.463112508982    12.000000000000
         C            1.471277662545     1.784636527005     0.623085491018    12.000000000000
         C            1.938030662545    -0.517139472995    -0.207324508982    12.000000000000
         C           -2.305881337455    -1.170677472995     0.498971491018    12.000000000000
         C           -2.552288337455     0.987761527005    -0.549786508982    12.000000000000
         C           -3.123729337455    -0.191691472995    -0.071084508982    12.000000000000
         C            3.407645662545    -0.146185472995    -0.146709508982    12.000000000000
         H           -0.295550337455    -1.732837472995     1.050269491018     1.007825032230
         H           -0.731948337455     2.096201527005    -0.863435508982     1.007825032230
         H            2.392763662545     1.738148527005     1.203818491018     1.007825032230
         H            0.695756662545     2.223848527005     1.251828491018     1.007825032230
         H            1.634954662545     2.438123527005    -0.242703508982     1.007825032230
         H           -2.742955337455    -2.091950472995     0.876584491018     1.007825032230
         H           -3.177212337455     1.754359527005    -1.001803508982     1.007825032230
         H           -4.196812337455    -0.348956472995    -0.144418508982     1.007825032230
         H            3.744766662545    -0.020238472995     0.886764491018     1.007825032230
         H            3.622727662545     0.779283527005    -0.687927508982     1.007825032230
         H            3.960587662545    -0.967593472995    -0.601204508982     1.007825032230

  Basis Set: AUG-CC-PVTZ
    Blend: AUG-CC-PVTZ
  Basis Set: (AUG-CC-PVTZ AUX)
    Blend: AUG-CC-PVTZ-JKFIT
	 Reference Energy          =    -476.6907321452102337 [Eh]
	 Singles Energy            =      -0.0000000000000000 [Eh]
	 Same-Spin Energy          =      -0.5112580819356727 [Eh]
	 Opposite-Spin Energy      =      -1.6149554881338539 [Eh]
	 Correlation Energy        =      -2.1262135700695266 [Eh]
	 Total Energy              =    -478.8169457152797577 [Eh]

	 ================> DF-SCS-MP2 Energies <==================
	-----------------------------------------------------------
	 SCS Same-Spin Scale       =       0.3333333333333333 [-]
	 SCS Opposite-Spin Scale   =       1.2000000000000000 [-]
	 SCS Same-Spin Energy      =      -0.1704193606452242 [Eh]
	 SCS Opposite-Spin Energy  =      -1.9379465857606246 [Eh]
	 SCS Correlation Energy    =      -2.1083659464058488 [Eh]
	 SCS Total Energy          =    -478.7990980916160879 [Eh]
	-----------------------------------------------------------

  Dipole Moment: [D]
     X:     0.1707      Y:     3.3210      Z:     1.2657     Total:     3.5581

*** Psi4 exiting successfully. Buy a developer a beer!
