                               Psi4 1.3.2 release

  ==> Input File <==

--------------------------------------------------------------------------
#psi4
#
memory 32 gb

molecule  {
0 1
  O        1.5353870    -1.6551020    -0.6345320
  N        1.0046660     0.4022290     0.2352610
  C       -0.4011734     0.1918866     0.1167672
  C       -0.9676930    -1.0124890     0.5938810
  C       -1.2114290     1.1495920    -0.4744810
  C        1.4334500     1.7470840     0.6117170
  C        1.9002030    -0.5546920    -0.2186930
  C       -2.3437090    -1.2082300     0.4876030
  C       -2.5901160     0.9502090    -0.5611550
  C       -3.1615570    -0.2292440    -0.0824530
  C        3.3698180    -0.1837380    -0.1580780
  H       -0.3333780    -1.7703900     1.0389010
  H       -0.7697760     2.0586490    -0.8748040
  H        2.3549360     1.7005960     1.1924500
  H        0.6579290     2.1862960     1.2404600
  H        1.5971270     2.4005710    -0.2540720
  H       -2.7807830    -2.1295030     0.8652160
  H       -3.2150400     1.7168070    -1.0131720
  H       -4.2346400    -0.3865090    -0.1557870
  H        3.7069390    -0.0577910     0.8753960
  H        3.5849000     0.7417310    -0.6992960
  H        3.9227600    -1.0051460    -0.6125730
units angstrom
no_reorient  #important for SAPT in psi4, default
symmetry c1  #important for SAPT in psi4, default
}

set PROPERTIES_ORIGIN ["COM"]
properties('MP2/aug-cc-pvtz', properties = ['dipole'])
--------------------------------------------------------------------------

    Molecular point group: c1
  Charge       = 0
  Multiplicity = 1
  Basis Set: AUG-CC-PVTZ
    Blend: AUG-CC-PVTZ
  Basis Set: (AUG-CC-PVTZ AUX)
    Blend: AUG-CC-PVTZ-JKFIT

    Orbital Energies [Eh]
    ---------------------

    Doubly Occupied:

       1A    -20.519323     2A    -15.598342     3A    -11.357069
       4A    -11.278316     5A    -11.276082     6A    -11.241326
       7A    -11.237876     8A    -11.235384     9A    -11.234710
      10A    -11.232172    11A    -11.231872    12A     -1.376473
      13A     -1.259168    14A     -1.142233    15A     -1.030424
      16A     -1.015740    17A     -0.993652    18A     -0.952569
      19A     -0.842587    20A     -0.825883    21A     -0.755571
      22A     -0.695135    23A     -0.679786    24A     -0.662190
      25A     -0.656605    26A     -0.618851    27A     -0.612656
      28A     -0.588111    29A     -0.584082    30A     -0.576841
      31A     -0.564686    32A     -0.559004    33A     -0.523232
      34A     -0.511097    35A     -0.496817    36A     -0.495357
      37A     -0.423862    38A     -0.405187    39A     -0.336131
      40A     -0.314973

  @DF-RHF Final Energy:  -476.70018674390695

   => Energetics <=

    Nuclear Repulsion Energy =            588.9947625634517863
    One-Electron Energy =               -1815.5071474054689133
    Two-Electron Energy =                 749.8121980981102297
    Total Energy =                       -476.7001867439068974
  Basis Set: (AUG-CC-PVTZ AUX)
    Blend: AUG-CC-PVTZ-RI
    Molecular point group: c1

    Geometry (in Angstrom), charge = 0, multiplicity = 1:

       Center              X                  Y                   Z               Mass
    ------------   -----------------  -----------------  -----------------  -----------------
         O            1.565662297993    -1.620636676199    -0.624749940112    15.994914619570
         N            1.034941297993     0.436694323801     0.245043059888    14.003074004430
         C           -0.370898102007     0.226351923801     0.126549259888    12.000000000000
         C           -0.937417702007    -0.978023676199     0.603663059888    12.000000000000
         C           -1.181153702007     1.184057323801    -0.464698940112    12.000000000000
         C            1.463725297993     1.781549323801     0.621499059888    12.000000000000
         C            1.930478297993    -0.520226676199    -0.208910940112    12.000000000000
         C           -2.313433702007    -1.173764676199     0.497385059888    12.000000000000
         C           -2.559840702007     0.984674323801    -0.551372940112    12.000000000000
         C           -3.131281702007    -0.194778676199    -0.072670940112    12.000000000000
         C            3.400093297993    -0.149272676199    -0.148295940112    12.000000000000
         H           -0.303102702007    -1.735924676199     1.048683059888     1.007825032230
         H           -0.739500702007     2.093114323801    -0.865021940112     1.007825032230
         H            2.385211297993     1.735061323801     1.202232059888     1.007825032230
         H            0.688204297993     2.220761323801     1.250242059888     1.007825032230
         H            1.627402297993     2.435036323801    -0.244289940112     1.007825032230
         H           -2.750507702007    -2.095037676199     0.874998059888     1.007825032230
         H           -3.184764702007     1.751272323801    -1.003389940112     1.007825032230
         H           -4.204364702007    -0.352043676199    -0.146004940112     1.007825032230
         H            3.737214297993    -0.023325676199     0.885178059888     1.007825032230
         H            3.615175297993     0.776196323801    -0.689513940112     1.007825032230
         H            3.953035297993    -0.970680676199    -0.602790940112     1.007825032230

  Basis Set: AUG-CC-PVTZ
    Blend: AUG-CC-PVTZ
  Basis Set: (AUG-CC-PVTZ AUX)
    Blend: AUG-CC-PVTZ-JKFIT
	 Reference Energy          =    -476.7001867439069542 [Eh]
	 Singles Energy            =      -0.0000000000000000 [Eh]
	 Same-Spin Energy          =      -0.5115928068022307 [Eh]
	 Opposite-Spin Energy      =      -1.6154541217535354 [Eh]
	 Correlation Energy        =      -2.1270469285557660 [Eh]
	 Total Energy              =    -478.8272336724627394 [Eh]

	 ================> DF-SCS-MP2 Energies <==================
	-----------------------------------------------------------
	 SCS Same-Spin Scale       =       0.3333333333333333 [-]
	 SCS Opposite-Spin Scale   =       1.2000000000000000 [-]
	 SCS Same-Spin Energy      =      -0.1705309356007436 [Eh]
	 SCS Opposite-Spin Energy  =      -1.9385449461042423 [Eh]
	 SCS Correlation Energy    =      -2.1090758817049857 [Eh]
	 SCS Total Energy          =    -478.8092626256119502 [Eh]
	-----------------------------------------------------------

  Dipole Moment: [D]
     X:     0.6995      Y:     3.3217      Z:     1.2621     Total:     3.6215

*** Psi4 exiting successfully. Buy a developer a beer!
