                               Psi4 1.4a3.dev225

  ==> Input File <==

--------------------------------------------------------------------------
#psi4
#
memory 32 gb

molecule  {
0 1
  O        1.5353870    -1.6551020    -0.6345320
  N        1.0046660     0.4022290     0.2352610
  C       -0.3476303     0.1779714     0.1106390
  C       -0.9676930    -1.0124890     0.5938810
  C       -1.2114290     1.1495920    -0.4744810
  C        1.4334500     1.7470840     0.6117170
  C        1.9002030    -0.5546920    -0.2186930
  C       -2.3437090    -1.2082300     0.4876030
  C       -2.5901160     0.9502090    -0.5611550
  C       -3.1615570    -0.2292440    -0.0824530
  C        3.3698180    -0.1837380    -0.1580780
  H       -0.3333780    -1.7703900     1.0389010
  H       -0.7697760     2.0586490    -0.8748040
  H        2.3549360     1.7005960     1.1924500
  H        0.6579290     2.1862960     1.2404600
  H        1.5971270     2.4005710    -0.2540720
  H       -2.7807830    -2.1295030     0.8652160
  H       -3.2150400     1.7168070    -1.0131720
  H       -4.2346400    -0.3865090    -0.1557870
  H        3.7069390    -0.0577910     0.8753960
  H        3.5849000     0.7417310    -0.6992960
  H        3.9227600    -1.0051460    -0.6125730
units angstrom
no_reorient  #important for SAPT in psi4, default
symmetry c1  #important for SAPT in psi4, default
}

set PROPERTIES_ORIGIN ["COM"]
properties('MP2/aug-cc-pvtz', properties = ['dipole'])
--------------------------------------------------------------------------

    Molecular point group: c1
  Charge       = 0
  Multiplicity = 1
  Basis Set: AUG-CC-PVTZ
    Blend: AUG-CC-PVTZ
  Basis Set: (AUG-CC-PVTZ AUX)
    Blend: AUG-CC-PVTZ-JKFIT

    Orbital Energies [Eh]
    ---------------------

    Doubly Occupied:

       1A    -20.522732     2A    -15.601343     3A    -11.359788
       4A    -11.280050     5A    -11.279254     6A    -11.243219
       7A    -11.237279     8A    -11.235835     9A    -11.233426
      10A    -11.230992    11A    -11.230126    12A     -1.381404
      13A     -1.271428    14A     -1.135944    15A     -1.032411
      16A     -1.011738    17A     -0.993171    18A     -0.955905
      19A     -0.847710    20A     -0.822740    21A     -0.756336
      22A     -0.695645    23A     -0.683054    24A     -0.666206
      25A     -0.661331    26A     -0.616784    27A     -0.608698
      28A     -0.589427    29A     -0.581602    30A     -0.578907
      31A     -0.569024    32A     -0.561416    33A     -0.525559
      34A     -0.512994    35A     -0.493859    36A     -0.488996
      37A     -0.426862    38A     -0.408568    39A     -0.333423
      40A     -0.308232

  @DF-RHF Final Energy:  -476.69630844681217

   => Energetics <=

    Nuclear Repulsion Energy =            589.1907166748268310
    One-Electron Energy =               -1815.8272114454380244
    Two-Electron Energy =                 749.9401863237989119
    Total Energy =                       -476.6963084468121679
  Basis Set: (AUG-CC-PVTZ AUX)
    Blend: AUG-CC-PVTZ-RI
    Molecular point group: c1

    Geometry (in Angstrom), charge = 0, multiplicity = 1:

       Center              X                  Y                   Z               Mass
    ------------   -----------------  -----------------  -----------------  -----------------
         O            1.561352533536    -1.619516620872    -0.624256672099    15.994914619570
         N            1.030631533536     0.437814379128     0.245536327901    14.003074004430
         C           -0.321664766464     0.213556779128     0.120914327901    12.000000000000
         C           -0.941727466464    -0.976903620872     0.604156327901    12.000000000000
         C           -1.185463466464     1.185177379128    -0.464205672099    12.000000000000
         C            1.459415533536     1.782669379128     0.621992327901    12.000000000000
         C            1.926168533536    -0.519106620872    -0.208417672099    12.000000000000
         C           -2.317743466464    -1.172644620872     0.497878327901    12.000000000000
         C           -2.564150466464     0.985794379128    -0.550879672099    12.000000000000
         C           -3.135591466464    -0.193658620872    -0.072177672099    12.000000000000
         C            3.395783533536    -0.148152620872    -0.147802672099    12.000000000000
         H           -0.307412466464    -1.734804620872     1.049176327901     1.007825032230
         H           -0.743810466464     2.094234379128    -0.864528672099     1.007825032230
         H            2.380901533536     1.736181379128     1.202725327901     1.007825032230
         H            0.683894533536     2.221881379128     1.250735327901     1.007825032230
         H            1.623092533536     2.436156379128    -0.243796672099     1.007825032230
         H           -2.754817466464    -2.093917620872     0.875491327901     1.007825032230
         H           -3.189074466464     1.752392379128    -1.002896672099     1.007825032230
         H           -4.208674466464    -0.350923620872    -0.145511672099     1.007825032230
         H            3.732904533536    -0.022205620872     0.885671327901     1.007825032230
         H            3.610865533536     0.777316379128    -0.689020672099     1.007825032230
         H            3.948725533536    -0.969560620872    -0.602297672099     1.007825032230

  Basis Set: AUG-CC-PVTZ
    Blend: AUG-CC-PVTZ
  Basis Set: (AUG-CC-PVTZ AUX)
    Blend: AUG-CC-PVTZ-JKFIT
	 Reference Energy          =    -476.6963084468121679 [Eh]
	 Singles Energy            =      -0.0000000000000000 [Eh]
	 Same-Spin Energy          =      -0.5122358931014148 [Eh]
	 Opposite-Spin Energy      =      -1.6163785666962744 [Eh]
	 Correlation Energy        =      -2.1286144597976895 [Eh]
	 Total Energy              =    -478.8249229066098565 [Eh]

	 ================> DF-SCS-MP2 Energies <==================
	-----------------------------------------------------------
	 SCS Same-Spin Scale       =       0.3333333333333333 [-]
	 SCS Opposite-Spin Scale   =       1.2000000000000000 [-]
	 SCS Same-Spin Energy      =      -0.1707452977004716 [Eh]
	 SCS Opposite-Spin Energy  =      -1.9396542800355292 [Eh]
	 SCS Correlation Energy    =      -2.1103995777360010 [Eh]
	 SCS Total Energy          =    -478.8067080245481861 [Eh]
	-----------------------------------------------------------

  Dipole Moment: [D]
     X:     0.9799      Y:     3.3329      Z:     1.2745     Total:     3.7004

*** Psi4 exiting successfully. Buy a developer a beer!
