                               Psi4 1.3.2 release

  ==> Input File <==

--------------------------------------------------------------------------
#psi4
#
memory 32 gb

molecule  {
0 1
  O        1.5353870    -1.6551020    -0.6345320
  N        1.0046660     0.4022290     0.2352610
  C       -0.4168245     0.3030207     0.1705196
  C       -0.9676930    -1.0124890     0.5938810
  C       -1.2114290     1.1495920    -0.4744810
  C        1.4334500     1.7470840     0.6117170
  C        1.9002030    -0.5546920    -0.2186930
  C       -2.3437090    -1.2082300     0.4876030
  C       -2.5901160     0.9502090    -0.5611550
  C       -3.1615570    -0.2292440    -0.0824530
  C        3.3698180    -0.1837380    -0.1580780
  H       -0.3333780    -1.7703900     1.0389010
  H       -0.7697760     2.0586490    -0.8748040
  H        2.3549360     1.7005960     1.1924500
  H        0.6579290     2.1862960     1.2404600
  H        1.5971270     2.4005710    -0.2540720
  H       -2.7807830    -2.1295030     0.8652160
  H       -3.2150400     1.7168070    -1.0131720
  H       -4.2346400    -0.3865090    -0.1557870
  H        3.7069390    -0.0577910     0.8753960
  H        3.5849000     0.7417310    -0.6992960
  H        3.9227600    -1.0051460    -0.6125730
units angstrom
no_reorient  #important for SAPT in psi4, default
symmetry c1  #important for SAPT in psi4, default
}

set PROPERTIES_ORIGIN ["COM"]
properties('MP2/aug-cc-pvtz', properties = ['dipole'])
--------------------------------------------------------------------------

    Molecular point group: c1
  Charge       = 0
  Multiplicity = 1
  Basis Set: AUG-CC-PVTZ
    Blend: AUG-CC-PVTZ
  Basis Set: (AUG-CC-PVTZ AUX)
    Blend: AUG-CC-PVTZ-JKFIT

    Orbital Energies [Eh]
    ---------------------

    Doubly Occupied:

       1A    -20.519866     2A    -15.597994     3A    -11.359443
       4A    -11.278494     5A    -11.273161     6A    -11.242509
       7A    -11.240173     8A    -11.237535     9A    -11.234197
      10A    -11.232352    11A    -11.230654    12A     -1.376091
      13A     -1.260211    14A     -1.142947    15A     -1.034545
      16A     -1.014196    17A     -0.992210    18A     -0.951174
      19A     -0.846729    20A     -0.823081    21A     -0.757498
      22A     -0.693585    23A     -0.680600    24A     -0.663878
      25A     -0.654936    26A     -0.621075    27A     -0.610233
      28A     -0.588337    29A     -0.583583    30A     -0.576512
      31A     -0.564038    32A     -0.557985    33A     -0.523856
      34A     -0.514108    35A     -0.497434    36A     -0.485267
      37A     -0.425096    38A     -0.405024    39A     -0.339822
      40A     -0.312175

  @DF-RHF Final Energy:  -476.68381087723048

   => Energetics <=

    Nuclear Repulsion Energy =            588.6191566032381388
    One-Electron Energy =               -1814.7207275647870119
    Two-Electron Energy =                 749.4177600843185019
    Total Energy =                       -476.6838108772304849
  Basis Set: (AUG-CC-PVTZ AUX)
    Blend: AUG-CC-PVTZ-RI
    Molecular point group: c1

    Geometry (in Angstrom), charge = 0, multiplicity = 1:

       Center              X                  Y                   Z               Mass
    ------------   -----------------  -----------------  -----------------  -----------------
         O            1.566922078516    -1.629582026657    -0.629076551440    15.994914619570
         N            1.036201078516     0.427748973343     0.240716448560    14.003074004430
         C           -0.385289421484     0.328540673343     0.175975048560    12.000000000000
         C           -0.936157921484    -0.986969026657     0.599336448560    12.000000000000
         C           -1.179893921484     1.175111973343    -0.469025551440    12.000000000000
         C            1.464985078516     1.772603973343     0.617172448560    12.000000000000
         C            1.931738078516    -0.529172026657    -0.213237551440    12.000000000000
         C           -2.312173921484    -1.182710026657     0.493058448560    12.000000000000
         C           -2.558580921484     0.975728973343    -0.555699551440    12.000000000000
         C           -3.130021921484    -0.203724026657    -0.076997551440    12.000000000000
         C            3.401353078516    -0.158218026657    -0.152622551440    12.000000000000
         H           -0.301842921484    -1.744870026657     1.044356448560     1.007825032230
         H           -0.738240921484     2.084168973343    -0.869348551440     1.007825032230
         H            2.386471078516     1.726115973343     1.197905448560     1.007825032230
         H            0.689464078516     2.211815973343     1.245915448560     1.007825032230
         H            1.628662078516     2.426090973343    -0.248616551440     1.007825032230
         H           -2.749247921484    -2.103983026657     0.870671448560     1.007825032230
         H           -3.183504921484     1.742326973343    -1.007716551440     1.007825032230
         H           -4.203104921484    -0.360989026657    -0.150331551440     1.007825032230
         H            3.738474078516    -0.032271026657     0.880851448560     1.007825032230
         H            3.616435078516     0.767250973343    -0.693840551440     1.007825032230
         H            3.954295078516    -0.979626026657    -0.607117551440     1.007825032230

  Basis Set: AUG-CC-PVTZ
    Blend: AUG-CC-PVTZ
  Basis Set: (AUG-CC-PVTZ AUX)
    Blend: AUG-CC-PVTZ-JKFIT
	 Reference Energy          =    -476.6838108772304849 [Eh]
	 Singles Energy            =      -0.0000000000000000 [Eh]
	 Same-Spin Energy          =      -0.5115987017295546 [Eh]
	 Opposite-Spin Energy      =      -1.6167817476511965 [Eh]
	 Correlation Energy        =      -2.1283804493807512 [Eh]
	 Total Energy              =    -478.8121913266112415 [Eh]

	 ================> DF-SCS-MP2 Energies <==================
	-----------------------------------------------------------
	 SCS Same-Spin Scale       =       0.3333333333333333 [-]
	 SCS Opposite-Spin Scale   =       1.2000000000000000 [-]
	 SCS Same-Spin Energy      =      -0.1705329005765182 [Eh]
	 SCS Opposite-Spin Energy  =      -1.9401380971814357 [Eh]
	 SCS Correlation Energy    =      -2.1106709977579539 [Eh]
	 SCS Total Energy          =    -478.7944818749884348 [Eh]
	-----------------------------------------------------------

  Dipole Moment: [D]
     X:     0.6793      Y:     3.2882      Z:     1.2136     Total:     3.5702

*** Psi4 exiting successfully. Buy a developer a beer!
