                               Psi4 1.3.2 release

  ==> Input File <==

--------------------------------------------------------------------------
#psi4
#
memory 32 gb

molecule  {
0 1
  O        1.5353870    -1.6551020    -0.6345320
  N        1.0046660     0.4022290     0.2352610
  C       -0.3613292     0.0391756     0.0431194
  C       -0.9676930    -1.0124890     0.5938810
  C       -1.2114290     1.1495920    -0.4744810
  C        1.4334500     1.7470840     0.6117170
  C        1.9002030    -0.5546920    -0.2186930
  C       -2.3437090    -1.2082300     0.4876030
  C       -2.5901160     0.9502090    -0.5611550
  C       -3.1615570    -0.2292440    -0.0824530
  C        3.3698180    -0.1837380    -0.1580780
  H       -0.3333780    -1.7703900     1.0389010
  H       -0.7697760     2.0586490    -0.8748040
  H        2.3549360     1.7005960     1.1924500
  H        0.6579290     2.1862960     1.2404600
  H        1.5971270     2.4005710    -0.2540720
  H       -2.7807830    -2.1295030     0.8652160
  H       -3.2150400     1.7168070    -1.0131720
  H       -4.2346400    -0.3865090    -0.1557870
  H        3.7069390    -0.0577910     0.8753960
  H        3.5849000     0.7417310    -0.6992960
  H        3.9227600    -1.0051460    -0.6125730
units angstrom
no_reorient  #important for SAPT in psi4, default
symmetry c1  #important for SAPT in psi4, default
}

set PROPERTIES_ORIGIN ["COM"]
properties('MP2/aug-cc-pvtz', properties = ['dipole'])
--------------------------------------------------------------------------

    Molecular point group: c1
  Charge       = 0
  Multiplicity = 1
  Basis Set: AUG-CC-PVTZ
    Blend: AUG-CC-PVTZ
  Basis Set: (AUG-CC-PVTZ AUX)
    Blend: AUG-CC-PVTZ-JKFIT

    Orbital Energies [Eh]
    ---------------------

    Doubly Occupied:

       1A    -20.518514     2A    -15.598561     3A    -11.353939
       4A    -11.280524     5A    -11.279313     6A    -11.243782
       7A    -11.239502     8A    -11.237094     9A    -11.236048
      10A    -11.232036    11A    -11.222144    12A     -1.377612
      13A     -1.257784    14A     -1.141354    15A     -1.033733
      16A     -1.013814    17A     -0.991157    18A     -0.954802
      19A     -0.834971    20A     -0.830050    21A     -0.749439
      22A     -0.698295    23A     -0.678840    24A     -0.664499
      25A     -0.657340    26A     -0.619088    27A     -0.608178
      28A     -0.587398    29A     -0.585155    30A     -0.577837
      31A     -0.562964    32A     -0.558704    33A     -0.523000
      34A     -0.514412    35A     -0.495837    36A     -0.488357
      37A     -0.422231    38A     -0.404754    39A     -0.336205
      40A     -0.313343

  @DF-RHF Final Energy:  -476.68294775115976

   => Energetics <=

    Nuclear Repulsion Energy =            589.2484276387946238
    One-Electron Energy =               -1816.0175292671501666
    Two-Electron Energy =                 750.0861538771958976
    Total Energy =                       -476.6829477511597588
  Basis Set: (AUG-CC-PVTZ AUX)
    Blend: AUG-CC-PVTZ-RI
    Molecular point group: c1

    Geometry (in Angstrom), charge = 0, multiplicity = 1:

       Center              X                  Y                   Z               Mass
    ------------   -----------------  -----------------  -----------------  -----------------
         O            1.562455178552    -1.608344738677    -0.618821918186    15.994914619570
         N            1.031734178552     0.448986261323     0.250971081814    14.003074004430
         C           -0.334261021448     0.085932861323     0.058829481814    12.000000000000
         C           -0.940624821448    -0.965731738677     0.609591081814    12.000000000000
         C           -1.184360821448     1.196349261323    -0.458770918186    12.000000000000
         C            1.460518178552     1.793841261323     0.627427081814    12.000000000000
         C            1.927271178552    -0.507934738677    -0.202982918186    12.000000000000
         C           -2.316640821448    -1.161472738677     0.503313081814    12.000000000000
         C           -2.563047821448     0.996966261323    -0.545444918186    12.000000000000
         C           -3.134488821448    -0.182486738677    -0.066742918186    12.000000000000
         C            3.396886178552    -0.136980738677    -0.142367918186    12.000000000000
         H           -0.306309821448    -1.723632738677     1.054611081814     1.007825032230
         H           -0.742707821448     2.105406261323    -0.859093918186     1.007825032230
         H            2.382004178552     1.747353261323     1.208160081814     1.007825032230
         H            0.684997178552     2.233053261323     1.256170081814     1.007825032230
         H            1.624195178552     2.447328261323    -0.238361918186     1.007825032230
         H           -2.753714821448    -2.082745738677     0.880926081814     1.007825032230
         H           -3.187971821448     1.763564261323    -0.997461918186     1.007825032230
         H           -4.207571821448    -0.339751738677    -0.140076918186     1.007825032230
         H            3.734007178552    -0.011033738677     0.891106081814     1.007825032230
         H            3.611968178552     0.788488261323    -0.683585918186     1.007825032230
         H            3.949828178552    -0.958388738677    -0.596862918186     1.007825032230

  Basis Set: AUG-CC-PVTZ
    Blend: AUG-CC-PVTZ
  Basis Set: (AUG-CC-PVTZ AUX)
    Blend: AUG-CC-PVTZ-JKFIT
	 Reference Energy          =    -476.6829477511597588 [Eh]
	 Singles Energy            =      -0.0000000000000000 [Eh]
	 Same-Spin Energy          =      -0.5119541036402308 [Eh]
	 Opposite-Spin Energy      =      -1.6169218307533353 [Eh]
	 Correlation Energy        =      -2.1288759343935659 [Eh]
	 Total Energy              =    -478.8118236855533496 [Eh]

	 ================> DF-SCS-MP2 Energies <==================
	-----------------------------------------------------------
	 SCS Same-Spin Scale       =       0.3333333333333333 [-]
	 SCS Opposite-Spin Scale   =       1.2000000000000000 [-]
	 SCS Same-Spin Energy      =      -0.1706513678800769 [Eh]
	 SCS Opposite-Spin Energy  =      -1.9403061969040023 [Eh]
	 SCS Correlation Energy    =      -2.1109575647840790 [Eh]
	 SCS Total Energy          =    -478.7939053159438458 [Eh]
	-----------------------------------------------------------

  Dipole Moment: [D]
     X:     0.6895      Y:     3.3700      Z:     1.3218     Total:     3.6851

*** Psi4 exiting successfully. Buy a developer a beer!
