                               Psi4 1.3.2 release

  ==> Input File <==

--------------------------------------------------------------------------
#psi4
#
memory 32 gb

molecule  {
0 1
  O        1.5353870    -1.6551020    -0.6345320
  N        1.0046660     0.4022290     0.2352610
  C       -0.3920479     0.1461361     0.1000729
  C       -0.9676930    -1.0124890     0.5938810
  C       -1.2114290     1.1495920    -0.4744810
  C        1.4334500     1.7470840     0.6117170
  C        1.9002030    -0.5546920    -0.2186930
  C       -2.3437090    -1.2082300     0.4876030
  C       -2.5901160     0.9502090    -0.5611550
  C       -3.1615570    -0.2292440    -0.0824530
  C        3.3698180    -0.1837380    -0.1580780
  H       -0.3333780    -1.7703900     1.0389010
  H       -0.7697760     2.0586490    -0.8748040
  H        2.3549360     1.7005960     1.1924500
  H        0.6579290     2.1862960     1.2404600
  H        1.5971270     2.4005710    -0.2540720
  H       -2.7807830    -2.1295030     0.8652160
  H       -3.2150400     1.7168070    -1.0131720
  H       -4.2346400    -0.3865090    -0.1557870
  H        3.7069390    -0.0577910     0.8753960
  H        3.5849000     0.7417310    -0.6992960
  H        3.9227600    -1.0051460    -0.6125730
units angstrom
no_reorient  #important for SAPT in psi4, default
symmetry c1  #important for SAPT in psi4, default
}

set PROPERTIES_ORIGIN ["COM"]
properties('MP2/aug-cc-pvtz', properties = ['dipole'])
--------------------------------------------------------------------------

    Molecular point group: c1
  Charge       = 0
  Multiplicity = 1
  Basis Set: AUG-CC-PVTZ
    Blend: AUG-CC-PVTZ
  Basis Set: (AUG-CC-PVTZ AUX)
    Blend: AUG-CC-PVTZ-JKFIT

    Orbital Energies [Eh]
    ---------------------

    Doubly Occupied:

       1A    -20.519025     2A    -15.598406     3A    -11.356098
       4A    -11.278408     5A    -11.277334     6A    -11.240797
       7A    -11.238545     8A    -11.237263     9A    -11.235242
      10A    -11.231768    11A    -11.228621    12A     -1.376653
      13A     -1.258719    14A     -1.142008    15A     -1.030332
      16A     -1.015835    17A     -0.993277    18A     -0.953174
      19A     -0.840513    20A     -0.827396    21A     -0.754110
      22A     -0.695995    23A     -0.679499    24A     -0.661841
      25A     -0.657250    26A     -0.618305    27A     -0.612485
      28A     -0.587934    29A     -0.584423    30A     -0.577112
      31A     -0.564543    32A     -0.559059    33A     -0.523094
      34A     -0.510801    35A     -0.497479    36A     -0.495314
      37A     -0.423290    38A     -0.405135    39A     -0.335414
      40A     -0.315316

  @DF-RHF Final Energy:  -476.69991783732661

   => Energetics <=

    Nuclear Repulsion Energy =            589.0996248527039825
    One-Electron Energy =               -1815.7234627640434610
    Two-Electron Energy =                 749.9239200740128126
    Total Energy =                       -476.6999178373266659
  Basis Set: (AUG-CC-PVTZ AUX)
    Blend: AUG-CC-PVTZ-RI
    Molecular point group: c1

    Geometry (in Angstrom), charge = 0, multiplicity = 1:

       Center              X                  Y                   Z               Mass
    ------------   -----------------  -----------------  -----------------  -----------------
         O            1.564927772806    -1.616954149809    -0.623406190856    15.994914619570
         N            1.034206772806     0.440376850191     0.246386809144    14.003074004430
         C           -0.362507127194     0.184283950191     0.111198709144    12.000000000000
         C           -0.938152227194    -0.974341149809     0.605006809144    12.000000000000
         C           -1.181888227194     1.187739850191    -0.463355190856    12.000000000000
         C            1.462990772806     1.785231850191     0.622842809144    12.000000000000
         C            1.929743772806    -0.516544149809    -0.207567190856    12.000000000000
         C           -2.314168227194    -1.170082149809     0.498728809144    12.000000000000
         C           -2.560575227194     0.988356850191    -0.550029190856    12.000000000000
         C           -3.132016227194    -0.191096149809    -0.071327190856    12.000000000000
         C            3.399358772806    -0.145590149809    -0.146952190856    12.000000000000
         H           -0.303837227194    -1.732242149809     1.050026809144     1.007825032230
         H           -0.740235227194     2.096796850191    -0.863678190856     1.007825032230
         H            2.384476772806     1.738743850191     1.203575809144     1.007825032230
         H            0.687469772806     2.224443850191     1.251585809144     1.007825032230
         H            1.626667772806     2.438718850191    -0.242946190856     1.007825032230
         H           -2.751242227194    -2.091355149809     0.876341809144     1.007825032230
         H           -3.185499227194     1.754954850191    -1.002046190856     1.007825032230
         H           -4.205099227194    -0.348361149809    -0.144661190856     1.007825032230
         H            3.736479772806    -0.019643149809     0.886521809144     1.007825032230
         H            3.614440772806     0.779878850191    -0.688170190856     1.007825032230
         H            3.952300772806    -0.966998149809    -0.601447190856     1.007825032230

  Basis Set: AUG-CC-PVTZ
    Blend: AUG-CC-PVTZ
  Basis Set: (AUG-CC-PVTZ AUX)
    Blend: AUG-CC-PVTZ-JKFIT
	 Reference Energy          =    -476.6999178373266091 [Eh]
	 Singles Energy            =      -0.0000000000000000 [Eh]
	 Same-Spin Energy          =      -0.5116488829921856 [Eh]
	 Opposite-Spin Energy      =      -1.6154714864708657 [Eh]
	 Correlation Energy        =      -2.1271203694630514 [Eh]
	 Total Energy              =    -478.8270382067896662 [Eh]

	 ================> DF-SCS-MP2 Energies <==================
	-----------------------------------------------------------
	 SCS Same-Spin Scale       =       0.3333333333333333 [-]
	 SCS Opposite-Spin Scale   =       1.2000000000000000 [-]
	 SCS Same-Spin Energy      =      -0.1705496276640618 [Eh]
	 SCS Opposite-Spin Energy  =      -1.9385657837650387 [Eh]
	 SCS Correlation Energy    =      -2.1091154114291006 [Eh]
	 SCS Total Energy          =    -478.8090332487557248 [Eh]
	-----------------------------------------------------------

  Dipole Moment: [D]
     X:     0.6985      Y:     3.3361      Z:     1.2819     Total:     3.6415

*** Psi4 exiting successfully. Buy a developer a beer!
