                               Psi4 1.3.2 release

  ==> Input File <==

--------------------------------------------------------------------------
#psi4
#
memory 32 gb

molecule  {
0 1
  O        1.5353870    -1.6551020    -0.6345320
  N        1.0046660     0.4022290     0.2352610
  C       -0.3866360     0.1259209     0.0849228
  C       -0.9676930    -1.0124890     0.5938810
  C       -1.2114290     1.1495920    -0.4744810
  C        1.4334500     1.7470840     0.6117170
  C        1.9002030    -0.5546920    -0.2186930
  C       -2.3437090    -1.2082300     0.4876030
  C       -2.5901160     0.9502090    -0.5611550
  C       -3.1615570    -0.2292440    -0.0824530
  C        3.3698180    -0.1837380    -0.1580780
  H       -0.3333780    -1.7703900     1.0389010
  H       -0.7697760     2.0586490    -0.8748040
  H        2.3549360     1.7005960     1.1924500
  H        0.6579290     2.1862960     1.2404600
  H        1.5971270     2.4005710    -0.2540720
  H       -2.7807830    -2.1295030     0.8652160
  H       -3.2150400     1.7168070    -1.0131720
  H       -4.2346400    -0.3865090    -0.1557870
  H        3.7069390    -0.0577910     0.8753960
  H        3.5849000     0.7417310    -0.6992960
  H        3.9227600    -1.0051460    -0.6125730
units angstrom
no_reorient  #important for SAPT in psi4, default
symmetry c1  #important for SAPT in psi4, default
}

set PROPERTIES_ORIGIN ["COM"]
properties('MP2/aug-cc-pvtz', properties = ['dipole'])
--------------------------------------------------------------------------

    Molecular point group: c1
  Charge       = 0
  Multiplicity = 1
  Basis Set: AUG-CC-PVTZ
    Blend: AUG-CC-PVTZ
  Basis Set: (AUG-CC-PVTZ AUX)
    Blend: AUG-CC-PVTZ-JKFIT

    Orbital Energies [Eh]
    ---------------------

    Doubly Occupied:

       1A    -20.518942     2A    -15.598459     3A    -11.355666
       4A    -11.278546     5A    -11.277956     6A    -11.240552
       7A    -11.239261     8A    -11.237400     9A    -11.235389
      10A    -11.231710    11A    -11.227462    12A     -1.376827
      13A     -1.258556    14A     -1.141852    15A     -1.030571
      16A     -1.015616    17A     -0.993038    18A     -0.953508
      19A     -0.839546    20A     -0.827808    21A     -0.753315
      22A     -0.696416    23A     -0.679370    24A     -0.662049
      25A     -0.657440    26A     -0.618309    27A     -0.611988
      28A     -0.587845    29A     -0.584535    30A     -0.577251
      31A     -0.564355    32A     -0.559052    33A     -0.523079
      34A     -0.511178    35A     -0.497389    36A     -0.494609
      37A     -0.423119    38A     -0.405115    39A     -0.335310
      40A     -0.315179

  @DF-RHF Final Energy:  -476.69846716536478

   => Energetics <=

    Nuclear Repulsion Energy =            589.1416519030458403
    One-Electron Energy =               -1815.8090974858296249
    Two-Electron Energy =                 749.9689784174190663
    Total Energy =                       -476.6984671653647183
  Basis Set: (AUG-CC-PVTZ AUX)
    Blend: AUG-CC-PVTZ-RI
    Molecular point group: c1

    Geometry (in Angstrom), charge = 0, multiplicity = 1:

       Center              X                  Y                   Z               Mass
    ------------   -----------------  -----------------  -----------------  -----------------
         O            1.564492160855    -1.615326998029    -0.622186736576    15.994914619570
         N            1.033771160855     0.442004001971     0.247606263424    14.003074004430
         C           -0.357530839145     0.165695901971     0.097268063424    12.000000000000
         C           -0.938587839145    -0.972713998029     0.606226263424    12.000000000000
         C           -1.182323839145     1.189367001971    -0.462135736576    12.000000000000
         C            1.462555160855     1.786859001971     0.624062263424    12.000000000000
         C            1.929308160855    -0.514916998029    -0.206347736576    12.000000000000
         C           -2.314603839145    -1.168454998029     0.499948263424    12.000000000000
         C           -2.561010839145     0.989984001971    -0.548809736576    12.000000000000
         C           -3.132451839145    -0.189468998029    -0.070107736576    12.000000000000
         C            3.398923160855    -0.143962998029    -0.145732736576    12.000000000000
         H           -0.304272839145    -1.730614998029     1.051246263424     1.007825032230
         H           -0.740670839145     2.098424001971    -0.862458736576     1.007825032230
         H            2.384041160855     1.740371001971     1.204795263424     1.007825032230
         H            0.687034160855     2.226071001971     1.252805263424     1.007825032230
         H            1.626232160855     2.440346001971    -0.241726736576     1.007825032230
         H           -2.751677839145    -2.089727998029     0.877561263424     1.007825032230
         H           -3.185934839145     1.756582001971    -1.000826736576     1.007825032230
         H           -4.205534839145    -0.346733998029    -0.143441736576     1.007825032230
         H            3.736044160855    -0.018015998029     0.887741263424     1.007825032230
         H            3.614005160855     0.781506001971    -0.686950736576     1.007825032230
         H            3.951865160855    -0.965370998029    -0.600227736576     1.007825032230

  Basis Set: AUG-CC-PVTZ
    Blend: AUG-CC-PVTZ
  Basis Set: (AUG-CC-PVTZ AUX)
    Blend: AUG-CC-PVTZ-JKFIT
	 Reference Energy          =    -476.6984671653647752 [Eh]
	 Singles Energy            =      -0.0000000000000000 [Eh]
	 Same-Spin Energy          =      -0.5116900334060819 [Eh]
	 Opposite-Spin Energy      =      -1.6156029247017862 [Eh]
	 Correlation Energy        =      -2.1272929581078683 [Eh]
	 Total Energy              =    -478.8257601234726621 [Eh]

	 ================> DF-SCS-MP2 Energies <==================
	-----------------------------------------------------------
	 SCS Same-Spin Scale       =       0.3333333333333333 [-]
	 SCS Opposite-Spin Scale   =       1.2000000000000000 [-]
	 SCS Same-Spin Energy      =      -0.1705633444686940 [Eh]
	 SCS Opposite-Spin Energy  =      -1.9387235096421434 [Eh]
	 SCS Correlation Energy    =      -2.1092868541108372 [Eh]
	 SCS Total Energy          =    -478.8077540194756239 [Eh]
	-----------------------------------------------------------

  Dipole Moment: [D]
     X:     0.6991      Y:     3.3440      Z:     1.2889     Total:     3.6514

*** Psi4 exiting successfully. Buy a developer a beer!
