                               Psi4 1.3.2 release

  ==> Input File <==

--------------------------------------------------------------------------
#psi4
#
memory 32 gb

molecule  {
0 1
  O        1.5353870    -1.6551020    -0.6345320
  N        1.0046660     0.4022290     0.2352610
  C       -0.3621688     0.0290054     0.0705314
  C       -0.9676930    -1.0124890     0.5938810
  C       -1.2114290     1.1495920    -0.4744810
  C        1.4334500     1.7470840     0.6117170
  C        1.9002030    -0.5546920    -0.2186930
  C       -2.3437090    -1.2082300     0.4876030
  C       -2.5901160     0.9502090    -0.5611550
  C       -3.1615570    -0.2292440    -0.0824530
  C        3.3698180    -0.1837380    -0.1580780
  H       -0.3333780    -1.7703900     1.0389010
  H       -0.7697760     2.0586490    -0.8748040
  H        2.3549360     1.7005960     1.1924500
  H        0.6579290     2.1862960     1.2404600
  H        1.5971270     2.4005710    -0.2540720
  H       -2.7807830    -2.1295030     0.8652160
  H       -3.2150400     1.7168070    -1.0131720
  H       -4.2346400    -0.3865090    -0.1557870
  H        3.7069390    -0.0577910     0.8753960
  H        3.5849000     0.7417310    -0.6992960
  H        3.9227600    -1.0051460    -0.6125730
units angstrom
no_reorient  #important for SAPT in psi4, default
symmetry c1  #important for SAPT in psi4, default
}

set PROPERTIES_ORIGIN ["COM"]
properties('MP2/aug-cc-pvtz', properties = ['dipole'])
--------------------------------------------------------------------------

    Molecular point group: c1
  Charge       = 0
  Multiplicity = 1
  Basis Set: AUG-CC-PVTZ
    Blend: AUG-CC-PVTZ
  Basis Set: (AUG-CC-PVTZ AUX)
    Blend: AUG-CC-PVTZ-JKFIT

    Orbital Energies [Eh]
    ---------------------

    Doubly Occupied:

       1A    -20.518351     2A    -15.598598     3A    -11.353875
       4A    -11.280679     5A    -11.278448     6A    -11.244616
       7A    -11.239474     8A    -11.237053     9A    -11.236446
      10A    -11.231963    11A    -11.219487    12A     -1.377468
      13A     -1.257670    14A     -1.142147    15A     -1.035703
      16A     -1.013593    17A     -0.990471    18A     -0.954943
      19A     -0.834556    20A     -0.831494    21A     -0.749366
      22A     -0.698532    23A     -0.678818    24A     -0.664802
      25A     -0.657317    26A     -0.619676    27A     -0.607383
      28A     -0.587469    29A     -0.585485    30A     -0.577883
      31A     -0.562761    32A     -0.558697    33A     -0.523012
      34A     -0.515128    35A     -0.496193    36A     -0.486756
      37A     -0.421804    38A     -0.404639    39A     -0.338066
      40A     -0.312564

  @DF-RHF Final Energy:  -476.67940559729948

   => Energetics <=

    Nuclear Repulsion Energy =            589.3128077344207441
    One-Electron Energy =               -1816.1376589396707004
    Two-Electron Energy =                 750.1454456079505917
    Total Energy =                       -476.6794055972994784
  Basis Set: (AUG-CC-PVTZ AUX)
    Blend: AUG-CC-PVTZ-RI
    Molecular point group: c1

    Geometry (in Angstrom), charge = 0, multiplicity = 1:

       Center              X                  Y                   Z               Mass
    ------------   -----------------  -----------------  -----------------  -----------------
         O            1.562522759215    -1.607526124019    -0.621028351196    15.994914619570
         N            1.031801759215     0.449804875981     0.248764648804    14.003074004430
         C           -0.335033040785     0.076581275981     0.084035048804    12.000000000000
         C           -0.940557240785    -0.964913124019     0.607384648804    12.000000000000
         C           -1.184293240785     1.197167875981    -0.460977351196    12.000000000000
         C            1.460585759215     1.794659875981     0.625220648804    12.000000000000
         C            1.927338759215    -0.507116124019    -0.205189351196    12.000000000000
         C           -2.316573240785    -1.160654124019     0.501106648804    12.000000000000
         C           -2.562980240785     0.997784875981    -0.547651351196    12.000000000000
         C           -3.134421240785    -0.181668124019    -0.068949351196    12.000000000000
         C            3.396953759215    -0.136162124019    -0.144574351196    12.000000000000
         H           -0.306242240785    -1.722814124019     1.052404648804     1.007825032230
         H           -0.742640240785     2.106224875981    -0.861300351196     1.007825032230
         H            2.382071759215     1.748171875981     1.205953648804     1.007825032230
         H            0.685064759215     2.233871875981     1.253963648804     1.007825032230
         H            1.624262759215     2.448146875981    -0.240568351196     1.007825032230
         H           -2.753647240785    -2.081927124019     0.878719648804     1.007825032230
         H           -3.187904240785     1.764382875981    -0.999668351196     1.007825032230
         H           -4.207504240785    -0.338933124019    -0.142283351196     1.007825032230
         H            3.734074759215    -0.010215124019     0.888899648804     1.007825032230
         H            3.612035759215     0.789306875981    -0.685792351196     1.007825032230
         H            3.949895759215    -0.957570124019    -0.599069351196     1.007825032230

  Basis Set: AUG-CC-PVTZ
    Blend: AUG-CC-PVTZ
  Basis Set: (AUG-CC-PVTZ AUX)
    Blend: AUG-CC-PVTZ-JKFIT
	 Reference Energy          =    -476.6794055972994784 [Eh]
	 Singles Energy            =      -0.0000000000000000 [Eh]
	 Same-Spin Energy          =      -0.5117463483615133 [Eh]
	 Opposite-Spin Energy      =      -1.6168453327992778 [Eh]
	 Correlation Energy        =      -2.1285916811607910 [Eh]
	 Total Energy              =    -478.8079972784602774 [Eh]

	 ================> DF-SCS-MP2 Energies <==================
	-----------------------------------------------------------
	 SCS Same-Spin Scale       =       0.3333333333333333 [-]
	 SCS Opposite-Spin Scale   =       1.2000000000000000 [-]
	 SCS Same-Spin Energy      =      -0.1705821161205044 [Eh]
	 SCS Opposite-Spin Energy  =      -1.9402143993591332 [Eh]
	 SCS Correlation Energy    =      -2.1107965154796378 [Eh]
	 SCS Total Energy          =    -478.7902021127791272 [Eh]
	-----------------------------------------------------------

  Dipole Moment: [D]
     X:     0.6896      Y:     3.3677      Z:     1.3321     Total:     3.6867

*** Psi4 exiting successfully. Buy a developer a beer!
