                               Psi4 1.3.2 release

  ==> Input File <==

--------------------------------------------------------------------------
#psi4
#
memory 32 gb

molecule  {
0 1
  O        1.5353870    -1.6551020    -0.6345320
  N        1.0046660     0.4022290     0.2352610
  C       -0.4051646     0.2140123     0.1274586
  C       -0.9676930    -1.0124890     0.5938810
  C       -1.2114290     1.1495920    -0.4744810
  C        1.4334500     1.7470840     0.6117170
  C        1.9002030    -0.5546920    -0.2186930
  C       -2.3437090    -1.2082300     0.4876030
  C       -2.5901160     0.9502090    -0.5611550
  C       -3.1615570    -0.2292440    -0.0824530
  C        3.3698180    -0.1837380    -0.1580780
  H       -0.3333780    -1.7703900     1.0389010
  H       -0.7697760     2.0586490    -0.8748040
  H        2.3549360     1.7005960     1.1924500
  H        0.6579290     2.1862960     1.2404600
  H        1.5971270     2.4005710    -0.2540720
  H       -2.7807830    -2.1295030     0.8652160
  H       -3.2150400     1.7168070    -1.0131720
  H       -4.2346400    -0.3865090    -0.1557870
  H        3.7069390    -0.0577910     0.8753960
  H        3.5849000     0.7417310    -0.6992960
  H        3.9227600    -1.0051460    -0.6125730
units angstrom
no_reorient  #important for SAPT in psi4, default
symmetry c1  #important for SAPT in psi4, default
}

set PROPERTIES_ORIGIN ["COM"]
properties('MP2/aug-cc-pvtz', properties = ['dipole'])
--------------------------------------------------------------------------

    Molecular point group: c1
  Charge       = 0
  Multiplicity = 1
  Basis Set: AUG-CC-PVTZ
    Blend: AUG-CC-PVTZ
  Basis Set: (AUG-CC-PVTZ AUX)
    Blend: AUG-CC-PVTZ-JKFIT

    Orbital Energies [Eh]
    ---------------------

    Doubly Occupied:

       1A    -20.519446     2A    -15.598289     3A    -11.357545
       4A    -11.278290     5A    -11.275473     6A    -11.241575
       7A    -11.237816     8A    -11.234675     9A    -11.234325
      10A    -11.233397    11A    -11.232210    12A     -1.376382
      13A     -1.259373    14A     -1.142369    15A     -1.030898
      16A     -1.015510    17A     -0.993628    18A     -0.952270
      19A     -0.843503    20A     -0.825261    21A     -0.756155
      22A     -0.694753    23A     -0.679929    24A     -0.662490
      25A     -0.656236    26A     -0.619290    27A     -0.612382
      28A     -0.588182    29A     -0.583955    30A     -0.576728
      31A     -0.564648    32A     -0.558913    33A     -0.523311
      34A     -0.511575    35A     -0.496961    36A     -0.494114
      37A     -0.424114    38A     -0.405185    39A     -0.336699
      40A     -0.314602

  @DF-RHF Final Energy:  -476.69881206602105

   => Energetics <=

    Nuclear Repulsion Energy =            588.9329313836796018
    One-Electron Energy =               -1815.3785782008415026
    Two-Electron Energy =                 749.7468347511410229
    Total Energy =                       -476.6988120660209916
  Basis Set: (AUG-CC-PVTZ AUX)
    Blend: AUG-CC-PVTZ-RI
    Molecular point group: c1

    Geometry (in Angstrom), charge = 0, multiplicity = 1:

       Center              X                  Y                   Z               Mass
    ------------   -----------------  -----------------  -----------------  -----------------
         O            1.565983555670    -1.622417606990    -0.625610506940    15.994914619570
         N            1.035262555670     0.434913393010     0.244182493060    14.003074004430
         C           -0.374568044330     0.246696693010     0.136380093060    12.000000000000
         C           -0.937096444330    -0.979804606990     0.602802493060    12.000000000000
         C           -1.180832444330     1.182276393010    -0.465559506940    12.000000000000
         C            1.464046555670     1.779768393010     0.620638493060    12.000000000000
         C            1.930799555670    -0.522007606990    -0.209771506940    12.000000000000
         C           -2.313112444330    -1.175545606990     0.496524493060    12.000000000000
         C           -2.559519444330     0.982893393010    -0.552233506940    12.000000000000
         C           -3.130960444330    -0.196559606990    -0.073531506940    12.000000000000
         C            3.400414555670    -0.151053606990    -0.149156506940    12.000000000000
         H           -0.302781444330    -1.737705606990     1.047822493060     1.007825032230
         H           -0.739179444330     2.091333393010    -0.865882506940     1.007825032230
         H            2.385532555670     1.733280393010     1.201371493060     1.007825032230
         H            0.688525555670     2.218980393010     1.249381493060     1.007825032230
         H            1.627723555670     2.433255393010    -0.245150506940     1.007825032230
         H           -2.750186444330    -2.096818606990     0.874137493060     1.007825032230
         H           -3.184443444330     1.749491393010    -1.004250506940     1.007825032230
         H           -4.204043444330    -0.353824606990    -0.146865506940     1.007825032230
         H            3.737535555670    -0.025106606990     0.884317493060     1.007825032230
         H            3.615496555670     0.774415393010    -0.690374506940     1.007825032230
         H            3.953356555670    -0.972461606990    -0.603651506940     1.007825032230

  Basis Set: AUG-CC-PVTZ
    Blend: AUG-CC-PVTZ
  Basis Set: (AUG-CC-PVTZ AUX)
    Blend: AUG-CC-PVTZ-JKFIT
	 Reference Energy          =    -476.6988120660210484 [Eh]
	 Singles Energy            =      -0.0000000000000000 [Eh]
	 Same-Spin Energy          =      -0.5115743466818244 [Eh]
	 Opposite-Spin Energy      =      -1.6155657379030202 [Eh]
	 Correlation Energy        =      -2.1271400845848447 [Eh]
	 Total Energy              =    -478.8259521506058718 [Eh]

	 ================> DF-SCS-MP2 Energies <==================
	-----------------------------------------------------------
	 SCS Same-Spin Scale       =       0.3333333333333333 [-]
	 SCS Opposite-Spin Scale   =       1.2000000000000000 [-]
	 SCS Same-Spin Energy      =      -0.1705247822272748 [Eh]
	 SCS Opposite-Spin Energy  =      -1.9386788854836241 [Eh]
	 SCS Correlation Energy    =      -2.1092036677108990 [Eh]
	 SCS Total Energy          =    -478.8080157337319633 [Eh]
	-----------------------------------------------------------

  Dipole Moment: [D]
     X:     0.6977      Y:     3.3143      Z:     1.2527     Total:     3.6112

*** Psi4 exiting successfully. Buy a developer a beer!
