                               Psi4 1.3.2 release

  ==> Input File <==

--------------------------------------------------------------------------
#psi4
#
memory 32 gb

molecule  {
0 1
  O        1.5353870    -1.6551020    -0.6345320
  N        1.0046660     0.4022290     0.2352610
  C       -0.3748230     0.0823533     0.0639167
  C       -0.9676930    -1.0124890     0.5938810
  C       -1.2114290     1.1495920    -0.4744810
  C        1.4334500     1.7470840     0.6117170
  C        1.9002030    -0.5546920    -0.2186930
  C       -2.3437090    -1.2082300     0.4876030
  C       -2.5901160     0.9502090    -0.5611550
  C       -3.1615570    -0.2292440    -0.0824530
  C        3.3698180    -0.1837380    -0.1580780
  H       -0.3333780    -1.7703900     1.0389010
  H       -0.7697760     2.0586490    -0.8748040
  H        2.3549360     1.7005960     1.1924500
  H        0.6579290     2.1862960     1.2404600
  H        1.5971270     2.4005710    -0.2540720
  H       -2.7807830    -2.1295030     0.8652160
  H       -3.2150400     1.7168070    -1.0131720
  H       -4.2346400    -0.3865090    -0.1557870
  H        3.7069390    -0.0577910     0.8753960
  H        3.5849000     0.7417310    -0.6992960
  H        3.9227600    -1.0051460    -0.6125730
units angstrom
no_reorient  #important for SAPT in psi4, default
symmetry c1  #important for SAPT in psi4, default
}

set PROPERTIES_ORIGIN ["COM"]
properties('MP2/aug-cc-pvtz', properties = ['dipole'])
--------------------------------------------------------------------------

    Molecular point group: c1
  Charge       = 0
  Multiplicity = 1
  Basis Set: AUG-CC-PVTZ
    Blend: AUG-CC-PVTZ
  Basis Set: (AUG-CC-PVTZ AUX)
    Blend: AUG-CC-PVTZ-JKFIT

    Orbital Energies [Eh]
    ---------------------

    Doubly Occupied:

       1A    -20.518705     2A    -15.598512     3A    -11.354773
       4A    -11.279234     5A    -11.278847     6A    -11.241509
       7A    -11.240025     8A    -11.237343     9A    -11.235771
      10A    -11.231765    11A    -11.224645    12A     -1.377162
      13A     -1.258159    14A     -1.141609    15A     -1.031863
      16A     -1.014857    17A     -0.992195    18A     -0.954154
      19A     -0.837289    20A     -0.829039    21A     -0.751472
      22A     -0.697342    23A     -0.679097    24A     -0.662941
      25A     -0.657514    26A     -0.618621    27A     -0.610319
      28A     -0.587634    29A     -0.584859    30A     -0.577545
      31A     -0.563769    32A     -0.558934    33A     -0.523025
      34A     -0.512562    35A     -0.496774    36A     -0.492179
      37A     -0.422654    38A     -0.404984    39A     -0.335535
      40A     -0.314516

  @DF-RHF Final Energy:  -476.69252826409775

   => Energetics <=

    Nuclear Repulsion Energy =            589.2077555225922652
    One-Electron Energy =               -1815.9411012423227021
    Two-Electron Energy =                 750.0408174556328049
    Total Energy =                       -476.6925282640977457
  Basis Set: (AUG-CC-PVTZ AUX)
    Blend: AUG-CC-PVTZ-RI
    Molecular point group: c1

    Geometry (in Angstrom), charge = 0, multiplicity = 1:

       Center              X                  Y                   Z               Mass
    ------------   -----------------  -----------------  -----------------  -----------------
         O            1.563541314760    -1.611820176535    -0.620495924068    15.994914619570
         N            1.032820314760     0.445510823465     0.249297075932    14.003074004430
         C           -0.346668685240     0.125635123465     0.077952775932    12.000000000000
         C           -0.939538685240    -0.969207176535     0.607917075932    12.000000000000
         C           -1.183274685240     1.192873823465    -0.460444924068    12.000000000000
         C            1.461604314760     1.790365823465     0.625753075932    12.000000000000
         C            1.928357314760    -0.511410176535    -0.204656924068    12.000000000000
         C           -2.315554685240    -1.164948176535     0.501639075932    12.000000000000
         C           -2.561961685240     0.993490823465    -0.547118924068    12.000000000000
         C           -3.133402685240    -0.185962176535    -0.068416924068    12.000000000000
         C            3.397972314760    -0.140456176535    -0.144041924068    12.000000000000
         H           -0.305223685240    -1.727108176535     1.052937075932     1.007825032230
         H           -0.741621685240     2.101930823465    -0.860767924068     1.007825032230
         H            2.383090314760     1.743877823465     1.206486075932     1.007825032230
         H            0.686083314760     2.229577823465     1.254496075932     1.007825032230
         H            1.625281314760     2.443852823465    -0.240035924068     1.007825032230
         H           -2.752628685240    -2.086221176535     0.879252075932     1.007825032230
         H           -3.186885685240     1.760088823465    -0.999135924068     1.007825032230
         H           -4.206485685240    -0.343227176535    -0.141750924068     1.007825032230
         H            3.735093314760    -0.014509176535     0.889432075932     1.007825032230
         H            3.613054314760     0.785012823465    -0.685259924068     1.007825032230
         H            3.950914314760    -0.961864176535    -0.598536924068     1.007825032230

  Basis Set: AUG-CC-PVTZ
    Blend: AUG-CC-PVTZ
  Basis Set: (AUG-CC-PVTZ AUX)
    Blend: AUG-CC-PVTZ-JKFIT
	 Reference Energy          =    -476.6925282640977457 [Eh]
	 Singles Energy            =      -0.0000000000000000 [Eh]
	 Same-Spin Energy          =      -0.5117962079726088 [Eh]
	 Opposite-Spin Energy      =      -1.6161050739716782 [Eh]
	 Correlation Energy        =      -2.1279012819442871 [Eh]
	 Total Energy              =    -478.8204295460420212 [Eh]

	 ================> DF-SCS-MP2 Energies <==================
	-----------------------------------------------------------
	 SCS Same-Spin Scale       =       0.3333333333333333 [-]
	 SCS Opposite-Spin Scale   =       1.2000000000000000 [-]
	 SCS Same-Spin Energy      =      -0.1705987359908696 [Eh]
	 SCS Opposite-Spin Energy  =      -1.9393260887660138 [Eh]
	 SCS Correlation Energy    =      -2.1099248247568836 [Eh]
	 SCS Total Energy          =    -478.8024530888546337 [Eh]
	-----------------------------------------------------------

  Dipole Moment: [D]
     X:     0.6951      Y:     3.3580      Z:     1.3058     Total:     3.6694

*** Psi4 exiting successfully. Buy a developer a beer!
