                               Psi4 1.4a3.dev225

  ==> Input File <==

--------------------------------------------------------------------------
#psi4
#
memory 32 gb

molecule  {
0 1
  O        1.5353870    -1.6551020    -0.6345320
  N        1.0046660     0.4022290     0.2352610
  C       -0.4164035     0.1665664     0.1043012
  C       -0.9676930    -1.0124890     0.5938810
  C       -1.2114290     1.1495920    -0.4744810
  C        1.4334500     1.7470840     0.6117170
  C        1.9002030    -0.5546920    -0.2186930
  C       -2.3437090    -1.2082300     0.4876030
  C       -2.5901160     0.9502090    -0.5611550
  C       -3.1615570    -0.2292440    -0.0824530
  C        3.3698180    -0.1837380    -0.1580780
  H       -0.3333780    -1.7703900     1.0389010
  H       -0.7697760     2.0586490    -0.8748040
  H        2.3549360     1.7005960     1.1924500
  H        0.6579290     2.1862960     1.2404600
  H        1.5971270     2.4005710    -0.2540720
  H       -2.7807830    -2.1295030     0.8652160
  H       -3.2150400     1.7168070    -1.0131720
  H       -4.2346400    -0.3865090    -0.1557870
  H        3.7069390    -0.0577910     0.8753960
  H        3.5849000     0.7417310    -0.6992960
  H        3.9227600    -1.0051460    -0.6125730
units angstrom
no_reorient  #important for SAPT in psi4, default
symmetry c1  #important for SAPT in psi4, default
}

set PROPERTIES_ORIGIN ["COM"]
properties('MP2/aug-cc-pvtz', properties = ['dipole'])
--------------------------------------------------------------------------

    Molecular point group: c1
  Charge       = 0
  Multiplicity = 1
  Basis Set: AUG-CC-PVTZ
    Blend: AUG-CC-PVTZ
  Basis Set: (AUG-CC-PVTZ AUX)
    Blend: AUG-CC-PVTZ-JKFIT

    Orbital Energies [Eh]
    ---------------------

    Doubly Occupied:

       1A    -20.517850     2A    -15.597115     3A    -11.355351
       4A    -11.277845     5A    -11.275709     6A    -11.240235
       7A    -11.238537     8A    -11.236375     9A    -11.235566
      10A    -11.232499    11A    -11.230262    12A     -1.374820
      13A     -1.254445    14A     -1.144624    15A     -1.029566
      16A     -1.017643    17A     -0.993678    18A     -0.951508
      19A     -0.839889    20A     -0.827714    21A     -0.754161
      22A     -0.695698    23A     -0.678326    24A     -0.660207
      25A     -0.655324    26A     -0.619252    27A     -0.614565
      28A     -0.588479    29A     -0.584403    30A     -0.575956
      31A     -0.563011    32A     -0.558090    33A     -0.522422
      34A     -0.509672    35A     -0.498779    36A     -0.497594
      37A     -0.422332    38A     -0.403637    39A     -0.336642
      40A     -0.317805

  @DF-RHF Final Energy:  -476.70047314942565

   => Energetics <=

    Nuclear Repulsion Energy =            589.0087699420927265
    One-Electron Energy =               -1815.5633196662449791
    Two-Electron Energy =                 749.8540765747267187
    Total Energy =                       -476.7004731494256475
  Basis Set: (AUG-CC-PVTZ AUX)
    Blend: AUG-CC-PVTZ-RI
    Molecular point group: c1

    Geometry (in Angstrom), charge = 0, multiplicity = 1:

       Center              X                  Y                   Z               Mass
    ------------   -----------------  -----------------  -----------------  -----------------
         O            1.566888191594    -1.618598615310    -0.623746533068    15.994914619570
         N            1.036167191594     0.438732384690     0.246046466932    14.003074004430
         C           -0.384902308406     0.203069784690     0.115086666932    12.000000000000
         C           -0.936191808406    -0.975985615310     0.604666466932    12.000000000000
         C           -1.179927808406     1.186095384690    -0.463695533068    12.000000000000
         C            1.464951191594     1.783587384690     0.622502466932    12.000000000000
         C            1.931704191594    -0.518188615310    -0.207907533068    12.000000000000
         C           -2.312207808406    -1.171726615310     0.498388466932    12.000000000000
         C           -2.558614808406     0.986712384690    -0.550369533068    12.000000000000
         C           -3.130055808406    -0.192740615310    -0.071667533068    12.000000000000
         C            3.401319191594    -0.147234615310    -0.147292533068    12.000000000000
         H           -0.301876808406    -1.733886615310     1.049686466932     1.007825032230
         H           -0.738274808406     2.095152384690    -0.864018533068     1.007825032230
         H            2.386437191594     1.737099384690     1.203235466932     1.007825032230
         H            0.689430191594     2.222799384690     1.251245466932     1.007825032230
         H            1.628628191594     2.437074384690    -0.243286533068     1.007825032230
         H           -2.749281808406    -2.092999615310     0.876001466932     1.007825032230
         H           -3.183538808406     1.753310384690    -1.002386533068     1.007825032230
         H           -4.203138808406    -0.350005615310    -0.145001533068     1.007825032230
         H            3.738440191594    -0.021287615310     0.886181466932     1.007825032230
         H            3.616401191594     0.778234384690    -0.688510533068     1.007825032230
         H            3.954261191594    -0.968642615310    -0.601787533068     1.007825032230

  Basis Set: AUG-CC-PVTZ
    Blend: AUG-CC-PVTZ
  Basis Set: (AUG-CC-PVTZ AUX)
    Blend: AUG-CC-PVTZ-JKFIT
	 Reference Energy          =    -476.7004731494256475 [Eh]
	 Singles Energy            =      -0.0000000000000000 [Eh]
	 Same-Spin Energy          =      -0.5114541890716590 [Eh]
	 Opposite-Spin Energy      =      -1.6151776897473464 [Eh]
	 Correlation Energy        =      -2.1266318788190053 [Eh]
	 Total Energy              =    -478.8271050282446595 [Eh]

	 ================> DF-SCS-MP2 Energies <==================
	-----------------------------------------------------------
	 SCS Same-Spin Scale       =       0.3333333333333333 [-]
	 SCS Opposite-Spin Scale   =       1.2000000000000000 [-]
	 SCS Same-Spin Energy      =      -0.1704847296905530 [Eh]
	 SCS Opposite-Spin Energy  =      -1.9382132276968156 [Eh]
	 SCS Correlation Energy    =      -2.1086979573873688 [Eh]
	 SCS Total Energy          =    -478.8091711068130394 [Eh]
	-----------------------------------------------------------

  Dipole Moment: [D]
     X:     0.5922      Y:     3.3277      Z:     1.2700     Total:     3.6107

*** Psi4 exiting successfully. Buy a developer a beer!
