                               Psi4 1.3.2 release

  ==> Input File <==

--------------------------------------------------------------------------
#psi4
#
memory 32 gb

molecule  {
0 1
  O        1.5353870    -1.6551020    -0.6345320
  N        1.0046660     0.4022290     0.2352610
  C       -0.3753833     0.0755664     0.0822100
  C       -0.9676930    -1.0124890     0.5938810
  C       -1.2114290     1.1495920    -0.4744810
  C        1.4334500     1.7470840     0.6117170
  C        1.9002030    -0.5546920    -0.2186930
  C       -2.3437090    -1.2082300     0.4876030
  C       -2.5901160     0.9502090    -0.5611550
  C       -3.1615570    -0.2292440    -0.0824530
  C        3.3698180    -0.1837380    -0.1580780
  H       -0.3333780    -1.7703900     1.0389010
  H       -0.7697760     2.0586490    -0.8748040
  H        2.3549360     1.7005960     1.1924500
  H        0.6579290     2.1862960     1.2404600
  H        1.5971270     2.4005710    -0.2540720
  H       -2.7807830    -2.1295030     0.8652160
  H       -3.2150400     1.7168070    -1.0131720
  H       -4.2346400    -0.3865090    -0.1557870
  H        3.7069390    -0.0577910     0.8753960
  H        3.5849000     0.7417310    -0.6992960
  H        3.9227600    -1.0051460    -0.6125730
units angstrom
no_reorient  #important for SAPT in psi4, default
symmetry c1  #important for SAPT in psi4, default
}

set PROPERTIES_ORIGIN ["COM"]
properties('MP2/aug-cc-pvtz', properties = ['dipole'])
--------------------------------------------------------------------------

    Molecular point group: c1
  Charge       = 0
  Multiplicity = 1
  Basis Set: AUG-CC-PVTZ
    Blend: AUG-CC-PVTZ
  Basis Set: (AUG-CC-PVTZ AUX)
    Blend: AUG-CC-PVTZ-JKFIT

    Orbital Energies [Eh]
    ---------------------

    Doubly Occupied:

       1A    -20.518566     2A    -15.598488     3A    -11.354698
       4A    -11.279309     5A    -11.278428     6A    -11.242274
       7A    -11.239986     8A    -11.237351     9A    -11.236061
      10A    -11.231738    11A    -11.223028    12A     -1.377038
      13A     -1.258046    14A     -1.141983    15A     -1.032884
      16A     -1.014740    17A     -0.991782    18A     -0.954179
      19A     -0.836884    20A     -0.830087    21A     -0.751382
      22A     -0.697477    23A     -0.679071    24A     -0.662965
      25A     -0.657487    26A     -0.618955    27A     -0.609834
      28A     -0.587654    29A     -0.585071    30A     -0.577573
      31A     -0.563675    32A     -0.558914    33A     -0.522994
      34A     -0.512932    35A     -0.496890    36A     -0.491566
      37A     -0.422366    38A     -0.404913    39A     -0.336366
      40A     -0.314189

  @DF-RHF Final Energy:  -476.69094921998226

   => Energetics <=

    Nuclear Repulsion Energy =            589.2347975101963584
    One-Electron Energy =               -1815.9918472237941387
    Two-Electron Energy =                 750.0661004936155223
    Total Energy =                       -476.6909492199822580
  Basis Set: (AUG-CC-PVTZ AUX)
    Blend: AUG-CC-PVTZ-RI
    Molecular point group: c1

    Geometry (in Angstrom), charge = 0, multiplicity = 1:

       Center              X                  Y                   Z               Mass
    ------------   -----------------  -----------------  -----------------  -----------------
         O            1.563586414148    -1.611273888771    -0.621968379233    15.994914619570
         N            1.032865414148     0.446057111229     0.247824620767    14.003074004430
         C           -0.347183885852     0.119394511229     0.094773620767    12.000000000000
         C           -0.939493585852    -0.968660888771     0.606444620767    12.000000000000
         C           -1.183229585852     1.193420111229    -0.461917379233    12.000000000000
         C            1.461649414148     1.790912111229     0.624280620767    12.000000000000
         C            1.928402414148    -0.510863888771    -0.206129379233    12.000000000000
         C           -2.315509585852    -1.164401888771     0.500166620767    12.000000000000
         C           -2.561916585852     0.994037111229    -0.548591379233    12.000000000000
         C           -3.133357585852    -0.185415888771    -0.069889379233    12.000000000000
         C            3.398017414148    -0.139909888771    -0.145514379233    12.000000000000
         H           -0.305178585852    -1.726561888771     1.051464620767     1.007825032230
         H           -0.741576585852     2.102477111229    -0.862240379233     1.007825032230
         H            2.383135414148     1.744424111229     1.205013620767     1.007825032230
         H            0.686128414148     2.230124111229     1.253023620767     1.007825032230
         H            1.625326414148     2.444399111229    -0.241508379233     1.007825032230
         H           -2.752583585852    -2.085674888771     0.877779620767     1.007825032230
         H           -3.186840585852     1.760635111229    -1.000608379233     1.007825032230
         H           -4.206440585852    -0.342680888771    -0.143223379233     1.007825032230
         H            3.735138414148    -0.013962888771     0.887959620767     1.007825032230
         H            3.613099414148     0.785559111229    -0.686732379233     1.007825032230
         H            3.950959414148    -0.961317888771    -0.600009379233     1.007825032230

  Basis Set: AUG-CC-PVTZ
    Blend: AUG-CC-PVTZ
  Basis Set: (AUG-CC-PVTZ AUX)
    Blend: AUG-CC-PVTZ-JKFIT
	 Reference Energy          =    -476.6909492199822580 [Eh]
	 Singles Energy            =      -0.0000000000000000 [Eh]
	 Same-Spin Energy          =      -0.5117050362423050 [Eh]
	 Opposite-Spin Energy      =      -1.6160737463477517 [Eh]
	 Correlation Energy        =      -2.1277787825900569 [Eh]
	 Total Energy              =    -478.8187280025722998 [Eh]

	 ================> DF-SCS-MP2 Energies <==================
	-----------------------------------------------------------
	 SCS Same-Spin Scale       =       0.3333333333333333 [-]
	 SCS Opposite-Spin Scale   =       1.2000000000000000 [-]
	 SCS Same-Spin Energy      =      -0.1705683454141017 [Eh]
	 SCS Opposite-Spin Energy  =      -1.9392884956173020 [Eh]
	 SCS Correlation Energy    =      -2.1098568410314038 [Eh]
	 SCS Total Energy          =    -478.8008060610136454 [Eh]
	-----------------------------------------------------------

  Dipole Moment: [D]
     X:     0.6924      Y:     3.3564      Z:     1.3126     Total:     3.6699

*** Psi4 exiting successfully. Buy a developer a beer!
