                               Psi4 1.3.2 release

  ==> Input File <==

--------------------------------------------------------------------------
#psi4
#
memory 32 gb

molecule  {
0 1
  O        1.5353870    -1.6551020    -0.6345320
  N        0.9986172     0.4460586     0.2124287
  C       -0.3967540     0.1698250     0.1061120
  C       -0.9676930    -1.0124890     0.5938810
  C       -1.2114290     1.1495920    -0.4744810
  C        1.4334500     1.7470840     0.6117170
  C        1.9002030    -0.5546920    -0.2186930
  C       -2.3437090    -1.2082300     0.4876030
  C       -2.5901160     0.9502090    -0.5611550
  C       -3.1615570    -0.2292440    -0.0824530
  C        3.3698180    -0.1837380    -0.1580780
  H       -0.3333780    -1.7703900     1.0389010
  H       -0.7697760     2.0586490    -0.8748040
  H        2.3549360     1.7005960     1.1924500
  H        0.6579290     2.1862960     1.2404600
  H        1.5971270     2.4005710    -0.2540720
  H       -2.7807830    -2.1295030     0.8652160
  H       -3.2150400     1.7168070    -1.0131720
  H       -4.2346400    -0.3865090    -0.1557870
  H        3.7069390    -0.0577910     0.8753960
  H        3.5849000     0.7417310    -0.6992960
  H        3.9227600    -1.0051460    -0.6125730
units angstrom
no_reorient  #important for SAPT in psi4, default
symmetry c1  #important for SAPT in psi4, default
}

set PROPERTIES_ORIGIN ["COM"]
properties('MP2/aug-cc-pvtz', properties = ['dipole'])
--------------------------------------------------------------------------

    Molecular point group: c1
  Charge       = 0
  Multiplicity = 1
  Basis Set: AUG-CC-PVTZ
    Blend: AUG-CC-PVTZ
  Basis Set: (AUG-CC-PVTZ AUX)
    Blend: AUG-CC-PVTZ-JKFIT

    Orbital Energies [Eh]
    ---------------------

    Doubly Occupied:

       1A    -20.524559     2A    -15.596480     3A    -11.360913
       4A    -11.277988     5A    -11.273319     6A    -11.241895
       7A    -11.237125     8A    -11.235091     9A    -11.234811
      10A    -11.231398    11A    -11.230961    12A     -1.377463
      13A     -1.261536    14A     -1.141860    15A     -1.029896
      16A     -1.015405    17A     -0.996299    18A     -0.948615
      19A     -0.840364    20A     -0.824603    21A     -0.754531
      22A     -0.697414    23A     -0.681164    24A     -0.663295
      25A     -0.657173    26A     -0.618289    27A     -0.612853
      28A     -0.588579    29A     -0.584297    30A     -0.581487
      31A     -0.562747    32A     -0.560405    33A     -0.520765
      34A     -0.510996    35A     -0.497789    36A     -0.495528
      37A     -0.425002    38A     -0.403920    39A     -0.335321
      40A     -0.313888

  @DF-RHF Final Energy:  -476.69792703898872

   => Energetics <=

    Nuclear Repulsion Energy =            588.9281363605226716
    One-Electron Energy =               -1815.3600849821530119
    Two-Electron Energy =                 749.7340215826417307
    Total Energy =                       -476.6979270389887233
  Basis Set: (AUG-CC-PVTZ AUX)
    Blend: AUG-CC-PVTZ-RI
    Molecular point group: c1

    Geometry (in Angstrom), charge = 0, multiplicity = 1:

       Center              X                  Y                   Z               Mass
    ------------   -----------------  -----------------  -----------------  -----------------
         O            1.565874721730    -1.622977703959    -0.621747709192    15.994914619570
         N            1.029104921730     0.478182896041     0.225212990808    14.003074004430
         C           -0.366266278270     0.201949296041     0.118896290808    12.000000000000
         C           -0.937205278270    -0.980364703959     0.606665290808    12.000000000000
         C           -1.180941278270     1.181716296041    -0.461696709192    12.000000000000
         C            1.463937721730     1.779208296041     0.624501290808    12.000000000000
         C            1.930690721730    -0.522567703959    -0.205908709192    12.000000000000
         C           -2.313221278270    -1.176105703959     0.500387290808    12.000000000000
         C           -2.559628278270     0.982333296041    -0.548370709192    12.000000000000
         C           -3.131069278270    -0.197119703959    -0.069668709192    12.000000000000
         C            3.400305721730    -0.151613703959    -0.145293709192    12.000000000000
         H           -0.302890278270    -1.738265703959     1.051685290808     1.007825032230
         H           -0.739288278270     2.090773296041    -0.862019709192     1.007825032230
         H            2.385423721730     1.732720296041     1.205234290808     1.007825032230
         H            0.688416721730     2.218420296041     1.253244290808     1.007825032230
         H            1.627614721730     2.432695296041    -0.241287709192     1.007825032230
         H           -2.750295278270    -2.097378703959     0.878000290808     1.007825032230
         H           -3.184552278270     1.748931296041    -1.000387709192     1.007825032230
         H           -4.204152278270    -0.354384703959    -0.143002709192     1.007825032230
         H            3.737426721730    -0.025666703959     0.888180290808     1.007825032230
         H            3.615387721730     0.773855296041    -0.686511709192     1.007825032230
         H            3.953247721730    -0.973021703959    -0.599788709192     1.007825032230

  Basis Set: AUG-CC-PVTZ
    Blend: AUG-CC-PVTZ
  Basis Set: (AUG-CC-PVTZ AUX)
    Blend: AUG-CC-PVTZ-JKFIT
	 Reference Energy          =    -476.6979270389887233 [Eh]
	 Singles Energy            =      -0.0000000000000000 [Eh]
	 Same-Spin Energy          =      -0.5119687162583108 [Eh]
	 Opposite-Spin Energy      =      -1.6158833673318749 [Eh]
	 Correlation Energy        =      -2.1278520835901857 [Eh]
	 Total Energy              =    -478.8257791225789219 [Eh]

	 ================> DF-SCS-MP2 Energies <==================
	-----------------------------------------------------------
	 SCS Same-Spin Scale       =       0.3333333333333333 [-]
	 SCS Opposite-Spin Scale   =       1.2000000000000000 [-]
	 SCS Same-Spin Energy      =      -0.1706562387527703 [Eh]
	 SCS Opposite-Spin Energy  =      -1.9390600407982497 [Eh]
	 SCS Correlation Energy    =      -2.1097162795510198 [Eh]
	 SCS Total Energy          =    -478.8076433185397605 [Eh]
	-----------------------------------------------------------

  Dipole Moment: [D]
     X:     0.7734      Y:     3.1749      Z:     1.2630     Total:     3.5033

*** Psi4 exiting successfully. Buy a developer a beer!
