                               Psi4 1.3.2 release

  ==> Input File <==

--------------------------------------------------------------------------
#psi4
#
memory 32 gb

molecule  {
0 1
  O        1.5353870    -1.6551020    -0.6345320
  N        1.0046660     0.4022290     0.2352610
  C       -0.3967540     0.1698250     0.1061120
  C       -0.9676930    -1.0124890     0.5938810
  C       -1.2114290     1.1495920    -0.4744810
  C        1.4334500     1.7470840     0.6117170
  C        1.9002030    -0.5546920    -0.2186930
  C       -2.3437090    -1.2082300     0.4876030
  C       -2.5901160     0.9502090    -0.5611550
  C       -3.1615570    -0.2292440    -0.0824530
  C        3.3698180    -0.1837380    -0.1580780
  H       -0.3333780    -1.7703900     1.0389010
  H       -0.7697760     2.0586490    -0.8748040
  H        2.3549360     1.7005960     1.1924500
  H        0.6579290     2.1862960     1.2404600
  H        1.5971270     2.4005710    -0.2540720
  H       -2.7807830    -2.1295030     0.8652160
  H       -3.2150400     1.7168070    -1.0131720
  H       -4.2346400    -0.3865090    -0.1557870
  H        3.7069390    -0.0577910     0.8753960
  H        3.5849000     0.7417310    -0.6992960
  H        3.9227600    -1.0051460    -0.6125730
units angstrom
no_reorient  #important for SAPT in psi4, default
symmetry c1  #important for SAPT in psi4, default
}

set PROPERTIES_ORIGIN ["COM"]
properties('MP2/aug-cc-pvtz', properties = ['dipole'])
--------------------------------------------------------------------------

    Molecular point group: c1
  Charge       = 0
  Multiplicity = 1
  Basis Set: AUG-CC-PVTZ
    Blend: AUG-CC-PVTZ
  Basis Set: (AUG-CC-PVTZ AUX)
    Blend: AUG-CC-PVTZ-JKFIT

    Orbital Energies [Eh]
    ---------------------

    Doubly Occupied:

       1A    -20.519197     2A    -15.598388     3A    -11.356595
       4A    -11.278367     5A    -11.276700     6A    -11.241072
       7A    -11.237988     8A    -11.236403     9A    -11.234931
      10A    -11.231885    11A    -11.230474    12A     -1.376576
      13A     -1.258963    14A     -1.142102    15A     -1.030204
      16A     -1.015849    17A     -0.993554    18A     -0.952876
      19A     -0.841623    20A     -0.826521    21A     -0.754898
      22A     -0.695542    23A     -0.679647    24A     -0.661983
      25A     -0.656954    26A     -0.618511    27A     -0.612712
      28A     -0.588030    29A     -0.584223    30A     -0.576968
      31A     -0.564652    32A     -0.559054    33A     -0.523169
      34A     -0.510829    35A     -0.497016    36A     -0.495717
      37A     -0.423611    38A     -0.405177    39A     -0.335700
      40A     -0.315203

  @DF-RHF Final Energy:  -476.70058671975636

   => Energetics <=

    Nuclear Repulsion Energy =            589.0501245357373818
    One-Electron Energy =               -1815.6216955067263825
    Two-Electron Energy =                 749.8709842512324713
    Total Energy =                       -476.7005867197564157
  Basis Set: (AUG-CC-PVTZ AUX)
    Blend: AUG-CC-PVTZ-RI
    Molecular point group: c1

    Geometry (in Angstrom), charge = 0, multiplicity = 1:

       Center              X                  Y                   Z               Mass
    ------------   -----------------  -----------------  -----------------  -----------------
         O            1.565306573856    -1.618860904913    -0.623892287077    15.994914619570
         N            1.034585573856     0.438470095087     0.245900712923    14.003074004430
         C           -0.366834426144     0.206066095087     0.116751712923    12.000000000000
         C           -0.937773426144    -0.976247904913     0.604520712923    12.000000000000
         C           -1.181509426144     1.185833095087    -0.463841287077    12.000000000000
         C            1.463369573856     1.783325095087     0.622356712923    12.000000000000
         C            1.930122573856    -0.518450904913    -0.208053287077    12.000000000000
         C           -2.313789426144    -1.171988904913     0.498242712923    12.000000000000
         C           -2.560196426144     0.986450095087    -0.550515287077    12.000000000000
         C           -3.131637426144    -0.193002904913    -0.071813287077    12.000000000000
         C            3.399737573856    -0.147496904913    -0.147438287077    12.000000000000
         H           -0.303458426144    -1.734148904913     1.049540712923     1.007825032230
         H           -0.739856426144     2.094890095087    -0.864164287077     1.007825032230
         H            2.384855573856     1.736837095087     1.203089712923     1.007825032230
         H            0.687848573856     2.222537095087     1.251099712923     1.007825032230
         H            1.627046573856     2.436812095087    -0.243432287077     1.007825032230
         H           -2.750863426144    -2.093261904913     0.875855712923     1.007825032230
         H           -3.185120426144     1.753048095087    -1.002532287077     1.007825032230
         H           -4.204720426144    -0.350267904913    -0.145147287077     1.007825032230
         H            3.736858573856    -0.021549904913     0.886035712923     1.007825032230
         H            3.614819573856     0.777972095087    -0.688656287077     1.007825032230
         H            3.952679573856    -0.968904904913    -0.601933287077     1.007825032230

  Basis Set: AUG-CC-PVTZ
    Blend: AUG-CC-PVTZ
  Basis Set: (AUG-CC-PVTZ AUX)
    Blend: AUG-CC-PVTZ-JKFIT
	 Reference Energy          =    -476.7005867197563589 [Eh]
	 Singles Energy            =      -0.0000000000000000 [Eh]
	 Same-Spin Energy          =      -0.5116182817684506 [Eh]
	 Opposite-Spin Energy      =      -1.6154227455563865 [Eh]
	 Correlation Energy        =      -2.1270410273248372 [Eh]
	 Total Energy              =    -478.8276277470811806 [Eh]

	 ================> DF-SCS-MP2 Energies <==================
	-----------------------------------------------------------
	 SCS Same-Spin Scale       =       0.3333333333333333 [-]
	 SCS Opposite-Spin Scale   =       1.2000000000000000 [-]
	 SCS Same-Spin Energy      =      -0.1705394272561502 [Eh]
	 SCS Opposite-Spin Energy  =      -1.9385072946676638 [Eh]
	 SCS Correlation Energy    =      -2.1090467219238138 [Eh]
	 SCS Total Energy          =    -478.8096334416801483 [Eh]
	-----------------------------------------------------------

  Dipole Moment: [D]
     X:     0.7003      Y:     3.3291      Z:     1.2712     Total:     3.6317

*** Psi4 exiting successfully. Buy a developer a beer!
