                               Psi4 1.3.2 release

  ==> Input File <==

--------------------------------------------------------------------------
#psi4
#
memory 32 gb

molecule  {
0 1
  O        1.5353870    -1.6551020    -0.6345320
  N        1.0046660     0.4022290     0.2352610
  C       -0.5932490     0.1372393     0.0880038
  C       -0.9676930    -1.0124890     0.5938810
  C       -1.2114290     1.1495920    -0.4744810
  C        1.4334500     1.7470840     0.6117170
  C        1.9002030    -0.5546920    -0.2186930
  C       -2.3437090    -1.2082300     0.4876030
  C       -2.5901160     0.9502090    -0.5611550
  C       -3.1615570    -0.2292440    -0.0824530
  C        3.3698180    -0.1837380    -0.1580780
  H       -0.3333780    -1.7703900     1.0389010
  H       -0.7697760     2.0586490    -0.8748040
  H        2.3549360     1.7005960     1.1924500
  H        0.6579290     2.1862960     1.2404600
  H        1.5971270     2.4005710    -0.2540720
  H       -2.7807830    -2.1295030     0.8652160
  H       -3.2150400     1.7168070    -1.0131720
  H       -4.2346400    -0.3865090    -0.1557870
  H        3.7069390    -0.0577910     0.8753960
  H        3.5849000     0.7417310    -0.6992960
  H        3.9227600    -1.0051460    -0.6125730
units angstrom
no_reorient  #important for SAPT in psi4, default
symmetry c1  #important for SAPT in psi4, default
}

set PROPERTIES_ORIGIN ["COM"]
properties('MP2/aug-cc-pvtz', properties = ['dipole'])
--------------------------------------------------------------------------

    Molecular point group: c1
  Charge       = 0
  Multiplicity = 1
  Basis Set: AUG-CC-PVTZ
    Blend: AUG-CC-PVTZ
  Basis Set: (AUG-CC-PVTZ AUX)
    Blend: AUG-CC-PVTZ-JKFIT

    Orbital Energies [Eh]
    ---------------------

    Doubly Occupied:

       1A    -20.506138     2A    -15.581158     3A    -11.343709
       4A    -11.278587     5A    -11.266487     6A    -11.245584
       7A    -11.242805     8A    -11.237564     9A    -11.237024
      10A    -11.232309    11A    -11.229977    12A     -1.360960
      13A     -1.225223    14A     -1.167186    15A     -1.038593
      16A     -1.028749    17A     -0.991322    18A     -0.937574
      19A     -0.848115    20A     -0.823946    21A     -0.746495
      22A     -0.698008    23A     -0.667069    24A     -0.652648
      25A     -0.642741    26A     -0.635362    27A     -0.621093
      28A     -0.596495    29A     -0.577050    30A     -0.566525
      31A     -0.553827    32A     -0.549920    33A     -0.528865
      34A     -0.519030    35A     -0.501872    36A     -0.479899
      37A     -0.409432    38A     -0.388432    39A     -0.346672
      40A     -0.336426

  @DF-RHF Final Energy:  -476.66074637016203

   => Energetics <=

    Nuclear Repulsion Energy =            588.9382471846180351
    One-Electron Energy =               -1815.5162421723448460
    Two-Electron Energy =                 749.9172486175648373
    Total Energy =                       -476.6607463701620873
  Basis Set: (AUG-CC-PVTZ AUX)
    Blend: AUG-CC-PVTZ-RI
    Molecular point group: c1

    Geometry (in Angstrom), charge = 0, multiplicity = 1:

       Center              X                  Y                   Z               Mass
    ------------   -----------------  -----------------  -----------------  -----------------
         O            1.581122751233    -1.616238033028    -0.622434730888    15.994914619570
         N            1.050401751233     0.441092966972     0.247358269112    14.003074004430
         C           -0.547513248767     0.176103266972     0.100101069112    12.000000000000
         C           -0.921957248767    -0.973625033028     0.605978269112    12.000000000000
         C           -1.165693248767     1.188455966972    -0.462383730888    12.000000000000
         C            1.479185751233     1.785947966972     0.623814269112    12.000000000000
         C            1.945938751233    -0.515828033028    -0.206595730888    12.000000000000
         C           -2.297973248767    -1.169366033028     0.499700269112    12.000000000000
         C           -2.544380248767     0.989072966972    -0.549057730888    12.000000000000
         C           -3.115821248767    -0.190380033028    -0.070355730888    12.000000000000
         C            3.415553751233    -0.144874033028    -0.145980730888    12.000000000000
         H           -0.287642248767    -1.731526033028     1.050998269112     1.007825032230
         H           -0.724040248767     2.097512966972    -0.862706730888     1.007825032230
         H            2.400671751233     1.739459966972     1.204547269112     1.007825032230
         H            0.703664751233     2.225159966972     1.252557269112     1.007825032230
         H            1.642862751233     2.439434966972    -0.241974730888     1.007825032230
         H           -2.735047248767    -2.090639033028     0.877313269112     1.007825032230
         H           -3.169304248767     1.755670966972    -1.001074730888     1.007825032230
         H           -4.188904248767    -0.347645033028    -0.143689730888     1.007825032230
         H            3.752674751233    -0.018927033028     0.887493269112     1.007825032230
         H            3.630635751233     0.780594966972    -0.687198730888     1.007825032230
         H            3.968495751233    -0.966282033028    -0.600475730888     1.007825032230

  Basis Set: AUG-CC-PVTZ
    Blend: AUG-CC-PVTZ
  Basis Set: (AUG-CC-PVTZ AUX)
    Blend: AUG-CC-PVTZ-JKFIT
	 Reference Energy          =    -476.6607463701620304 [Eh]
	 Singles Energy            =      -0.0000000000000000 [Eh]
	 Same-Spin Energy          =      -0.5119661280685397 [Eh]
	 Opposite-Spin Energy      =      -1.6161899701499531 [Eh]
	 Correlation Energy        =      -2.1281560982184926 [Eh]
	 Total Energy              =    -478.7889024683805133 [Eh]

	 ================> DF-SCS-MP2 Energies <==================
	-----------------------------------------------------------
	 SCS Same-Spin Scale       =       0.3333333333333333 [-]
	 SCS Opposite-Spin Scale   =       1.2000000000000000 [-]
	 SCS Same-Spin Energy      =      -0.1706553760228466 [Eh]
	 SCS Opposite-Spin Energy  =      -1.9394279641799437 [Eh]
	 SCS Correlation Energy    =      -2.1100833402027903 [Eh]
	 SCS Total Energy          =    -478.7708297103648079 [Eh]
	-----------------------------------------------------------

  Dipole Moment: [D]
     X:    -0.3651      Y:     3.3082      Z:     1.2606     Total:     3.5590

*** Psi4 exiting successfully. Buy a developer a beer!
