                               Psi4 1.3.2 release

  ==> Input File <==

--------------------------------------------------------------------------
#psi4
#
memory 32 gb

molecule  {
0 1
  N       -1.0393729    -1.1944413    -0.0000099
  C        0.2308680    -1.4868800    -0.0000290
  C        1.1512880    -0.4934230    -0.0000150
  C        0.6802440     0.8910390    -0.0001390
  N       -0.7159090     1.0273040    -0.0000130
  C       -1.6820960     0.0327770     0.0001490
  C        2.6300190    -0.7237960     0.0000320
  O        1.4079770     1.8828460     0.0000440
  O       -2.8884570     0.2443790    -0.0000340
  H       -1.7971660    -1.9955960    -0.0000480
  H       -1.0703780     1.9806020    -0.0000270
  H        0.5071850    -2.5374850    -0.0000570
  H        3.0900470    -0.2640690    -0.8790850
  H        3.0900220    -0.2639380     0.8790930
  H        2.8593700    -1.7927480     0.0001130
units angstrom
no_reorient  #important for SAPT in psi4, default
symmetry c1  #important for SAPT in psi4, default
}

set PROPERTIES_ORIGIN ["COM"]
properties('MP2/aug-cc-pvtz', properties = ['dipole'])
--------------------------------------------------------------------------

    Molecular point group: c1
  Charge       = 0
  Multiplicity = 1
  Basis Set: AUG-CC-PVTZ
    Blend: AUG-CC-PVTZ
  Basis Set: (AUG-CC-PVTZ AUX)
    Blend: AUG-CC-PVTZ-JKFIT

    Orbital Energies [Eh]
    ---------------------

    Doubly Occupied:

       1A    -20.552694     2A    -20.537320     3A    -15.649771
       4A    -15.626539     5A    -11.423508     6A    -11.376652
       7A    -11.327431     8A    -11.253834     9A    -11.234957
      10A     -1.432329    11A     -1.388637    12A     -1.325079
      13A     -1.241161    14A     -1.103185    15A     -0.978021
      16A     -0.918144    17A     -0.885391    18A     -0.779842
      19A     -0.754648    20A     -0.713546    21A     -0.672504
      22A     -0.665028    23A     -0.643071    24A     -0.606058
      25A     -0.588486    26A     -0.563243    27A     -0.558662
      28A     -0.546661    29A     -0.522816    30A     -0.485122
      31A     -0.445134    32A     -0.434083    33A     -0.345100

  @DF-RHF Final Energy:  -451.65420210070170

   => Energetics <=

    Nuclear Repulsion Energy =            439.9551837481807297
    One-Electron Energy =               -1488.0614560128140056
    Two-Electron Energy =                 596.4520701639316940
    Total Energy =                       -451.6542021007016956
  Basis Set: (AUG-CC-PVTZ AUX)
    Blend: AUG-CC-PVTZ-RI
    Molecular point group: c1

    Geometry (in Angstrom), charge = 0, multiplicity = 1:

       Center              X                  Y                   Z               Mass
    ------------   -----------------  -----------------  -----------------  -----------------
         N           -0.996496448034    -1.237359876770    -0.000008346503    14.003074004430
         C            0.273744451966    -1.529798576770    -0.000027446503    12.000000000000
         C            1.194164451966    -0.536341576770    -0.000013446503    12.000000000000
         C            0.723120451966     0.848120423230    -0.000137446503    12.000000000000
         N           -0.673032548034     0.984385423230    -0.000011446503    14.003074004430
         C           -1.639219548034    -0.010141576770     0.000150553497    12.000000000000
         C            2.672895451966    -0.766714576770     0.000033553497    12.000000000000
         O            1.450853451966     1.839927423230     0.000045553497    15.994914619570
         O           -2.845580548034     0.201460423230    -0.000032446503    15.994914619570
         H           -1.754289548034    -2.038514576770    -0.000046446503     1.007825032230
         H           -1.027501548034     1.937683423230    -0.000025446503     1.007825032230
         H            0.550061451966    -2.580403576770    -0.000055446503     1.007825032230
         H            3.132923451966    -0.306987576770    -0.879083446503     1.007825032230
         H            3.132898451966    -0.306856576770     0.879094553497     1.007825032230
         H            2.902246451966    -1.835666576770     0.000114553497     1.007825032230

  Basis Set: AUG-CC-PVTZ
    Blend: AUG-CC-PVTZ
  Basis Set: (AUG-CC-PVTZ AUX)
    Blend: AUG-CC-PVTZ-JKFIT
	 Reference Energy          =    -451.6542021007016956 [Eh]
	 Singles Energy            =      -0.0000000000000000 [Eh]
	 Same-Spin Energy          =      -0.4612397115206163 [Eh]
	 Opposite-Spin Energy      =      -1.3873311738502987 [Eh]
	 Correlation Energy        =      -1.8485708853709149 [Eh]
	 Total Energy              =    -453.5027729860726140 [Eh]

	 ================> DF-SCS-MP2 Energies <==================
	-----------------------------------------------------------
	 SCS Same-Spin Scale       =       0.3333333333333333 [-]
	 SCS Opposite-Spin Scale   =       1.2000000000000000 [-]
	 SCS Same-Spin Energy      =      -0.1537465705068721 [Eh]
	 SCS Opposite-Spin Energy  =      -1.6647974086203583 [Eh]
	 SCS Correlation Energy    =      -1.8185439791272304 [Eh]
	 SCS Total Energy          =    -453.4727460798289371 [Eh]
	-----------------------------------------------------------

  Dipole Moment: [D]
     X:     0.6394      Y:    -4.3693      Z:    -0.0000     Total:     4.4158

*** Psi4 exiting successfully. Buy a developer a beer!
