                               Psi4 1.4a3.dev225

  ==> Input File <==

--------------------------------------------------------------------------
#psi4
#
memory 32 gb

molecule  {
0 1
  N       -1.1263310    -1.2364150    -0.0000030
  C        0.2309450    -1.4868440     0.0000000
  C        1.1514300    -0.4932890    -0.0000070
  C        0.6802680     0.8910870    -0.0000240
  N       -0.7160800     1.0272360    -0.0000150
  C       -1.6820330     0.0328590    -0.0000240
  C        2.6301110    -0.7238270     0.0000080
  O        1.3957454     1.8670779     0.0000163
  O       -2.8884930     0.2440480     0.0000250
  H       -1.7968290    -1.9958110     0.0000150
  H       -1.0704590     1.9805630     0.0000060
  H        0.5076420    -2.5373850     0.0000160
  H        3.0901790    -0.2641310    -0.8791000
  H        3.0901670    -0.2640930     0.8791020
  H        2.8592340    -1.7928420     0.0000320
units angstrom
no_reorient  #important for SAPT in psi4, default
symmetry c1  #important for SAPT in psi4, default
}

set PROPERTIES_ORIGIN ["COM"]
properties('MP2/aug-cc-pvtz', properties = ['dipole'])
--------------------------------------------------------------------------

    Molecular point group: c1
  Charge       = 0
  Multiplicity = 1
  Basis Set: AUG-CC-PVTZ
    Blend: AUG-CC-PVTZ
  Basis Set: (AUG-CC-PVTZ AUX)
    Blend: AUG-CC-PVTZ-JKFIT

    Orbital Energies [Eh]
    ---------------------

    Doubly Occupied:

       1A    -20.543775     2A    -20.543327     3A    -15.639097
       4A    -15.626132     5A    -11.416878     6A    -11.377667
       7A    -11.330530     8A    -11.261212     9A    -11.239313
      10A     -1.428453    11A     -1.402525    12A     -1.304266
      13A     -1.239377    14A     -1.106995    15A     -0.969392
      16A     -0.913877    17A     -0.891963    18A     -0.769617
      19A     -0.765976    20A     -0.706137    21A     -0.676001
      22A     -0.664908    23A     -0.640203    24A     -0.619084
      25A     -0.592234    26A     -0.568822    27A     -0.561701
      28A     -0.552351    29A     -0.510420    30A     -0.478950
      31A     -0.448665    32A     -0.435678    33A     -0.353579

  @DF-RHF Final Energy:  -451.67448020501530

   => Energetics <=

    Nuclear Repulsion Energy =            438.8942202247066575
    One-Electron Energy =               -1485.9791941527323615
    Two-Electron Energy =                 595.4104937230104042
    Total Energy =                       -451.6744802050152430
  Basis Set: (AUG-CC-PVTZ AUX)
    Blend: AUG-CC-PVTZ-RI
    Molecular point group: c1

    Geometry (in Angstrom), charge = 0, multiplicity = 1:

       Center              X                  Y                   Z               Mass
    ------------   -----------------  -----------------  -----------------  -----------------
         N           -1.072262664476    -1.272641750246    -0.000002334276    14.003074004430
         C            0.285013335524    -1.523070750246     0.000000665724    12.000000000000
         C            1.205498335524    -0.529515750246    -0.000006334276    12.000000000000
         C            0.734336335524     0.854860249754    -0.000023334276    12.000000000000
         N           -0.662011664476     0.991009249754    -0.000014334276    14.003074004430
         C           -1.627964664476    -0.003367750246    -0.000023334276    12.000000000000
         C            2.684179335524    -0.760053750246     0.000008665724    12.000000000000
         O            1.449813735524     1.830851149754     0.000016965724    15.994914619570
         O           -2.834424664476     0.207821249754     0.000025665724    15.994914619570
         H           -1.742760664476    -2.032037750246     0.000015665724     1.007825032230
         H           -1.016390664476     1.944336249754     0.000006665724     1.007825032230
         H            0.561710335524    -2.573611750246     0.000016665724     1.007825032230
         H            3.144247335524    -0.300357750246    -0.879099334276     1.007825032230
         H            3.144235335524    -0.300319750246     0.879102665724     1.007825032230
         H            2.913302335524    -1.829068750246     0.000032665724     1.007825032230

  Basis Set: AUG-CC-PVTZ
    Blend: AUG-CC-PVTZ
  Basis Set: (AUG-CC-PVTZ AUX)
    Blend: AUG-CC-PVTZ-JKFIT
	 Reference Energy          =    -451.6744802050152998 [Eh]
	 Singles Energy            =      -0.0000000000000000 [Eh]
	 Same-Spin Energy          =      -0.4583974053122903 [Eh]
	 Opposite-Spin Energy      =      -1.3834787227821637 [Eh]
	 Correlation Energy        =      -1.8418761280944540 [Eh]
	 Total Energy              =    -453.5163563331097407 [Eh]

	 ================> DF-SCS-MP2 Energies <==================
	-----------------------------------------------------------
	 SCS Same-Spin Scale       =       0.3333333333333333 [-]
	 SCS Opposite-Spin Scale   =       1.2000000000000000 [-]
	 SCS Same-Spin Energy      =      -0.1527991351040968 [Eh]
	 SCS Opposite-Spin Energy  =      -1.6601744673385963 [Eh]
	 SCS Correlation Energy    =      -1.8129736024426930 [Eh]
	 SCS Total Energy          =    -453.4874538074579959 [Eh]
	-----------------------------------------------------------

  Dipole Moment: [D]
     X:     1.1227      Y:    -4.0886      Z:    -0.0001     Total:     4.2399

*** Psi4 exiting successfully. Buy a developer a beer!
