                               Psi4 1.3.2 release

  ==> Input File <==

--------------------------------------------------------------------------
#psi4
#
memory 32 gb

molecule  {
0 1
  N       -1.1265450    -1.2362860     0.0000060
  C        0.2262878    -1.5105320    -0.0000316
  C        1.1512880    -0.4934230    -0.0000150
  C        0.6802440     0.8910390    -0.0001390
  N       -0.7159090     1.0273040    -0.0000130
  C       -1.6820960     0.0327770     0.0001490
  C        2.6300190    -0.7237960     0.0000320
  O        1.4079770     1.8828460     0.0000440
  O       -2.8884570     0.2443790    -0.0000340
  H       -1.7971660    -1.9955960    -0.0000480
  H       -1.0703780     1.9806020    -0.0000270
  H        0.5071850    -2.5374850    -0.0000570
  H        3.0900470    -0.2640690    -0.8790850
  H        3.0900220    -0.2639380     0.8790930
  H        2.8593700    -1.7927480     0.0001130
units angstrom
no_reorient  #important for SAPT in psi4, default
symmetry c1  #important for SAPT in psi4, default
}

set PROPERTIES_ORIGIN ["COM"]
properties('MP2/aug-cc-pvtz', properties = ['dipole'])
--------------------------------------------------------------------------

    Molecular point group: c1
  Charge       = 0
  Multiplicity = 1
  Basis Set: AUG-CC-PVTZ
    Blend: AUG-CC-PVTZ
  Basis Set: (AUG-CC-PVTZ AUX)
    Blend: AUG-CC-PVTZ-JKFIT

    Orbital Energies [Eh]
    ---------------------

    Doubly Occupied:

       1A    -20.544940     2A    -20.542786     3A    -15.641411
       4A    -15.628678     5A    -11.419047     6A    -11.380993
       7A    -11.333935     8A    -11.265010     9A    -11.238977
      10A     -1.427503    11A     -1.391880    12A     -1.304849
      13A     -1.240521    14A     -1.104390    15A     -0.970552
      16A     -0.916947    17A     -0.892698    18A     -0.768482
      19A     -0.765512    20A     -0.712663    21A     -0.673980
      22A     -0.664729    23A     -0.641269    24A     -0.617880
      25A     -0.590989    26A     -0.567151    27A     -0.557887
      28A     -0.550904    29A     -0.510787    30A     -0.480544
      31A     -0.448368    32A     -0.434764    33A     -0.350933

  @DF-RHF Final Energy:  -451.67051578275749

   => Energetics <=

    Nuclear Repulsion Energy =            437.7634729847195558
    One-Electron Energy =               -1483.7040591505358407
    Two-Electron Energy =                 594.2700703830587372
    Total Energy =                       -451.6705157827575476
  Basis Set: (AUG-CC-PVTZ AUX)
    Blend: AUG-CC-PVTZ-RI
    Molecular point group: c1

    Geometry (in Angstrom), charge = 0, multiplicity = 1:

       Center              X                  Y                   Z               Mass
    ------------   -----------------  -----------------  -----------------  -----------------
         N           -1.073547870950    -1.272303924362     0.000006034579    14.003074004430
         C            0.279284929050    -1.546549924362    -0.000031565421    12.000000000000
         C            1.204285129050    -0.529440924362    -0.000014965421    12.000000000000
         C            0.733241129050     0.855021075638    -0.000138965421    12.000000000000
         N           -0.662911870950     0.991286075638    -0.000012965421    14.003074004430
         C           -1.629098870950    -0.003240924362     0.000149034579    12.000000000000
         C            2.683016129050    -0.759813924362     0.000032034579    12.000000000000
         O            1.460974129050     1.846828075638     0.000044034579    15.994914619570
         O           -2.835459870950     0.208361075638    -0.000033965421    15.994914619570
         H           -1.744168870950    -2.031613924362    -0.000047965421     1.007825032230
         H           -1.017380870950     1.944584075638    -0.000026965421     1.007825032230
         H            0.560182129050    -2.573502924362    -0.000056965421     1.007825032230
         H            3.143044129050    -0.300086924362    -0.879084965421     1.007825032230
         H            3.143019129050    -0.299955924362     0.879093034579     1.007825032230
         H            2.912367129050    -1.828765924362     0.000113034579     1.007825032230

  Basis Set: AUG-CC-PVTZ
    Blend: AUG-CC-PVTZ
  Basis Set: (AUG-CC-PVTZ AUX)
    Blend: AUG-CC-PVTZ-JKFIT
	 Reference Energy          =    -451.6705157827574908 [Eh]
	 Singles Energy            =      -0.0000000000000000 [Eh]
	 Same-Spin Energy          =      -0.4592489267315555 [Eh]
	 Opposite-Spin Energy      =      -1.3853578398805104 [Eh]
	 Correlation Energy        =      -1.8446067666120660 [Eh]
	 Total Energy              =    -453.5151225493695506 [Eh]

	 ================> DF-SCS-MP2 Energies <==================
	-----------------------------------------------------------
	 SCS Same-Spin Scale       =       0.3333333333333333 [-]
	 SCS Opposite-Spin Scale   =       1.2000000000000000 [-]
	 SCS Same-Spin Energy      =      -0.1530829755771851 [Eh]
	 SCS Opposite-Spin Energy  =      -1.6624294078566124 [Eh]
	 SCS Correlation Energy    =      -1.8155123834337976 [Eh]
	 SCS Total Energy          =    -453.4860281661912609 [Eh]
	-----------------------------------------------------------

  Dipole Moment: [D]
     X:     1.0207      Y:    -4.2154      Z:    -0.0001     Total:     4.3372

*** Psi4 exiting successfully. Buy a developer a beer!
