                               Psi4 1.4a3.dev225

  ==> Input File <==

--------------------------------------------------------------------------
#psi4
#
memory 32 gb

molecule  {
0 1
  N       -1.1263310    -1.2364150    -0.0000030
  C        0.2309450    -1.4868440     0.0000000
  C        1.1514300    -0.4932890    -0.0000070
  C        0.6802680     0.8910870    -0.0000240
  N       -0.7160800     1.0272360    -0.0000150
  C       -1.6820330     0.0328590    -0.0000240
  C        2.6301110    -0.7238270     0.0000080
  O        1.4075700     1.8832080     0.0000170
  O       -2.8884930     0.2440480     0.0000250
  H       -1.7968290    -1.9958110     0.0000150
  H       -1.0704590     1.9805630     0.0000060
  H        0.4949071    -2.4890340     0.0000153
  H        3.0901790    -0.2641310    -0.8791000
  H        3.0901670    -0.2640930     0.8791020
  H        2.8592340    -1.7928420     0.0000320
units angstrom
no_reorient  #important for SAPT in psi4, default
symmetry c1  #important for SAPT in psi4, default
}

set PROPERTIES_ORIGIN ["COM"]
properties('MP2/aug-cc-pvtz', properties = ['dipole'])
--------------------------------------------------------------------------

    Molecular point group: c1
  Charge       = 0
  Multiplicity = 1
  Basis Set: AUG-CC-PVTZ
    Blend: AUG-CC-PVTZ
  Basis Set: (AUG-CC-PVTZ AUX)
    Blend: AUG-CC-PVTZ-JKFIT

    Orbital Energies [Eh]
    ---------------------

    Doubly Occupied:

       1A    -20.544392     2A    -20.543170     3A    -15.640260
       4A    -15.628526     5A    -11.418069     6A    -11.380926
       7A    -11.326586     8A    -11.262734     9A    -11.239661
      10A     -1.427260    11A     -1.392032    12A     -1.305080
      13A     -1.240273    14A     -1.108781    15A     -0.972060
      16A     -0.918395    17A     -0.893345    18A     -0.770822
      19A     -0.765796    20A     -0.715022    21A     -0.675197
      22A     -0.664980    23A     -0.641315    24A     -0.619157
      25A     -0.591543    26A     -0.568723    27A     -0.558025
      28A     -0.551929    29A     -0.511141    30A     -0.479673
      31A     -0.448480    32A     -0.434731    33A     -0.354376

  @DF-RHF Final Energy:  -451.67173992207648

   => Energetics <=

    Nuclear Repulsion Energy =            438.4648212863697836
    One-Electron Energy =               -1485.0882093552399965
    Two-Electron Energy =                 594.9516481467935591
    Total Energy =                       -451.6717399220765401
  Basis Set: (AUG-CC-PVTZ AUX)
    Blend: AUG-CC-PVTZ-RI
    Molecular point group: c1

    Geometry (in Angstrom), charge = 0, multiplicity = 1:

       Center              X                  Y                   Z               Mass
    ------------   -----------------  -----------------  -----------------  -----------------
         N           -1.073661385690    -1.275075277670    -0.000002417509    14.003074004430
         C            0.283614614310    -1.525504277670     0.000000582491    12.000000000000
         C            1.204099614310    -0.531949277670    -0.000006417509    12.000000000000
         C            0.732937614310     0.852426722330    -0.000023417509    12.000000000000
         N           -0.663410385690     0.988575722330    -0.000014417509    14.003074004430
         C           -1.629363385690    -0.005801277670    -0.000023417509    12.000000000000
         C            2.682780614310    -0.762487277670     0.000008582491    12.000000000000
         O            1.460239614310     1.844547722330     0.000017582491    15.994914619570
         O           -2.835823385690     0.205387722330     0.000025582491    15.994914619570
         H           -1.744159385690    -2.034471277670     0.000015582491     1.007825032230
         H           -1.017789385690     1.941902722330     0.000006582491     1.007825032230
         H            0.547576714310    -2.527694277670     0.000015882491     1.007825032230
         H            3.142848614310    -0.302791277670    -0.879099417509     1.007825032230
         H            3.142836614310    -0.302753277670     0.879102582491     1.007825032230
         H            2.911903614310    -1.831502277670     0.000032582491     1.007825032230

  Basis Set: AUG-CC-PVTZ
    Blend: AUG-CC-PVTZ
  Basis Set: (AUG-CC-PVTZ AUX)
    Blend: AUG-CC-PVTZ-JKFIT
	 Reference Energy          =    -451.6717399220764833 [Eh]
	 Singles Energy            =      -0.0000000000000000 [Eh]
	 Same-Spin Energy          =      -0.4588351520557954 [Eh]
	 Opposite-Spin Energy      =      -1.3844286731104816 [Eh]
	 Correlation Energy        =      -1.8432638251662770 [Eh]
	 Total Energy              =    -453.5150037472427584 [Eh]

	 ================> DF-SCS-MP2 Energies <==================
	-----------------------------------------------------------
	 SCS Same-Spin Scale       =       0.3333333333333333 [-]
	 SCS Opposite-Spin Scale   =       1.2000000000000000 [-]
	 SCS Same-Spin Energy      =      -0.1529450506852651 [Eh]
	 SCS Opposite-Spin Energy  =      -1.6613144077325779 [Eh]
	 SCS Correlation Energy    =      -1.8142594584178431 [Eh]
	 SCS Total Energy          =    -453.4859993804943201 [Eh]
	-----------------------------------------------------------

  Dipole Moment: [D]
     X:     1.0435      Y:    -4.1885      Z:    -0.0001     Total:     4.3166

*** Psi4 exiting successfully. Buy a developer a beer!
