                               Psi4 1.3.2 release

  ==> Input File <==

--------------------------------------------------------------------------
#psi4
#
memory 32 gb

molecule  {
0 1
  N       -1.1265450    -1.2362860     0.0000060
  C        0.2308680    -1.4868800    -0.0000290
  C        1.2934233    -0.4366013    -0.0000366
  C        0.6802440     0.8910390    -0.0001390
  N       -0.7159090     1.0273040    -0.0000130
  C       -1.6820960     0.0327770     0.0001490
  C        2.6300190    -0.7237960     0.0000320
  O        1.4079770     1.8828460     0.0000440
  O       -2.8884570     0.2443790    -0.0000340
  H       -1.7971660    -1.9955960    -0.0000480
  H       -1.0703780     1.9806020    -0.0000270
  H        0.5071850    -2.5374850    -0.0000570
  H        3.0900470    -0.2640690    -0.8790850
  H        3.0900220    -0.2639380     0.8790930
  H        2.8593700    -1.7927480     0.0001130
units angstrom
no_reorient  #important for SAPT in psi4, default
symmetry c1  #important for SAPT in psi4, default
}

set PROPERTIES_ORIGIN ["COM"]
properties('MP2/aug-cc-pvtz', properties = ['dipole'])
--------------------------------------------------------------------------

    Molecular point group: c1
  Charge       = 0
  Multiplicity = 1
  Basis Set: AUG-CC-PVTZ
    Blend: AUG-CC-PVTZ
  Basis Set: (AUG-CC-PVTZ AUX)
    Blend: AUG-CC-PVTZ-JKFIT

    Orbital Energies [Eh]
    ---------------------

    Doubly Occupied:

       1A    -20.547104     2A    -20.532867     3A    -15.649263
       4A    -15.631401     5A    -11.420398     6A    -11.376082
       7A    -11.348500     8A    -11.272964     9A    -11.232523
      10A     -1.428680    11A     -1.388391    12A     -1.304566
      13A     -1.240937    14A     -1.112454    15A     -0.977754
      16A     -0.914412    17A     -0.887716    18A     -0.775442
      19A     -0.757028    20A     -0.706006    21A     -0.672323
      22A     -0.665155    23A     -0.638734    24A     -0.613323
      25A     -0.607868    26A     -0.603517    27A     -0.557246
      28A     -0.537378    29A     -0.507479    30A     -0.479124
      31A     -0.440732    32A     -0.434358    33A     -0.328106

  @DF-RHF Final Energy:  -451.63279968279681

   => Energetics <=

    Nuclear Repulsion Energy =            437.1978302118724855
    One-Electron Energy =               -1482.4815948653592841
    Two-Electron Energy =                 593.6509649706899836
    Total Energy =                       -451.6327996827967581
  Basis Set: (AUG-CC-PVTZ AUX)
    Blend: AUG-CC-PVTZ-RI
    Molecular point group: c1

    Geometry (in Angstrom), charge = 0, multiplicity = 1:

       Center              X                  Y                   Z               Mass
    ------------   -----------------  -----------------  -----------------  -----------------
         N           -1.087516016849    -1.279965476022     0.000007843487    14.003074004430
         C            0.269896983151    -1.530559476022    -0.000027156513    12.000000000000
         C            1.332452283151    -0.480280776022    -0.000034756513    12.000000000000
         C            0.719272983151     0.847359523978    -0.000137156513    12.000000000000
         N           -0.676880016849     0.983624523978    -0.000011156513    14.003074004430
         C           -1.643067016849    -0.010902476022     0.000150843487    12.000000000000
         C            2.669047983151    -0.767475476022     0.000033843487    12.000000000000
         O            1.447005983151     1.839166523978     0.000045843487    15.994914619570
         O           -2.849428016849     0.200699523978    -0.000032156513    15.994914619570
         H           -1.758137016849    -2.039275476022    -0.000046156513     1.007825032230
         H           -1.031349016849     1.936922523978    -0.000025156513     1.007825032230
         H            0.546213983151    -2.581164476022    -0.000055156513     1.007825032230
         H            3.129075983151    -0.307748476022    -0.879083156513     1.007825032230
         H            3.129050983151    -0.307617476022     0.879094843487     1.007825032230
         H            2.898398983151    -1.836427476022     0.000114843487     1.007825032230

  Basis Set: AUG-CC-PVTZ
    Blend: AUG-CC-PVTZ
  Basis Set: (AUG-CC-PVTZ AUX)
    Blend: AUG-CC-PVTZ-JKFIT
	 Reference Energy          =    -451.6327996827968150 [Eh]
	 Singles Energy            =      -0.0000000000000000 [Eh]
	 Same-Spin Energy          =      -0.4624507183165153 [Eh]
	 Opposite-Spin Energy      =      -1.3901296204581068 [Eh]
	 Correlation Energy        =      -1.8525803387746222 [Eh]
	 Total Energy              =    -453.4853800215714159 [Eh]

	 ================> DF-SCS-MP2 Energies <==================
	-----------------------------------------------------------
	 SCS Same-Spin Scale       =       0.3333333333333333 [-]
	 SCS Opposite-Spin Scale   =       1.2000000000000000 [-]
	 SCS Same-Spin Energy      =      -0.1541502394388384 [Eh]
	 SCS Opposite-Spin Energy  =      -1.6681555445497283 [Eh]
	 SCS Correlation Energy    =      -1.8223057839885666 [Eh]
	 SCS Total Energy          =    -453.4551054667853691 [Eh]
	-----------------------------------------------------------

  Dipole Moment: [D]
     X:     1.1067      Y:    -4.2825      Z:    -0.0000     Total:     4.4232

*** Psi4 exiting successfully. Buy a developer a beer!
