                               Psi4 1.4a3.dev225

  ==> Input File <==

--------------------------------------------------------------------------
#psi4
#
memory 32 gb

molecule  {
0 1
  N       -1.1263310    -1.2364150    -0.0000030
  C        0.2309450    -1.4868440     0.0000000
  C        1.1514300    -0.4932890    -0.0000070
  C        0.6802680     0.8910870    -0.0000240
  N       -0.7160800     1.0272360    -0.0000150
  C       -1.6820330     0.0328590    -0.0000240
  C        2.6301110    -0.7238270     0.0000080
  O        1.4193946     1.8993381     0.0000177
  O       -2.8884930     0.2440480     0.0000250
  H       -1.7968290    -1.9958110     0.0000150
  H       -1.0704590     1.9805630     0.0000060
  H        0.5076420    -2.5373850     0.0000160
  H        3.0901790    -0.2641310    -0.8791000
  H        3.0901670    -0.2640930     0.8791020
  H        2.8592340    -1.7928420     0.0000320
units angstrom
no_reorient  #important for SAPT in psi4, default
symmetry c1  #important for SAPT in psi4, default
}

set PROPERTIES_ORIGIN ["COM"]
properties('MP2/aug-cc-pvtz', properties = ['dipole'])
--------------------------------------------------------------------------

    Molecular point group: c1
  Charge       = 0
  Multiplicity = 1
  Basis Set: AUG-CC-PVTZ
    Blend: AUG-CC-PVTZ
  Basis Set: (AUG-CC-PVTZ AUX)
    Blend: AUG-CC-PVTZ-JKFIT

    Orbital Energies [Eh]
    ---------------------

    Doubly Occupied:

       1A    -20.545808     2A    -20.542667     3A    -15.642135
       4A    -15.631067     5A    -11.419690     6A    -11.384525
       7A    -11.333654     8A    -11.264453     9A    -11.239783
      10A     -1.427609    11A     -1.381267    12A     -1.305575
      13A     -1.240907    14A     -1.109154    15A     -0.970829
      16A     -0.917006    17A     -0.894964    18A     -0.772052
      19A     -0.765068    20A     -0.708712    21A     -0.673339
      22A     -0.665548    23A     -0.640202    24A     -0.613370
      25A     -0.591068    26A     -0.568506    27A     -0.554642
      28A     -0.551395    29A     -0.512045    30A     -0.479958
      31A     -0.448091    32A     -0.433841    33A     -0.355331

  @DF-RHF Final Energy:  -451.66941816571239

   => Energetics <=

    Nuclear Repulsion Energy =            437.4963136957283609
    One-Electron Energy =               -1483.1629471180856399
    Two-Electron Energy =                 593.9972152566449495
    Total Energy =                       -451.6694181657123863
  Basis Set: (AUG-CC-PVTZ AUX)
    Blend: AUG-CC-PVTZ-RI
    Molecular point group: c1

    Geometry (in Angstrom), charge = 0, multiplicity = 1:

       Center              X                  Y                   Z               Mass
    ------------   -----------------  -----------------  -----------------  -----------------
         N           -1.075263760551    -1.276735586807    -0.000002511937    14.003074004430
         C            0.282012239449    -1.527164586807     0.000000488063    12.000000000000
         C            1.202497239449    -0.533609586807    -0.000006511937    12.000000000000
         C            0.731335239449     0.850766413193    -0.000023511937    12.000000000000
         N           -0.665012760551     0.986915413193    -0.000014511937    14.003074004430
         C           -1.630965760551    -0.007461586807    -0.000023511937    12.000000000000
         C            2.681178239449    -0.764147586807     0.000008488063    12.000000000000
         O            1.470461839449     1.859017513193     0.000018188063    15.994914619570
         O           -2.837425760551     0.203727413193     0.000025488063    15.994914619570
         H           -1.745761760551    -2.036131586807     0.000015488063     1.007825032230
         H           -1.019391760551     1.940242413193     0.000006488063     1.007825032230
         H            0.558709239449    -2.577705586807     0.000016488063     1.007825032230
         H            3.141246239449    -0.304451586807    -0.879099511937     1.007825032230
         H            3.141234239449    -0.304413586807     0.879102488063     1.007825032230
         H            2.910301239449    -1.833162586807     0.000032488063     1.007825032230

  Basis Set: AUG-CC-PVTZ
    Blend: AUG-CC-PVTZ
  Basis Set: (AUG-CC-PVTZ AUX)
    Blend: AUG-CC-PVTZ-JKFIT
	 Reference Energy          =    -451.6694181657123863 [Eh]
	 Singles Energy            =      -0.0000000000000000 [Eh]
	 Same-Spin Energy          =      -0.4595398282783391 [Eh]
	 Opposite-Spin Energy      =      -1.3860480620441136 [Eh]
	 Correlation Energy        =      -1.8455878903224527 [Eh]
	 Total Energy              =    -453.5150060560348493 [Eh]

	 ================> DF-SCS-MP2 Energies <==================
	-----------------------------------------------------------
	 SCS Same-Spin Scale       =       0.3333333333333333 [-]
	 SCS Opposite-Spin Scale   =       1.2000000000000000 [-]
	 SCS Same-Spin Energy      =      -0.1531799427594464 [Eh]
	 SCS Opposite-Spin Energy  =      -1.6632576744529362 [Eh]
	 SCS Correlation Energy    =      -1.8164376172123826 [Eh]
	 SCS Total Energy          =    -453.4858557829247729 [Eh]
	-----------------------------------------------------------

  Dipole Moment: [D]
     X:     0.9553      Y:    -4.2827      Z:    -0.0001     Total:     4.3880

*** Psi4 exiting successfully. Buy a developer a beer!
