                               Psi4 1.3.2 release

  ==> Input File <==

--------------------------------------------------------------------------
#psi4
#
memory 32 gb

molecule  {
0 1
  N       -1.1265450    -1.2362860     0.0000060
  C        0.2308680    -1.4868800    -0.0000290
  C        1.1512880    -0.4934230    -0.0000150
  C        0.6802440     0.8910390    -0.0001390
  N       -0.7159090     1.0273040    -0.0000130
  C       -1.6820960     0.0327770     0.0001490
  C        2.8276352    -0.7545828     0.0000383
  O        1.4079770     1.8828460     0.0000440
  O       -2.8884570     0.2443790    -0.0000340
  H       -1.7971660    -1.9955960    -0.0000480
  H       -1.0703780     1.9806020    -0.0000270
  H        0.5071850    -2.5374850    -0.0000570
  H        3.0900470    -0.2640690    -0.8790850
  H        3.0900220    -0.2639380     0.8790930
  H        2.8593700    -1.7927480     0.0001130
units angstrom
no_reorient  #important for SAPT in psi4, default
symmetry c1  #important for SAPT in psi4, default
}

set PROPERTIES_ORIGIN ["COM"]
properties('MP2/aug-cc-pvtz', properties = ['dipole'])
--------------------------------------------------------------------------

    Molecular point group: c1
  Charge       = 0
  Multiplicity = 1
  Basis Set: AUG-CC-PVTZ
    Blend: AUG-CC-PVTZ
  Basis Set: (AUG-CC-PVTZ AUX)
    Blend: AUG-CC-PVTZ-JKFIT

    Orbital Energies [Eh]
    ---------------------

    Doubly Occupied:

       1A    -20.543354     2A    -20.540934     3A    -15.638907
       4A    -15.627192     5A    -11.416963     6A    -11.379795
       7A    -11.330430     8A    -11.265673     9A    -11.243539
      10A     -1.425946    11A     -1.390006    12A     -1.303223
      13A     -1.238568    14A     -1.089402    15A     -0.971155
      16A     -0.916216    17A     -0.893057    18A     -0.768077
      19A     -0.760462    20A     -0.705594    21A     -0.672477
      22A     -0.663105    23A     -0.637205    24A     -0.620789
      25A     -0.611147    26A     -0.586057    27A     -0.561742
      28A     -0.514242    29A     -0.505214    30A     -0.475261
      31A     -0.444949    32A     -0.433696    33A     -0.356343

  @DF-RHF Final Energy:  -451.64570485479948

   => Energetics <=

    Nuclear Repulsion Energy =            434.7950115184727906
    One-Electron Energy =               -1477.8199931791675681
    Two-Electron Energy =                 591.3792768058953015
    Total Energy =                       -451.6457048547994191
  Basis Set: (AUG-CC-PVTZ AUX)
    Blend: AUG-CC-PVTZ-RI
    Molecular point group: c1

    Geometry (in Angstrom), charge = 0, multiplicity = 1:

       Center              X                  Y                   Z               Mass
    ------------   -----------------  -----------------  -----------------  -----------------
         N           -1.092798112508    -1.271624651024     0.000005187249    14.003074004430
         C            0.264614887492    -1.522218651024    -0.000029812751    12.000000000000
         C            1.185034887492    -0.528761651024    -0.000015812751    12.000000000000
         C            0.713990887492     0.855700348976    -0.000139812751    12.000000000000
         N           -0.682162112508     0.991965348976    -0.000013812751    14.003074004430
         C           -1.648349112508    -0.002561651024     0.000148187249    12.000000000000
         C            2.861382087492    -0.789921451024     0.000037487249    12.000000000000
         O            1.441723887492     1.847507348976     0.000043187249    15.994914619570
         O           -2.854710112508     0.209040348976    -0.000034812751    15.994914619570
         H           -1.763419112508    -2.030934651024    -0.000048812751     1.007825032230
         H           -1.036631112508     1.945263348976    -0.000027812751     1.007825032230
         H            0.540931887492    -2.572823651024    -0.000057812751     1.007825032230
         H            3.123793887492    -0.299407651024    -0.879085812751     1.007825032230
         H            3.123768887492    -0.299276651024     0.879092187249     1.007825032230
         H            2.893116887492    -1.828086651024     0.000112187249     1.007825032230

  Basis Set: AUG-CC-PVTZ
    Blend: AUG-CC-PVTZ
  Basis Set: (AUG-CC-PVTZ AUX)
    Blend: AUG-CC-PVTZ-JKFIT
	 Reference Energy          =    -451.6457048547994759 [Eh]
	 Singles Energy            =      -0.0000000000000000 [Eh]
	 Same-Spin Energy          =      -0.4584342792634565 [Eh]
	 Opposite-Spin Energy      =      -1.3853361748858499 [Eh]
	 Correlation Energy        =      -1.8437704541493063 [Eh]
	 Total Energy              =    -453.4894753089487835 [Eh]

	 ================> DF-SCS-MP2 Energies <==================
	-----------------------------------------------------------
	 SCS Same-Spin Scale       =       0.3333333333333333 [-]
	 SCS Opposite-Spin Scale   =       1.2000000000000000 [-]
	 SCS Same-Spin Energy      =      -0.1528114264211521 [Eh]
	 SCS Opposite-Spin Energy  =      -1.6624034098630198 [Eh]
	 SCS Correlation Energy    =      -1.8152148362841720 [Eh]
	 SCS Total Energy          =    -453.4609196910836317 [Eh]
	-----------------------------------------------------------

  Dipole Moment: [D]
     X:     1.0895      Y:    -4.2231      Z:    -0.0001     Total:     4.3613

*** Psi4 exiting successfully. Buy a developer a beer!
