                               Psi4 1.3.2 release

  ==> Input File <==

--------------------------------------------------------------------------
#psi4
#
memory 32 gb

molecule  {
0 1
  N       -1.1265450    -1.2362860     0.0000060
  C        0.2660998    -1.5183970    -0.0000242
  C        1.1512880    -0.4934230    -0.0000150
  C        0.6802440     0.8910390    -0.0001390
  N       -0.7159090     1.0273040    -0.0000130
  C       -1.6820960     0.0327770     0.0001490
  C        2.6300190    -0.7237960     0.0000320
  O        1.4079770     1.8828460     0.0000440
  O       -2.8884570     0.2443790    -0.0000340
  H       -1.7971660    -1.9955960    -0.0000480
  H       -1.0703780     1.9806020    -0.0000270
  H        0.5071850    -2.5374850    -0.0000570
  H        3.0900470    -0.2640690    -0.8790850
  H        3.0900220    -0.2639380     0.8790930
  H        2.8593700    -1.7927480     0.0001130
units angstrom
no_reorient  #important for SAPT in psi4, default
symmetry c1  #important for SAPT in psi4, default
}

set PROPERTIES_ORIGIN ["COM"]
properties('MP2/aug-cc-pvtz', properties = ['dipole'])
--------------------------------------------------------------------------

    Molecular point group: c1
  Charge       = 0
  Multiplicity = 1
  Basis Set: AUG-CC-PVTZ
    Blend: AUG-CC-PVTZ
  Basis Set: (AUG-CC-PVTZ AUX)
    Blend: AUG-CC-PVTZ-JKFIT

    Orbital Energies [Eh]
    ---------------------

    Doubly Occupied:

       1A    -20.546349     2A    -20.542430     3A    -15.636428
       4A    -15.628268     5A    -11.416560     6A    -11.384270
       7A    -11.331903     8A    -11.266910     9A    -11.240148
      10A     -1.424814    11A     -1.393726    12A     -1.295703
      13A     -1.235939    14A     -1.110231    15A     -0.969654
      16A     -0.917725    17A     -0.890574    18A     -0.765741
      19A     -0.760852    20A     -0.713960    21A     -0.674363
      22A     -0.661662    23A     -0.640709    24A     -0.623107
      25A     -0.592249    26A     -0.565927    27A     -0.557545
      28A     -0.552923    29A     -0.505040    30A     -0.479303
      31A     -0.450493    32A     -0.434854    33A     -0.357487

  @DF-RHF Final Energy:  -451.66910734185376

   => Energetics <=

    Nuclear Repulsion Energy =            437.4326541382031337
    One-Electron Energy =               -1483.0678258454022398
    Two-Electron Energy =                 593.9660643653453462
    Total Energy =                       -451.6691073418537599
  Basis Set: (AUG-CC-PVTZ AUX)
    Blend: AUG-CC-PVTZ-RI
    Molecular point group: c1

    Geometry (in Angstrom), charge = 0, multiplicity = 1:

       Center              X                  Y                   Z               Mass
    ------------   -----------------  -----------------  -----------------  -----------------
         N           -1.077338198656    -1.271555131852     0.000005330057    14.003074004430
         C            0.315306601344    -1.553666131852    -0.000024869943    12.000000000000
         C            1.200494801344    -0.528692131852    -0.000015669943    12.000000000000
         C            0.729450801344     0.855769868148    -0.000139669943    12.000000000000
         N           -0.666702198656     0.992034868148    -0.000013669943    14.003074004430
         C           -1.632889198656    -0.002492131852     0.000148330057    12.000000000000
         C            2.679225801344    -0.759065131852     0.000031330057    12.000000000000
         O            1.457183801344     1.847576868148     0.000043330057    15.994914619570
         O           -2.839250198656     0.209109868148    -0.000034669943    15.994914619570
         H           -1.747959198656    -2.030865131852    -0.000048669943     1.007825032230
         H           -1.021171198656     1.945332868148    -0.000027669943     1.007825032230
         H            0.556391801344    -2.572754131852    -0.000057669943     1.007825032230
         H            3.139253801344    -0.299338131852    -0.879085669943     1.007825032230
         H            3.139228801344    -0.299207131852     0.879092330057     1.007825032230
         H            2.908576801344    -1.828017131852     0.000112330057     1.007825032230

  Basis Set: AUG-CC-PVTZ
    Blend: AUG-CC-PVTZ
  Basis Set: (AUG-CC-PVTZ AUX)
    Blend: AUG-CC-PVTZ-JKFIT
	 Reference Energy          =    -451.6691073418537599 [Eh]
	 Singles Energy            =      -0.0000000000000000 [Eh]
	 Same-Spin Energy          =      -0.4587431090107144 [Eh]
	 Opposite-Spin Energy      =      -1.3852161497050752 [Eh]
	 Correlation Energy        =      -1.8439592587157896 [Eh]
	 Total Energy              =    -453.5130666005695730 [Eh]

	 ================> DF-SCS-MP2 Energies <==================
	-----------------------------------------------------------
	 SCS Same-Spin Scale       =       0.3333333333333333 [-]
	 SCS Opposite-Spin Scale   =       1.2000000000000000 [-]
	 SCS Same-Spin Energy      =      -0.1529143696702381 [Eh]
	 SCS Opposite-Spin Energy  =      -1.6622593796460903 [Eh]
	 SCS Correlation Energy    =      -1.8151737493163285 [Eh]
	 SCS Total Energy          =    -453.4842810911700894 [Eh]
	-----------------------------------------------------------

  Dipole Moment: [D]
     X:     1.2187      Y:    -4.1531      Z:    -0.0001     Total:     4.3282

*** Psi4 exiting successfully. Buy a developer a beer!
