                               Psi4 1.4a3.dev225

  ==> Input File <==

--------------------------------------------------------------------------
#psi4
#
memory 32 gb

molecule  {
0 1
  N       -1.1263310    -1.2364150    -0.0000030
  C        0.2309450    -1.4868440     0.0000000
  C        1.1514300    -0.4932890    -0.0000070
  C        0.6802680     0.8910870    -0.0000240
  N       -0.7160800     1.0272360    -0.0000150
  C       -1.6820330     0.0328590    -0.0000240
  C        2.6301110    -0.7238270     0.0000080
  O        1.4075700     1.8832080     0.0000170
  O       -2.8884930     0.2440480     0.0000250
  H       -1.7968290    -1.9958110     0.0000150
  H       -1.0704590     1.9805630     0.0000060
  H        0.5203769    -2.5857360     0.0000167
  H        3.0901790    -0.2641310    -0.8791000
  H        3.0901670    -0.2640930     0.8791020
  H        2.8592340    -1.7928420     0.0000320
units angstrom
no_reorient  #important for SAPT in psi4, default
symmetry c1  #important for SAPT in psi4, default
}

set PROPERTIES_ORIGIN ["COM"]
properties('MP2/aug-cc-pvtz', properties = ['dipole'])
--------------------------------------------------------------------------

    Molecular point group: c1
  Charge       = 0
  Multiplicity = 1
  Basis Set: AUG-CC-PVTZ
    Blend: AUG-CC-PVTZ
  Basis Set: (AUG-CC-PVTZ AUX)
    Blend: AUG-CC-PVTZ-JKFIT

    Orbital Energies [Eh]
    ---------------------

    Doubly Occupied:

       1A    -20.544782     2A    -20.543382     3A    -15.641010
       4A    -15.628749     5A    -11.418553     6A    -11.381439
       7A    -11.337391     8A    -11.263040     9A    -11.239442
      10A     -1.427607    11A     -1.392279    12A     -1.305039
      13A     -1.240224    14A     -1.107551    15A     -0.968646
      16A     -0.912810    17A     -0.893627    18A     -0.770932
      19A     -0.765236    20A     -0.700891    21A     -0.673478
      22A     -0.665343    23A     -0.639047    24A     -0.612882
      25A     -0.591524    26A     -0.568500    27A     -0.558204
      28A     -0.551830    29A     -0.511412    30A     -0.479214
      31A     -0.448562    32A     -0.434987    33A     -0.354594

  @DF-RHF Final Energy:  -451.66990340200584

   => Energetics <=

    Nuclear Repulsion Energy =            437.9269299325950442
    One-Electron Energy =               -1484.0492503295372444
    Two-Electron Energy =                 594.4524169949362431
    Total Energy =                       -451.6699034020058434
  Basis Set: (AUG-CC-PVTZ AUX)
    Blend: AUG-CC-PVTZ-RI
    Molecular point group: c1

    Geometry (in Angstrom), charge = 0, multiplicity = 1:

       Center              X                  Y                   Z               Mass
    ------------   -----------------  -----------------  -----------------  -----------------
         N           -1.073865039338    -1.274302059384    -0.000002428704    14.003074004430
         C            0.283410960662    -1.524731059384     0.000000571296    12.000000000000
         C            1.203895960662    -0.531176059384    -0.000006428704    12.000000000000
         C            0.732733960662     0.853199940616    -0.000023428704    12.000000000000
         N           -0.663614039338     0.989348940616    -0.000014428704    14.003074004430
         C           -1.629567039338    -0.005028059384    -0.000023428704    12.000000000000
         C            2.682576960662    -0.761714059384     0.000008571296    12.000000000000
         O            1.460035960662     1.845320940616     0.000017571296    15.994914619570
         O           -2.836027039338     0.206160940616     0.000025571296    15.994914619570
         H           -1.744363039338    -2.033698059384     0.000015571296     1.007825032230
         H           -1.017993039338     1.942675940616     0.000006571296     1.007825032230
         H            0.572842860662    -2.623623059384     0.000017271296     1.007825032230
         H            3.142644960662    -0.302018059384    -0.879099428704     1.007825032230
         H            3.142632960662    -0.301980059384     0.879102571296     1.007825032230
         H            2.911699960662    -1.830729059384     0.000032571296     1.007825032230

  Basis Set: AUG-CC-PVTZ
    Blend: AUG-CC-PVTZ
  Basis Set: (AUG-CC-PVTZ AUX)
    Blend: AUG-CC-PVTZ-JKFIT
	 Reference Energy          =    -451.6699034020058434 [Eh]
	 Singles Energy            =      -0.0000000000000000 [Eh]
	 Same-Spin Energy          =      -0.4591257210618973 [Eh]
	 Opposite-Spin Energy      =      -1.3852034092898049 [Eh]
	 Correlation Energy        =      -1.8443291303517022 [Eh]
	 Total Energy              =    -453.5142325323575392 [Eh]

	 ================> DF-SCS-MP2 Energies <==================
	-----------------------------------------------------------
	 SCS Same-Spin Scale       =       0.3333333333333333 [-]
	 SCS Opposite-Spin Scale   =       1.2000000000000000 [-]
	 SCS Same-Spin Energy      =      -0.1530419070206324 [Eh]
	 SCS Opposite-Spin Energy  =      -1.6622440911477658 [Eh]
	 SCS Correlation Energy    =      -1.8152859981683982 [Eh]
	 SCS Total Energy          =    -453.4851894001742494 [Eh]
	-----------------------------------------------------------

  Dipole Moment: [D]
     X:     1.0317      Y:    -4.1819      Z:    -0.0001     Total:     4.3073

*** Psi4 exiting successfully. Buy a developer a beer!
