                               Psi4 1.3.2 release

  ==> Input File <==

--------------------------------------------------------------------------
#psi4
#
memory 32 gb

molecule  {
0 1
  N       -1.1265450    -1.2362860     0.0000060
  C        0.2308680    -1.4868800    -0.0000290
  C        1.1512880    -0.4934230    -0.0000150
  C        0.6802440     0.8910390    -0.0001390
  N       -0.7159090     1.0273040    -0.0000130
  C       -1.6820960     0.0327770     0.0001490
  C        2.6300190    -0.7237960     0.0000320
  O        1.3488191     1.8022213     0.0000291
  O       -2.8884570     0.2443790    -0.0000340
  H       -1.7971660    -1.9955960    -0.0000480
  H       -1.0703780     1.9806020    -0.0000270
  H        0.5071850    -2.5374850    -0.0000570
  H        3.0900470    -0.2640690    -0.8790850
  H        3.0900220    -0.2639380     0.8790930
  H        2.8593700    -1.7927480     0.0001130
units angstrom
no_reorient  #important for SAPT in psi4, default
symmetry c1  #important for SAPT in psi4, default
}

set PROPERTIES_ORIGIN ["COM"]
properties('MP2/aug-cc-pvtz', properties = ['dipole'])
--------------------------------------------------------------------------

    Molecular point group: c1
  Charge       = 0
  Multiplicity = 1
  Basis Set: AUG-CC-PVTZ
    Blend: AUG-CC-PVTZ
  Basis Set: (AUG-CC-PVTZ AUX)
    Blend: AUG-CC-PVTZ-JKFIT

    Orbital Energies [Eh]
    ---------------------

    Doubly Occupied:

       1A    -20.545148     2A    -20.538188     3A    -15.633016
       4A    -15.615683     5A    -11.410975     6A    -11.362672
       7A    -11.324224     8A    -11.254274     9A    -11.238424
      10A     -1.468062    11A     -1.414432    12A     -1.300078
      13A     -1.234978    14A     -1.102695    15A     -0.966587
      16A     -0.908035    17A     -0.885710    18A     -0.770511
      19A     -0.764353    20A     -0.702162    21A     -0.685972
      22A     -0.666911    23A     -0.639935    24A     -0.625350
      25A     -0.599784    26A     -0.574159    27A     -0.570686
      28A     -0.553841    29A     -0.506598    30A     -0.476504
      31A     -0.446777    32A     -0.437243    33A     -0.349848

  @DF-RHF Final Energy:  -451.66877370242906

   => Energetics <=

    Nuclear Repulsion Energy =            441.8756269030603789
    One-Electron Energy =               -1491.9411740135028595
    Two-Electron Energy =                 598.3967734080133596
    Total Energy =                       -451.6687737024290072
  Basis Set: (AUG-CC-PVTZ AUX)
    Blend: AUG-CC-PVTZ-RI
    Molecular point group: c1

    Geometry (in Angstrom), charge = 0, multiplicity = 1:

       Center              X                  Y                   Z               Mass
    ------------   -----------------  -----------------  -----------------  -----------------
         N           -1.066476762894    -1.264324411245     0.000007677862    14.003074004430
         C            0.290936237106    -1.514918411245    -0.000027322138    12.000000000000
         C            1.211356237106    -0.521461411245    -0.000013322138    12.000000000000
         C            0.740312237106     0.863000588755    -0.000137322138    12.000000000000
         N           -0.655840762894     0.999265588755    -0.000011322138    14.003074004430
         C           -1.622027762894     0.004738588755     0.000150677862    12.000000000000
         C            2.690087237106    -0.751834411245     0.000033677862    12.000000000000
         O            1.408887337106     1.774182888755     0.000030777862    15.994914619570
         O           -2.828388762894     0.216340588755    -0.000032322138    15.994914619570
         H           -1.737097762894    -2.023634411245    -0.000046322138     1.007825032230
         H           -1.010309762894     1.952563588755    -0.000025322138     1.007825032230
         H            0.567253237106    -2.565523411245    -0.000055322138     1.007825032230
         H            3.150115237106    -0.292107411245    -0.879083322138     1.007825032230
         H            3.150090237106    -0.291976411245     0.879094677862     1.007825032230
         H            2.919438237106    -1.820786411245     0.000114677862     1.007825032230

  Basis Set: AUG-CC-PVTZ
    Blend: AUG-CC-PVTZ
  Basis Set: (AUG-CC-PVTZ AUX)
    Blend: AUG-CC-PVTZ-JKFIT
	 Reference Energy          =    -451.6687737024290641 [Eh]
	 Singles Energy            =      -0.0000000000000000 [Eh]
	 Same-Spin Energy          =      -0.4561821913191759 [Eh]
	 Opposite-Spin Energy      =      -1.3784319579173070 [Eh]
	 Correlation Energy        =      -1.8346141492364829 [Eh]
	 Total Energy              =    -453.5033878516655363 [Eh]

	 ================> DF-SCS-MP2 Energies <==================
	-----------------------------------------------------------
	 SCS Same-Spin Scale       =       0.3333333333333333 [-]
	 SCS Opposite-Spin Scale   =       1.2000000000000000 [-]
	 SCS Same-Spin Energy      =      -0.1520607304397253 [Eh]
	 SCS Opposite-Spin Energy  =      -1.6541183495007683 [Eh]
	 SCS Correlation Energy    =      -1.8061790799404935 [Eh]
	 SCS Total Energy          =    -453.4749527823695416 [Eh]
	-----------------------------------------------------------

  Dipole Moment: [D]
     X:     1.4853      Y:    -3.6723      Z:    -0.0001     Total:     3.9613

*** Psi4 exiting successfully. Buy a developer a beer!
