                               Psi4 1.3.2 release

  ==> Input File <==

--------------------------------------------------------------------------
#psi4
#
memory 32 gb

molecule  {
0 1
  N       -1.1265450    -1.2362860     0.0000060
  C        0.2450420    -1.3915812    -0.0000186
  C        1.1512880    -0.4934230    -0.0000150
  C        0.6802440     0.8910390    -0.0001390
  N       -0.7159090     1.0273040    -0.0000130
  C       -1.6820960     0.0327770     0.0001490
  C        2.6300190    -0.7237960     0.0000320
  O        1.4079770     1.8828460     0.0000440
  O       -2.8884570     0.2443790    -0.0000340
  H       -1.7971660    -1.9955960    -0.0000480
  H       -1.0703780     1.9806020    -0.0000270
  H        0.5071850    -2.5374850    -0.0000570
  H        3.0900470    -0.2640690    -0.8790850
  H        3.0900220    -0.2639380     0.8790930
  H        2.8593700    -1.7927480     0.0001130
units angstrom
no_reorient  #important for SAPT in psi4, default
symmetry c1  #important for SAPT in psi4, default
}

set PROPERTIES_ORIGIN ["COM"]
properties('MP2/aug-cc-pvtz', properties = ['dipole'])
--------------------------------------------------------------------------

    Molecular point group: c1
  Charge       = 0
  Multiplicity = 1
  Basis Set: AUG-CC-PVTZ
    Blend: AUG-CC-PVTZ
  Basis Set: (AUG-CC-PVTZ AUX)
    Blend: AUG-CC-PVTZ-JKFIT

    Orbital Energies [Eh]
    ---------------------

    Doubly Occupied:

       1A    -20.545074     2A    -20.543499     3A    -15.638637
       4A    -15.628694     5A    -11.415730     6A    -11.381882
       7A    -11.325427     8A    -11.254474     9A    -11.241976
      10A     -1.427662    11A     -1.393274    12A     -1.306557
      13A     -1.239223    14A     -1.124881    15A     -0.971269
      16A     -0.908498    17A     -0.896199    18A     -0.783068
      19A     -0.765299    20A     -0.692826    21A     -0.673662
      22A     -0.667695    23A     -0.637614    24A     -0.608015
      25A     -0.594016    26A     -0.570498    27A     -0.559154
      28A     -0.553737    29A     -0.513978    30A     -0.474120
      31A     -0.448743    32A     -0.435398    33A     -0.369104

  @DF-RHF Final Energy:  -451.66190414706438

   => Energetics <=

    Nuclear Repulsion Energy =            439.9866720022255890
    One-Electron Energy =               -1488.1173898911731612
    Two-Electron Energy =                 596.4688137418833094
    Total Energy =                       -451.6619041470643197
  Basis Set: (AUG-CC-PVTZ AUX)
    Blend: AUG-CC-PVTZ-RI
    Molecular point group: c1

    Geometry (in Angstrom), charge = 0, multiplicity = 1:

       Center              X                  Y                   Z               Mass
    ------------   -----------------  -----------------  -----------------  -----------------
         N           -1.075333376924    -1.283628713693     0.000004796905    14.003074004430
         C            0.296253623076    -1.438923913693    -0.000019803095    12.000000000000
         C            1.202499623076    -0.540765713693    -0.000016203095    12.000000000000
         C            0.731455623076     0.843696286307    -0.000140203095    12.000000000000
         N           -0.664697376924     0.979961286307    -0.000014203095    14.003074004430
         C           -1.630884376924    -0.014565713693     0.000147796905    12.000000000000
         C            2.681230623076    -0.771138713693     0.000030796905    12.000000000000
         O            1.459188623076     1.835503286307     0.000042796905    15.994914619570
         O           -2.837245376924     0.197036286307    -0.000035203095    15.994914619570
         H           -1.745954376924    -2.042938713693    -0.000049203095     1.007825032230
         H           -1.019166376924     1.933259286307    -0.000028203095     1.007825032230
         H            0.558396623076    -2.584827713693    -0.000058203095     1.007825032230
         H            3.141258623076    -0.311411713693    -0.879086203095     1.007825032230
         H            3.141233623076    -0.311280713693     0.879091796905     1.007825032230
         H            2.910581623076    -1.840090713693     0.000111796905     1.007825032230

  Basis Set: AUG-CC-PVTZ
    Blend: AUG-CC-PVTZ
  Basis Set: (AUG-CC-PVTZ AUX)
    Blend: AUG-CC-PVTZ-JKFIT
	 Reference Energy          =    -451.6619041470643765 [Eh]
	 Singles Energy            =      -0.0000000000000000 [Eh]
	 Same-Spin Energy          =      -0.4583344796584669 [Eh]
	 Opposite-Spin Energy      =      -1.3835060739105272 [Eh]
	 Correlation Energy        =      -1.8418405535689941 [Eh]
	 Total Energy              =    -453.5037447006333764 [Eh]

	 ================> DF-SCS-MP2 Energies <==================
	-----------------------------------------------------------
	 SCS Same-Spin Scale       =       0.3333333333333333 [-]
	 SCS Opposite-Spin Scale   =       1.2000000000000000 [-]
	 SCS Same-Spin Energy      =      -0.1527781598861556 [Eh]
	 SCS Opposite-Spin Energy  =      -1.6602072886926325 [Eh]
	 SCS Correlation Energy    =      -1.8129854485787882 [Eh]
	 SCS Total Energy          =    -453.4748895956431625 [Eh]
	-----------------------------------------------------------

  Dipole Moment: [D]
     X:     1.0971      Y:    -4.0298      Z:    -0.0001     Total:     4.1765

*** Psi4 exiting successfully. Buy a developer a beer!
