                               Psi4 1.3.2 release

  ==> Input File <==

--------------------------------------------------------------------------
#psi4
#
memory 32 gb

molecule  {
0 1
  N       -1.1265450    -1.2362860     0.0000060
  C        0.2308680    -1.4868800    -0.0000290
  C        1.0039919    -0.5350763     0.0000053
  C        0.6802440     0.8910390    -0.0001390
  N       -0.7159090     1.0273040    -0.0000130
  C       -1.6820960     0.0327770     0.0001490
  C        2.6300190    -0.7237960     0.0000320
  O        1.4079770     1.8828460     0.0000440
  O       -2.8884570     0.2443790    -0.0000340
  H       -1.7971660    -1.9955960    -0.0000480
  H       -1.0703780     1.9806020    -0.0000270
  H        0.5071850    -2.5374850    -0.0000570
  H        3.0900470    -0.2640690    -0.8790850
  H        3.0900220    -0.2639380     0.8790930
  H        2.8593700    -1.7927480     0.0001130
units angstrom
no_reorient  #important for SAPT in psi4, default
symmetry c1  #important for SAPT in psi4, default
}

set PROPERTIES_ORIGIN ["COM"]
properties('MP2/aug-cc-pvtz', properties = ['dipole'])
--------------------------------------------------------------------------

    Molecular point group: c1
  Charge       = 0
  Multiplicity = 1
  Basis Set: AUG-CC-PVTZ
    Blend: AUG-CC-PVTZ
  Basis Set: (AUG-CC-PVTZ AUX)
    Blend: AUG-CC-PVTZ-JKFIT

    Orbital Energies [Eh]
    ---------------------

    Doubly Occupied:

       1A    -20.553307     2A    -20.541711     3A    -15.630822
       4A    -15.626172     5A    -11.415808     6A    -11.388746
       7A    -11.311443     8A    -11.253104     9A    -11.246237
      10A     -1.426863    11A     -1.396012    12A     -1.308235
      13A     -1.240144    14A     -1.118354    15A     -0.959204
      16A     -0.919137    17A     -0.898259    18A     -0.776991
      19A     -0.760019    20A     -0.712529    21A     -0.676033
      22A     -0.666884    23A     -0.639999    24A     -0.625534
      25A     -0.584531    26A     -0.559495    27A     -0.559484
      28A     -0.524435    29A     -0.518619    30A     -0.474750
      31A     -0.450912    32A     -0.435613    33A     -0.377032

  @DF-RHF Final Energy:  -451.64128321627459

   => Energetics <=

    Nuclear Repulsion Energy =            439.6930228664962215
    One-Electron Energy =               -1487.5157790553171253
    Two-Electron Energy =                 596.1814729725463167
    Total Energy =                       -451.6412832162745872
  Basis Set: (AUG-CC-PVTZ AUX)
    Blend: AUG-CC-PVTZ-RI
    Molecular point group: c1

    Geometry (in Angstrom), charge = 0, multiplicity = 1:

       Center              X                  Y                   Z               Mass
    ------------   -----------------  -----------------  -----------------  -----------------
         N           -1.059960509606    -1.270590098728     0.000003854369    14.003074004430
         C            0.297452490394    -1.521184098728    -0.000031145631    12.000000000000
         C            1.070576390394    -0.569380398728     0.000003154369    12.000000000000
         C            0.746828490394     0.856734901272    -0.000141145631    12.000000000000
         N           -0.649324509606     0.992999901272    -0.000015145631    14.003074004430
         C           -1.615511509606    -0.001527098728     0.000146854369    12.000000000000
         C            2.696603490394    -0.758100098728     0.000029854369    12.000000000000
         O            1.474561490394     1.848541901272     0.000041854369    15.994914619570
         O           -2.821872509606     0.210074901272    -0.000036145631    15.994914619570
         H           -1.730581509606    -2.029900098728    -0.000050145631     1.007825032230
         H           -1.003793509606     1.946297901272    -0.000029145631     1.007825032230
         H            0.573769490394    -2.571789098728    -0.000059145631     1.007825032230
         H            3.156631490394    -0.298373098728    -0.879087145631     1.007825032230
         H            3.156606490394    -0.298242098728     0.879090854369     1.007825032230
         H            2.925954490394    -1.827052098728     0.000110854369     1.007825032230

  Basis Set: AUG-CC-PVTZ
    Blend: AUG-CC-PVTZ
  Basis Set: (AUG-CC-PVTZ AUX)
    Blend: AUG-CC-PVTZ-JKFIT
	 Reference Energy          =    -451.6412832162745872 [Eh]
	 Singles Energy            =      -0.0000000000000000 [Eh]
	 Same-Spin Energy          =      -0.4579778854207723 [Eh]
	 Opposite-Spin Energy      =      -1.3835180745935300 [Eh]
	 Correlation Energy        =      -1.8414959600143024 [Eh]
	 Total Energy              =    -453.4827791762888864 [Eh]

	 ================> DF-SCS-MP2 Energies <==================
	-----------------------------------------------------------
	 SCS Same-Spin Scale       =       0.3333333333333333 [-]
	 SCS Opposite-Spin Scale   =       1.2000000000000000 [-]
	 SCS Same-Spin Energy      =      -0.1526592951402574 [Eh]
	 SCS Opposite-Spin Energy  =      -1.6602216895122359 [Eh]
	 SCS Correlation Energy    =      -1.8128809846524934 [Eh]
	 SCS Total Energy          =    -453.4541642009270959 [Eh]
	-----------------------------------------------------------

  Dipole Moment: [D]
     X:     1.1330      Y:    -4.0195      Z:    -0.0001     Total:     4.1761

*** Psi4 exiting successfully. Buy a developer a beer!
