                               Psi4 1.3.2 release

  ==> Input File <==

--------------------------------------------------------------------------
#psi4
#
memory 32 gb

molecule  {
0 1
  N       -1.0929147    -1.0957705     0.0000099
  C        0.2308680    -1.4868800    -0.0000290
  C        1.1512880    -0.4934230    -0.0000150
  C        0.6802440     0.8910390    -0.0001390
  N       -0.7159090     1.0273040    -0.0000130
  C       -1.6820960     0.0327770     0.0001490
  C        2.6300190    -0.7237960     0.0000320
  O        1.4079770     1.8828460     0.0000440
  O       -2.8884570     0.2443790    -0.0000340
  H       -1.7971660    -1.9955960    -0.0000480
  H       -1.0703780     1.9806020    -0.0000270
  H        0.5071850    -2.5374850    -0.0000570
  H        3.0900470    -0.2640690    -0.8790850
  H        3.0900220    -0.2639380     0.8790930
  H        2.8593700    -1.7927480     0.0001130
units angstrom
no_reorient  #important for SAPT in psi4, default
symmetry c1  #important for SAPT in psi4, default
}

set PROPERTIES_ORIGIN ["COM"]
properties('MP2/aug-cc-pvtz', properties = ['dipole'])
--------------------------------------------------------------------------

    Molecular point group: c1
  Charge       = 0
  Multiplicity = 1
  Basis Set: AUG-CC-PVTZ
    Blend: AUG-CC-PVTZ
  Basis Set: (AUG-CC-PVTZ AUX)
    Blend: AUG-CC-PVTZ-JKFIT

    Orbital Energies [Eh]
    ---------------------

    Doubly Occupied:

       1A    -20.541795     2A    -20.530690     3A    -15.647830
       4A    -15.619436     5A    -11.401832     6A    -11.380468
       7A    -11.335464     8A    -11.268684     9A    -11.242043
      10A     -1.434243    11A     -1.390321    12A     -1.316317
      13A     -1.231314    14A     -1.118018    15A     -0.988738
      16A     -0.920312    17A     -0.882298    18A     -0.780116
      19A     -0.752274    20A     -0.708555    21A     -0.678941
      22A     -0.653286    23A     -0.641118    24A     -0.608839
      25A     -0.595655    26A     -0.566426    27A     -0.559197
      28A     -0.550294    29A     -0.503856    30A     -0.476917
      31A     -0.445033    32A     -0.430547    33A     -0.358929

  @DF-RHF Final Energy:  -451.64052267721382

   => Energetics <=

    Nuclear Repulsion Energy =            441.3180091959798119
    One-Electron Energy =               -1490.7974882619557775
    Two-Electron Energy =                 597.8389563887621989
    Total Energy =                       -451.6405226772137667
  Basis Set: (AUG-CC-PVTZ AUX)
    Blend: AUG-CC-PVTZ-RI
    Molecular point group: c1

    Geometry (in Angstrom), charge = 0, multiplicity = 1:

       Center              X                  Y                   Z               Mass
    ------------   -----------------  -----------------  -----------------  -----------------
         N           -1.044089879467    -1.149651171530     0.000009253763    14.003074004430
         C            0.279692820533    -1.540760671530    -0.000029646237    12.000000000000
         C            1.200112820533    -0.547303671530    -0.000015646237    12.000000000000
         C            0.729068820533     0.837158328470    -0.000139646237    12.000000000000
         N           -0.667084179467     0.973423328470    -0.000013646237    14.003074004430
         C           -1.633271179467    -0.021103671530     0.000148353763    12.000000000000
         C            2.678843820533    -0.777676671530     0.000031353763    12.000000000000
         O            1.456801820533     1.828965328470     0.000043353763    15.994914619570
         O           -2.839632179467     0.190498328470    -0.000034646237    15.994914619570
         H           -1.748341179467    -2.049476671530    -0.000048646237     1.007825032230
         H           -1.021553179467     1.926721328470    -0.000027646237     1.007825032230
         H            0.556009820533    -2.591365671530    -0.000057646237     1.007825032230
         H            3.138871820533    -0.317949671530    -0.879085646237     1.007825032230
         H            3.138846820533    -0.317818671530     0.879092353763     1.007825032230
         H            2.908194820533    -1.846628671530     0.000112353763     1.007825032230

  Basis Set: AUG-CC-PVTZ
    Blend: AUG-CC-PVTZ
  Basis Set: (AUG-CC-PVTZ AUX)
    Blend: AUG-CC-PVTZ-JKFIT
	 Reference Energy          =    -451.6405226772138235 [Eh]
	 Singles Energy            =      -0.0000000000000000 [Eh]
	 Same-Spin Energy          =      -0.4607936369527219 [Eh]
	 Opposite-Spin Energy      =      -1.3873302602751538 [Eh]
	 Correlation Energy        =      -1.8481238972278757 [Eh]
	 Total Energy              =    -453.4886465744417023 [Eh]

	 ================> DF-SCS-MP2 Energies <==================
	-----------------------------------------------------------
	 SCS Same-Spin Scale       =       0.3333333333333333 [-]
	 SCS Opposite-Spin Scale   =       1.2000000000000000 [-]
	 SCS Same-Spin Energy      =      -0.1535978789842406 [Eh]
	 SCS Opposite-Spin Energy  =      -1.6647963123301845 [Eh]
	 SCS Correlation Energy    =      -1.8183941913144253 [Eh]
	 SCS Total Energy          =    -453.4589168685282630 [Eh]
	-----------------------------------------------------------

  Dipole Moment: [D]
     X:     1.4282      Y:    -4.6487      Z:    -0.0001     Total:     4.8632

*** Psi4 exiting successfully. Buy a developer a beer!
