                               Psi4 1.3.2 release

  ==> Input File <==

--------------------------------------------------------------------------
#psi4
#
memory 32 gb

molecule  {
0 1
  N       -1.1265450    -1.2362860     0.0000060
  C        0.1638100    -1.4202547    -0.0000386
  C        1.1512880    -0.4934230    -0.0000150
  C        0.6802440     0.8910390    -0.0001390
  N       -0.7159090     1.0273040    -0.0000130
  C       -1.6820960     0.0327770     0.0001490
  C        2.6300190    -0.7237960     0.0000320
  O        1.4079770     1.8828460     0.0000440
  O       -2.8884570     0.2443790    -0.0000340
  H       -1.7971660    -1.9955960    -0.0000480
  H       -1.0703780     1.9806020    -0.0000270
  H        0.5071850    -2.5374850    -0.0000570
  H        3.0900470    -0.2640690    -0.8790850
  H        3.0900220    -0.2639380     0.8790930
  H        2.8593700    -1.7927480     0.0001130
units angstrom
no_reorient  #important for SAPT in psi4, default
symmetry c1  #important for SAPT in psi4, default
}

set PROPERTIES_ORIGIN ["COM"]
properties('MP2/aug-cc-pvtz', properties = ['dipole'])
--------------------------------------------------------------------------

    Molecular point group: c1
  Charge       = 0
  Multiplicity = 1
  Basis Set: AUG-CC-PVTZ
    Blend: AUG-CC-PVTZ
  Basis Set: (AUG-CC-PVTZ AUX)
    Blend: AUG-CC-PVTZ-JKFIT

    Orbital Energies [Eh]
    ---------------------

    Doubly Occupied:

       1A    -20.549091     2A    -20.537166     3A    -15.648608
       4A    -15.629497     5A    -11.421710     6A    -11.375076
       7A    -11.333503     8A    -11.255961     9A    -11.238639
      10A     -1.434626    11A     -1.388730    12A     -1.327802
      13A     -1.246569    14A     -1.104475    15A     -0.972191
      16A     -0.916177    17A     -0.897559    18A     -0.791093
      19A     -0.765646    20A     -0.701945    21A     -0.674210
      22A     -0.671603    23A     -0.637283    24A     -0.598685
      25A     -0.590281    26A     -0.573696    27A     -0.560837
      28A     -0.547792    29A     -0.522354    30A     -0.479363
      31A     -0.443278    32A     -0.434915    33A     -0.348953

  @DF-RHF Final Energy:  -451.66195682420073

   => Energetics <=

    Nuclear Repulsion Energy =            439.8280053339548203
    One-Electron Energy =               -1487.7412914357612408
    Two-Electron Energy =                 596.2513292776058051
    Total Energy =                       -451.6619568242007290
  Basis Set: (AUG-CC-PVTZ AUX)
    Blend: AUG-CC-PVTZ-RI
    Molecular point group: c1

    Geometry (in Angstrom), charge = 0, multiplicity = 1:

       Center              X                  Y                   Z               Mass
    ------------   -----------------  -----------------  -----------------  -----------------
         N           -1.067599630813    -1.280898834223     0.000006701019    14.003074004430
         C            0.222755369187    -1.464867534223    -0.000037898981    12.000000000000
         C            1.210233369187    -0.538035834223    -0.000014298981    12.000000000000
         C            0.739189369187     0.846426165777    -0.000138298981    12.000000000000
         N           -0.656963630813     0.982691165777    -0.000012298981    14.003074004430
         C           -1.623150630813    -0.011835834223     0.000149701019    12.000000000000
         C            2.688964369187    -0.768408834223     0.000032701019    12.000000000000
         O            1.466922369187     1.838233165777     0.000044701019    15.994914619570
         O           -2.829511630813     0.199766165777    -0.000033298981    15.994914619570
         H           -1.738220630813    -2.040208834223    -0.000047298981     1.007825032230
         H           -1.011432630813     1.935989165777    -0.000026298981     1.007825032230
         H            0.566130369187    -2.582097834223    -0.000056298981     1.007825032230
         H            3.148992369187    -0.308681834223    -0.879084298981     1.007825032230
         H            3.148967369187    -0.308550834223     0.879093701019     1.007825032230
         H            2.918315369187    -1.837360834223     0.000113701019     1.007825032230

  Basis Set: AUG-CC-PVTZ
    Blend: AUG-CC-PVTZ
  Basis Set: (AUG-CC-PVTZ AUX)
    Blend: AUG-CC-PVTZ-JKFIT
	 Reference Energy          =    -451.6619568242007290 [Eh]
	 Singles Energy            =      -0.0000000000000000 [Eh]
	 Same-Spin Energy          =      -0.4597451958879733 [Eh]
	 Opposite-Spin Energy      =      -1.3847606343751739 [Eh]
	 Correlation Energy        =      -1.8445058302631472 [Eh]
	 Total Energy              =    -453.5064626544638600 [Eh]

	 ================> DF-SCS-MP2 Energies <==================
	-----------------------------------------------------------
	 SCS Same-Spin Scale       =       0.3333333333333333 [-]
	 SCS Opposite-Spin Scale   =       1.2000000000000000 [-]
	 SCS Same-Spin Energy      =      -0.1532483986293244 [Eh]
	 SCS Opposite-Spin Energy  =      -1.6617127612502087 [Eh]
	 SCS Correlation Energy    =      -1.8149611598795332 [Eh]
	 SCS Total Energy          =    -453.4769179840802735 [Eh]
	-----------------------------------------------------------

  Dipole Moment: [D]
     X:     0.6709      Y:    -4.2355      Z:    -0.0001     Total:     4.2883

*** Psi4 exiting successfully. Buy a developer a beer!
