                               Psi4 1.3.2 release

  ==> Input File <==

--------------------------------------------------------------------------
#psi4
#
memory 32 gb

molecule  {
0 1
  N       -1.1265450    -1.2362860     0.0000060
  C        0.2308680    -1.4868800    -0.0000290
  C        1.1753785    -0.4849913    -0.0000185
  C        0.6802440     0.8910390    -0.0001390
  N       -0.7159090     1.0273040    -0.0000130
  C       -1.6820960     0.0327770     0.0001490
  C        2.6300190    -0.7237960     0.0000320
  O        1.4079770     1.8828460     0.0000440
  O       -2.8884570     0.2443790    -0.0000340
  H       -1.7971660    -1.9955960    -0.0000480
  H       -1.0703780     1.9806020    -0.0000270
  H        0.5071850    -2.5374850    -0.0000570
  H        3.0900470    -0.2640690    -0.8790850
  H        3.0900220    -0.2639380     0.8790930
  H        2.8593700    -1.7927480     0.0001130
units angstrom
no_reorient  #important for SAPT in psi4, default
symmetry c1  #important for SAPT in psi4, default
}

set PROPERTIES_ORIGIN ["COM"]
properties('MP2/aug-cc-pvtz', properties = ['dipole'])
--------------------------------------------------------------------------

    Molecular point group: c1
  Charge       = 0
  Multiplicity = 1
  Basis Set: AUG-CC-PVTZ
    Blend: AUG-CC-PVTZ
  Basis Set: (AUG-CC-PVTZ AUX)
    Blend: AUG-CC-PVTZ-JKFIT

    Orbital Energies [Eh]
    ---------------------

    Doubly Occupied:

       1A    -20.545048     2A    -20.541527     3A    -15.642187
       4A    -15.629072     5A    -11.418695     6A    -11.380113
       7A    -11.335237     8A    -11.264570     9A    -11.238311
      10A     -1.427628    11A     -1.391491    12A     -1.304834
      13A     -1.240307    14A     -1.107529    15A     -0.971809
      16A     -0.915162    17A     -0.892469    18A     -0.770950
      19A     -0.764855    20A     -0.706913    21A     -0.674080
      22A     -0.665068    23A     -0.640108    24A     -0.615370
      25A     -0.593131    26A     -0.575395    27A     -0.557940
      28A     -0.550485    29A     -0.510416    30A     -0.479612
      31A     -0.447576    32A     -0.434749    33A     -0.350294

  @DF-RHF Final Energy:  -451.67051479142697

   => Energetics <=

    Nuclear Repulsion Energy =            437.9926512717377705
    One-Electron Energy =               -1484.1604697165437301
    Two-Electron Energy =                 594.4973036533790491
    Total Energy =                       -451.6705147914269673
  Basis Set: (AUG-CC-PVTZ AUX)
    Blend: AUG-CC-PVTZ-RI
    Molecular point group: c1

    Geometry (in Angstrom), charge = 0, multiplicity = 1:

       Center              X                  Y                   Z               Mass
    ------------   -----------------  -----------------  -----------------  -----------------
         N           -1.076277483844    -1.275358474171     0.000006120264    14.003074004430
         C            0.281135516156    -1.525952474171    -0.000028879736    12.000000000000
         C            1.225646016156    -0.524063774171    -0.000018379736    12.000000000000
         C            0.730511516156     0.851966525829    -0.000138879736    12.000000000000
         N           -0.665641483844     0.988231525829    -0.000012879736    14.003074004430
         C           -1.631828483844    -0.006295474171     0.000149120264    12.000000000000
         C            2.680286516156    -0.762868474171     0.000032120264    12.000000000000
         O            1.458244516156     1.843773525829     0.000044120264    15.994914619570
         O           -2.838189483844     0.205306525829    -0.000033879736    15.994914619570
         H           -1.746898483844    -2.034668474171    -0.000047879736     1.007825032230
         H           -1.020110483844     1.941529525829    -0.000026879736     1.007825032230
         H            0.557452516156    -2.576557474171    -0.000056879736     1.007825032230
         H            3.140314516156    -0.303141474171    -0.879084879736     1.007825032230
         H            3.140289516156    -0.303010474171     0.879093120264     1.007825032230
         H            2.909637516156    -1.831820474171     0.000113120264     1.007825032230

  Basis Set: AUG-CC-PVTZ
    Blend: AUG-CC-PVTZ
  Basis Set: (AUG-CC-PVTZ AUX)
    Blend: AUG-CC-PVTZ-JKFIT
	 Reference Energy          =    -451.6705147914269673 [Eh]
	 Singles Energy            =      -0.0000000000000000 [Eh]
	 Same-Spin Energy          =      -0.4593783037210057 [Eh]
	 Opposite-Spin Energy      =      -1.3853733352572646 [Eh]
	 Correlation Energy        =      -1.8447516389782703 [Eh]
	 Total Energy              =    -453.5152664304052337 [Eh]

	 ================> DF-SCS-MP2 Energies <==================
	-----------------------------------------------------------
	 SCS Same-Spin Scale       =       0.3333333333333333 [-]
	 SCS Opposite-Spin Scale   =       1.2000000000000000 [-]
	 SCS Same-Spin Energy      =      -0.1531261012403352 [Eh]
	 SCS Opposite-Spin Energy  =      -1.6624480023087174 [Eh]
	 SCS Correlation Energy    =      -1.8155741035490527 [Eh]
	 SCS Total Energy          =    -453.4860888949760351 [Eh]
	-----------------------------------------------------------

  Dipole Moment: [D]
     X:     1.0327      Y:    -4.2099      Z:    -0.0001     Total:     4.3347

*** Psi4 exiting successfully. Buy a developer a beer!
