                               Psi4 1.3.2 release

  ==> Input File <==

--------------------------------------------------------------------------
#psi4
#
memory 32 gb

molecule  {
0 1
  N       -1.1265450    -1.2362860     0.0000060
  C        0.2308680    -1.4868800    -0.0000290
  C        1.1512880    -0.4934230    -0.0000150
  C        0.6802440     0.8910390    -0.0001390
  N       -0.7159090     1.0273040    -0.0000130
  C       -1.6820960     0.0327770     0.0001490
  C        2.6300190    -0.7237960     0.0000320
  O        1.4079770     1.8828460     0.0000440
  O       -2.8884570     0.2443790    -0.0000340
  H       -1.7971660    -1.9955960    -0.0000480
  H       -1.0703780     1.9806020    -0.0000270
  H        0.4563135    -2.3440629    -0.0000518
  H        3.0900470    -0.2640690    -0.8790850
  H        3.0900220    -0.2639380     0.8790930
  H        2.8593700    -1.7927480     0.0001130
units angstrom
no_reorient  #important for SAPT in psi4, default
symmetry c1  #important for SAPT in psi4, default
}

set PROPERTIES_ORIGIN ["COM"]
properties('MP2/aug-cc-pvtz', properties = ['dipole'])
--------------------------------------------------------------------------

    Molecular point group: c1
  Charge       = 0
  Multiplicity = 1
  Basis Set: AUG-CC-PVTZ
    Blend: AUG-CC-PVTZ
  Basis Set: (AUG-CC-PVTZ AUX)
    Blend: AUG-CC-PVTZ-JKFIT

    Orbital Energies [Eh]
    ---------------------

    Doubly Occupied:

       1A    -20.543986     2A    -20.543130     3A    -15.639451
       4A    -15.628392     5A    -11.417576     6A    -11.380483
       7A    -11.309677     8A    -11.262847     9A    -11.240045
      10A     -1.426963    11A     -1.391914    12A     -1.305814
      13A     -1.240839    14A     -1.112391    15A     -0.982579
      16A     -0.928554    17A     -0.893095    18A     -0.772698
      19A     -0.767614    20A     -0.739454    21A     -0.676552
      22A     -0.664660    23A     -0.644231    24A     -0.623782
      25A     -0.591697    26A     -0.569034    27A     -0.557972
      28A     -0.552079    29A     -0.510962    30A     -0.480213
      31A     -0.448547    32A     -0.434532    33A     -0.354385

  @DF-RHF Final Energy:  -451.63761710691051

   => Energetics <=

    Nuclear Repulsion Energy =            439.4125964396860127
    One-Electron Energy =               -1486.8281325636419297
    Two-Electron Energy =                 595.7779190170454058
    Total Energy =                       -451.6376171069105112
  Basis Set: (AUG-CC-PVTZ AUX)
    Blend: AUG-CC-PVTZ-RI
    Molecular point group: c1

    Geometry (in Angstrom), charge = 0, multiplicity = 1:

       Center              X                  Y                   Z               Mass
    ------------   -----------------  -----------------  -----------------  -----------------
         N           -1.073577169134    -1.276102309911     0.000005745466    14.003074004430
         C            0.283835830866    -1.526696309911    -0.000029254534    12.000000000000
         C            1.204255830866    -0.533239309911    -0.000015254534    12.000000000000
         C            0.733211830866     0.851222690089    -0.000139254534    12.000000000000
         N           -0.662941169134     0.987487690089    -0.000013254534    14.003074004430
         C           -1.629128169134    -0.007039309911     0.000148745466    12.000000000000
         C            2.682986830866    -0.763612309911     0.000031745466    12.000000000000
         O            1.460944830866     1.843029690089     0.000043745466    15.994914619570
         O           -2.835489169134     0.204562690089    -0.000034254534    15.994914619570
         H           -1.744198169134    -2.035412309911    -0.000048254534     1.007825032230
         H           -1.017410169134     1.940785690089    -0.000027254534     1.007825032230
         H            0.509281330866    -2.383879209911    -0.000052054534     1.007825032230
         H            3.143014830866    -0.303885309911    -0.879085254534     1.007825032230
         H            3.142989830866    -0.303754309911     0.879092745466     1.007825032230
         H            2.912337830866    -1.832564309911     0.000112745466     1.007825032230

  Basis Set: AUG-CC-PVTZ
    Blend: AUG-CC-PVTZ
  Basis Set: (AUG-CC-PVTZ AUX)
    Blend: AUG-CC-PVTZ-JKFIT
	 Reference Energy          =    -451.6376171069105112 [Eh]
	 Singles Energy            =      -0.0000000000000000 [Eh]
	 Same-Spin Energy          =      -0.4586207582551915 [Eh]
	 Opposite-Spin Energy      =      -1.3841141431611810 [Eh]
	 Correlation Energy        =      -1.8427349014163725 [Eh]
	 Total Energy              =    -453.4803520083268609 [Eh]

	 ================> DF-SCS-MP2 Energies <==================
	-----------------------------------------------------------
	 SCS Same-Spin Scale       =       0.3333333333333333 [-]
	 SCS Opposite-Spin Scale   =       1.2000000000000000 [-]
	 SCS Same-Spin Energy      =      -0.1528735860850638 [Eh]
	 SCS Opposite-Spin Energy  =      -1.6609369717934170 [Eh]
	 SCS Correlation Energy    =      -1.8138105578784809 [Eh]
	 SCS Total Energy          =    -453.4514276647889801 [Eh]
	-----------------------------------------------------------

  Dipole Moment: [D]
     X:     1.0574      Y:    -4.1746      Z:    -0.0001     Total:     4.3065

*** Psi4 exiting successfully. Buy a developer a beer!
