                               Psi4 1.4a3.dev225

  ==> Input File <==

--------------------------------------------------------------------------
#psi4
#
memory 32 gb

molecule  {
0 1
  N       -1.1263310    -1.2364150    -0.0000030
  C        0.2309450    -1.4868440     0.0000000
  C        1.1514300    -0.4932890    -0.0000070
  C        0.6802680     0.8910870    -0.0000240
  N       -0.7160800     1.0272360    -0.0000150
  C       -1.6820330     0.0328590    -0.0000240
  C        2.6301110    -0.7238270     0.0000080
  O        1.4075700     1.8832080     0.0000170
  O       -2.8687926     0.2405995     0.0000242
  H       -1.7968290    -1.9958110     0.0000150
  H       -1.0704590     1.9805630     0.0000060
  H        0.5076420    -2.5373850     0.0000160
  H        3.0901790    -0.2641310    -0.8791000
  H        3.0901670    -0.2640930     0.8791020
  H        2.8592340    -1.7928420     0.0000320
units angstrom
no_reorient  #important for SAPT in psi4, default
symmetry c1  #important for SAPT in psi4, default
}

set PROPERTIES_ORIGIN ["COM"]
properties('MP2/aug-cc-pvtz', properties = ['dipole'])
--------------------------------------------------------------------------

    Molecular point group: c1
  Charge       = 0
  Multiplicity = 1
  Basis Set: AUG-CC-PVTZ
    Blend: AUG-CC-PVTZ
  Basis Set: (AUG-CC-PVTZ AUX)
    Blend: AUG-CC-PVTZ-JKFIT

    Orbital Energies [Eh]
    ---------------------

    Doubly Occupied:

       1A    -20.545297     2A    -20.541968     3A    -15.638213
       4A    -15.626186     5A    -11.414765     6A    -11.379755
       7A    -11.330875     8A    -11.261340     9A    -11.238596
      10A     -1.436530    11A     -1.393012    12A     -1.306382
      13A     -1.238919    14A     -1.106775    15A     -0.968756
      16A     -0.914502    17A     -0.891776    18A     -0.769544
      19A     -0.765294    20A     -0.706345    21A     -0.674977
      22A     -0.666535    23A     -0.644256    24A     -0.616221
      25A     -0.591935    26A     -0.567679    27A     -0.557322
      28A     -0.550961    29A     -0.513396    30A     -0.481568
      31A     -0.447731    32A     -0.434903    33A     -0.353337

  @DF-RHF Final Energy:  -451.67432270236361

   => Energetics <=

    Nuclear Repulsion Energy =            438.9020385117790397
    One-Electron Energy =               -1486.0014148989127989
    Two-Electron Energy =                 595.4250536847702051
    Total Energy =                       -451.6743227023636109
  Basis Set: (AUG-CC-PVTZ AUX)
    Blend: AUG-CC-PVTZ-RI
    Molecular point group: c1

    Geometry (in Angstrom), charge = 0, multiplicity = 1:

       Center              X                  Y                   Z               Mass
    ------------   -----------------  -----------------  -----------------  -----------------
         N           -1.076263203766    -1.274251052040    -0.000002321586    14.003074004430
         C            0.281012796234    -1.524680052040     0.000000678414    12.000000000000
         C            1.201497796234    -0.531125052040    -0.000006321586    12.000000000000
         C            0.730335796234     0.853250947960    -0.000023321586    12.000000000000
         N           -0.666012203766     0.989399947960    -0.000014321586    14.003074004430
         C           -1.631965203766    -0.004977052040    -0.000023321586    12.000000000000
         C            2.680178796234    -0.761663052040     0.000008678414    12.000000000000
         O            1.457637796234     1.845371947960     0.000017678414    15.994914619570
         O           -2.818724803766     0.202763447960     0.000024878414    15.994914619570
         H           -1.746761203766    -2.033647052040     0.000015678414     1.007825032230
         H           -1.020391203766     1.942726947960     0.000006678414     1.007825032230
         H            0.557709796234    -2.575221052040     0.000016678414     1.007825032230
         H            3.140246796234    -0.301967052040    -0.879099321586     1.007825032230
         H            3.140234796234    -0.301929052040     0.879102678414     1.007825032230
         H            2.909301796234    -1.830678052040     0.000032678414     1.007825032230

  Basis Set: AUG-CC-PVTZ
    Blend: AUG-CC-PVTZ
  Basis Set: (AUG-CC-PVTZ AUX)
    Blend: AUG-CC-PVTZ-JKFIT
	 Reference Energy          =    -451.6743227023636109 [Eh]
	 Singles Energy            =      -0.0000000000000000 [Eh]
	 Same-Spin Energy          =      -0.4584529287334184 [Eh]
	 Opposite-Spin Energy      =      -1.3835587360718340 [Eh]
	 Correlation Energy        =      -1.8420116648052525 [Eh]
	 Total Energy              =    -453.5163343671688381 [Eh]

	 ================> DF-SCS-MP2 Energies <==================
	-----------------------------------------------------------
	 SCS Same-Spin Scale       =       0.3333333333333333 [-]
	 SCS Opposite-Spin Scale   =       1.2000000000000000 [-]
	 SCS Same-Spin Energy      =      -0.1528176429111395 [Eh]
	 SCS Opposite-Spin Energy  =      -1.6602704832862007 [Eh]
	 SCS Correlation Energy    =      -1.8130881261973402 [Eh]
	 SCS Total Energy          =    -453.4874108285609395 [Eh]
	-----------------------------------------------------------

  Dipole Moment: [D]
     X:     0.8769      Y:    -4.1630      Z:    -0.0001     Total:     4.2544

*** Psi4 exiting successfully. Buy a developer a beer!
