                               Psi4 1.3.2 release

  ==> Input File <==

--------------------------------------------------------------------------
#psi4
#
memory 32 gb

molecule  {
0 1
  N       -1.1265450    -1.2362860     0.0000060
  C        0.1967575    -1.4541526    -0.0000338
  C        1.1512880    -0.4934230    -0.0000150
  C        0.6802440     0.8910390    -0.0001390
  N       -0.7159090     1.0273040    -0.0000130
  C       -1.6820960     0.0327770     0.0001490
  C        2.6300190    -0.7237960     0.0000320
  O        1.4079770     1.8828460     0.0000440
  O       -2.8884570     0.2443790    -0.0000340
  H       -1.7971660    -1.9955960    -0.0000480
  H       -1.0703780     1.9806020    -0.0000270
  H        0.5071850    -2.5374850    -0.0000570
  H        3.0900470    -0.2640690    -0.8790850
  H        3.0900220    -0.2639380     0.8790930
  H        2.8593700    -1.7927480     0.0001130
units angstrom
no_reorient  #important for SAPT in psi4, default
symmetry c1  #important for SAPT in psi4, default
}

set PROPERTIES_ORIGIN ["COM"]
properties('MP2/aug-cc-pvtz', properties = ['dipole'])
--------------------------------------------------------------------------

    Molecular point group: c1
  Charge       = 0
  Multiplicity = 1
  Basis Set: AUG-CC-PVTZ
    Blend: AUG-CC-PVTZ
  Basis Set: (AUG-CC-PVTZ AUX)
    Blend: AUG-CC-PVTZ-JKFIT

    Orbital Energies [Eh]
    ---------------------

    Doubly Occupied:

       1A    -20.546799     2A    -20.540160     3A    -15.644665
       4A    -15.629014     5A    -11.420001     6A    -11.378055
       7A    -11.332610     8A    -11.259202     9A    -11.239040
      10A     -1.430664    11A     -1.390441    12A     -1.315851
      13A     -1.243682    14A     -1.106168    15A     -0.970994
      16A     -0.914795    17A     -0.895867    18A     -0.780916
      19A     -0.765672    20A     -0.703452    21A     -0.673209
      22A     -0.669306    23A     -0.639072    24A     -0.608183
      25A     -0.590865    26A     -0.571360    27A     -0.559150
      28A     -0.550072    29A     -0.517082    30A     -0.479535
      31A     -0.446074    32A     -0.434849    33A     -0.351645

  @DF-RHF Final Energy:  -451.67013247332949

   => Energetics <=

    Nuclear Repulsion Energy =            438.9923576471283013
    One-Electron Energy =               -1486.1280811556232493
    Two-Electron Energy =                 595.4655910351655166
    Total Energy =                       -451.6701324733294314
  Basis Set: (AUG-CC-PVTZ AUX)
    Blend: AUG-CC-PVTZ-RI
    Molecular point group: c1

    Geometry (in Angstrom), charge = 0, multiplicity = 1:

       Center              X                  Y                   Z               Mass
    ------------   -----------------  -----------------  -----------------  -----------------
         N           -1.070736419271    -1.277671562306     0.000006244032    14.003074004430
         C            0.252566080729    -1.495538162306    -0.000033555968    12.000000000000
         C            1.207096580729    -0.534808562306    -0.000014755968    12.000000000000
         C            0.736052580729     0.849653437694    -0.000138755968    12.000000000000
         N           -0.660100419271     0.985918437694    -0.000012755968    14.003074004430
         C           -1.626287419271    -0.008608562306     0.000149244032    12.000000000000
         C            2.685827580729    -0.765181562306     0.000032244032    12.000000000000
         O            1.463785580729     1.841460437694     0.000044244032    15.994914619570
         O           -2.832648419271     0.202993437694    -0.000033755968    15.994914619570
         H           -1.741357419271    -2.036981562306    -0.000047755968     1.007825032230
         H           -1.014569419271     1.939216437694    -0.000026755968     1.007825032230
         H            0.562993580729    -2.578870562306    -0.000056755968     1.007825032230
         H            3.145855580729    -0.305454562306    -0.879084755968     1.007825032230
         H            3.145830580729    -0.305323562306     0.879093244032     1.007825032230
         H            2.915178580729    -1.834133562306     0.000113244032     1.007825032230

  Basis Set: AUG-CC-PVTZ
    Blend: AUG-CC-PVTZ
  Basis Set: (AUG-CC-PVTZ AUX)
    Blend: AUG-CC-PVTZ-JKFIT
	 Reference Energy          =    -451.6701324733294882 [Eh]
	 Singles Energy            =      -0.0000000000000000 [Eh]
	 Same-Spin Energy          =      -0.4593000288220110 [Eh]
	 Opposite-Spin Energy      =      -1.3846086025297648 [Eh]
	 Correlation Energy        =      -1.8439086313517759 [Eh]
	 Total Energy              =    -453.5140411046812687 [Eh]

	 ================> DF-SCS-MP2 Energies <==================
	-----------------------------------------------------------
	 SCS Same-Spin Scale       =       0.3333333333333333 [-]
	 SCS Opposite-Spin Scale   =       1.2000000000000000 [-]
	 SCS Same-Spin Energy      =      -0.1531000096073370 [Eh]
	 SCS Opposite-Spin Energy  =      -1.6615303230357177 [Eh]
	 SCS Correlation Energy    =      -1.8146303326430546 [Eh]
	 SCS Total Energy          =    -453.4847628059725366 [Eh]
	-----------------------------------------------------------

  Dipole Moment: [D]
     X:     0.8538      Y:    -4.2158      Z:    -0.0001     Total:     4.3014

*** Psi4 exiting successfully. Buy a developer a beer!
