                               Psi4 1.3.2 release

  ==> Input File <==

--------------------------------------------------------------------------
#psi4
#
memory 32 gb

molecule  {
0 1
  N       -1.1265450    -1.2362860     0.0000060
  C        0.2308680    -1.4868800    -0.0000290
  C        1.1512880    -0.4934230    -0.0000150
  C        0.6802440     0.8910390    -0.0001390
  N       -0.7159090     1.0273040    -0.0000130
  C       -1.6820960     0.0327770     0.0001490
  C        2.6300190    -0.7237960     0.0000320
  O        1.4079770     1.8828460     0.0000440
  O       -2.8884570     0.2443790    -0.0000340
  H       -1.6647705    -1.8456913    -0.0000373
  H       -1.0703780     1.9806020    -0.0000270
  H        0.5071850    -2.5374850    -0.0000570
  H        3.0900470    -0.2640690    -0.8790850
  H        3.0900220    -0.2639380     0.8790930
  H        2.8593700    -1.7927480     0.0001130
units angstrom
no_reorient  #important for SAPT in psi4, default
symmetry c1  #important for SAPT in psi4, default
}

set PROPERTIES_ORIGIN ["COM"]
properties('MP2/aug-cc-pvtz', properties = ['dipole'])
--------------------------------------------------------------------------

    Molecular point group: c1
  Charge       = 0
  Multiplicity = 1
  Basis Set: AUG-CC-PVTZ
    Blend: AUG-CC-PVTZ
  Basis Set: (AUG-CC-PVTZ AUX)
    Blend: AUG-CC-PVTZ-JKFIT

    Orbital Energies [Eh]
    ---------------------

    Doubly Occupied:

       1A    -20.546722     2A    -20.544981     3A    -15.629550
       4A    -15.621593     5A    -11.419879     6A    -11.382724
       7A    -11.333182     8A    -11.264858     9A    -11.240642
      10A     -1.433151    11A     -1.394225    12A     -1.323860
      13A     -1.251448    14A     -1.115381    15A     -0.974509
      16A     -0.923360    17A     -0.917190    18A     -0.797363
      19A     -0.769280    20A     -0.712154    21A     -0.684049
      22A     -0.667629    23A     -0.642122    24A     -0.621238
      25A     -0.593034    26A     -0.570886    27A     -0.560338
      28A     -0.553574    29A     -0.514288    30A     -0.481003
      31A     -0.450084    32A     -0.436049    33A     -0.357609

  @DF-RHF Final Energy:  -451.62776823333178

   => Energetics <=

    Nuclear Repulsion Energy =            439.6550958167188696
    One-Electron Energy =               -1487.1098140794613300
    Two-Electron Energy =                 595.8269500294106820
    Total Energy =                       -451.6277682333318353
  Basis Set: (AUG-CC-PVTZ AUX)
    Blend: AUG-CC-PVTZ-RI
    Molecular point group: c1

    Geometry (in Angstrom), charge = 0, multiplicity = 1:

       Center              X                  Y                   Z               Mass
    ------------   -----------------  -----------------  -----------------  -----------------
         N           -1.075042551396    -1.275754349688     0.000005701488    14.003074004430
         C            0.282370448604    -1.526348349688    -0.000029298512    12.000000000000
         C            1.202790448604    -0.532891349688    -0.000015298512    12.000000000000
         C            0.731746448604     0.851570650312    -0.000139298512    12.000000000000
         N           -0.664406551396     0.987835650312    -0.000013298512    14.003074004430
         C           -1.630593551396    -0.006691349688     0.000148701488    12.000000000000
         C            2.681521448604    -0.763264349688     0.000031701488    12.000000000000
         O            1.459479448604     1.843377650312     0.000043701488    15.994914619570
         O           -2.836954551396     0.204910650312    -0.000034298512    15.994914619570
         H           -1.613268051396    -1.885159649688    -0.000037598512     1.007825032230
         H           -1.018875551396     1.941133650312    -0.000027298512     1.007825032230
         H            0.558687448604    -2.576953349688    -0.000057298512     1.007825032230
         H            3.141549448604    -0.303537349688    -0.879085298512     1.007825032230
         H            3.141524448604    -0.303406349688     0.879092701488     1.007825032230
         H            2.910872448604    -1.832216349688     0.000112701488     1.007825032230

  Basis Set: AUG-CC-PVTZ
    Blend: AUG-CC-PVTZ
  Basis Set: (AUG-CC-PVTZ AUX)
    Blend: AUG-CC-PVTZ-JKFIT
	 Reference Energy          =    -451.6277682333317784 [Eh]
	 Singles Energy            =      -0.0000000000000000 [Eh]
	 Same-Spin Energy          =      -0.4576298870642279 [Eh]
	 Opposite-Spin Energy      =      -1.3823354148003406 [Eh]
	 Correlation Energy        =      -1.8399653018645685 [Eh]
	 Total Energy              =    -453.4677335351963734 [Eh]

	 ================> DF-SCS-MP2 Energies <==================
	-----------------------------------------------------------
	 SCS Same-Spin Scale       =       0.3333333333333333 [-]
	 SCS Opposite-Spin Scale   =       1.2000000000000000 [-]
	 SCS Same-Spin Energy      =      -0.1525432956880760 [Eh]
	 SCS Opposite-Spin Energy  =      -1.6588024977604088 [Eh]
	 SCS Correlation Energy    =      -1.8113457934484847 [Eh]
	 SCS Total Energy          =    -453.4391140267802598 [Eh]
	-----------------------------------------------------------

  Dipole Moment: [D]
     X:     1.2238      Y:    -3.9629      Z:    -0.0000     Total:     4.1476

*** Psi4 exiting successfully. Buy a developer a beer!
