                               Psi4 1.3.2 release

  ==> Input File <==

--------------------------------------------------------------------------
#psi4
#
memory 32 gb

molecule  {
0 1
  N       -1.1265450    -1.2362860     0.0000060
  C        0.2308680    -1.4868800    -0.0000290
  C        1.1512880    -0.4934230    -0.0000150
  C        0.6673377     0.7939802    -0.0001311
  N       -0.7159090     1.0273040    -0.0000130
  C       -1.6820960     0.0327770     0.0001490
  C        2.6300190    -0.7237960     0.0000320
  O        1.4079770     1.8828460     0.0000440
  O       -2.8884570     0.2443790    -0.0000340
  H       -1.7971660    -1.9955960    -0.0000480
  H       -1.0703780     1.9806020    -0.0000270
  H        0.5071850    -2.5374850    -0.0000570
  H        3.0900470    -0.2640690    -0.8790850
  H        3.0900220    -0.2639380     0.8790930
  H        2.8593700    -1.7927480     0.0001130
units angstrom
no_reorient  #important for SAPT in psi4, default
symmetry c1  #important for SAPT in psi4, default
}

set PROPERTIES_ORIGIN ["COM"]
properties('MP2/aug-cc-pvtz', properties = ['dipole'])
--------------------------------------------------------------------------

    Molecular point group: c1
  Charge       = 0
  Multiplicity = 1
  Basis Set: AUG-CC-PVTZ
    Blend: AUG-CC-PVTZ
  Basis Set: (AUG-CC-PVTZ AUX)
    Blend: AUG-CC-PVTZ-JKFIT

    Orbital Energies [Eh]
    ---------------------

    Doubly Occupied:

       1A    -20.547532     2A    -20.525032     3A    -15.651051
       4A    -15.634139     5A    -11.420218     6A    -11.378964
       7A    -11.347017     8A    -11.262751     9A    -11.242578
      10A     -1.429930    11A     -1.349672    12A     -1.304838
      13A     -1.233990    14A     -1.125671    15A     -0.975903
      16A     -0.934932    17A     -0.891056    18A     -0.781206
      19A     -0.774873    20A     -0.716465    21A     -0.670839
      22A     -0.669528    23A     -0.642360    24A     -0.594210
      25A     -0.593426    26A     -0.570392    27A     -0.552599
      28A     -0.542294    29A     -0.516300    30A     -0.479789
      31A     -0.437016    32A     -0.422727    33A     -0.360374

  @DF-RHF Final Energy:  -451.65000172807180

   => Energetics <=

    Nuclear Repulsion Energy =            438.6278760227235125
    One-Electron Energy =               -1485.3964077435196032
    Two-Electron Energy =                 595.1185299927242340
    Total Energy =                       -451.6500017280718566
  Basis Set: (AUG-CC-PVTZ AUX)
    Blend: AUG-CC-PVTZ-RI
    Molecular point group: c1

    Geometry (in Angstrom), charge = 0, multiplicity = 1:

       Center              X                  Y                   Z               Mass
    ------------   -----------------  -----------------  -----------------  -----------------
         N           -1.072755179110    -1.265315181575     0.000005034920    14.003074004430
         C            0.284657820890    -1.515909181575    -0.000029965080    12.000000000000
         C            1.205077820890    -0.522452181575    -0.000015965080    12.000000000000
         C            0.721127520890     0.764951018425    -0.000132065080    12.000000000000
         N           -0.662119179110     0.998274818425    -0.000013965080    14.003074004430
         C           -1.628306179110     0.003747818425     0.000148034920    12.000000000000
         C            2.683808820890    -0.752825181575     0.000031034920    12.000000000000
         O            1.461766820890     1.853816818425     0.000043034920    15.994914619570
         O           -2.834667179110     0.215349818425    -0.000034965080    15.994914619570
         H           -1.743376179110    -2.024625181575    -0.000048965080     1.007825032230
         H           -1.016588179110     1.951572818425    -0.000027965080     1.007825032230
         H            0.560974820890    -2.566514181575    -0.000057965080     1.007825032230
         H            3.143836820890    -0.293098181575    -0.879085965080     1.007825032230
         H            3.143811820890    -0.292967181575     0.879092034920     1.007825032230
         H            2.913159820890    -1.821777181575     0.000112034920     1.007825032230

  Basis Set: AUG-CC-PVTZ
    Blend: AUG-CC-PVTZ
  Basis Set: (AUG-CC-PVTZ AUX)
    Blend: AUG-CC-PVTZ-JKFIT
	 Reference Energy          =    -451.6500017280717998 [Eh]
	 Singles Energy            =      -0.0000000000000000 [Eh]
	 Same-Spin Energy          =      -0.4618992226419665 [Eh]
	 Opposite-Spin Energy      =      -1.3896554308086082 [Eh]
	 Correlation Energy        =      -1.8515546534505747 [Eh]
	 Total Energy              =    -453.5015563815223913 [Eh]

	 ================> DF-SCS-MP2 Energies <==================
	-----------------------------------------------------------
	 SCS Same-Spin Scale       =       0.3333333333333333 [-]
	 SCS Opposite-Spin Scale   =       1.2000000000000000 [-]
	 SCS Same-Spin Energy      =      -0.1539664075473222 [Eh]
	 SCS Opposite-Spin Energy  =      -1.6675865169703299 [Eh]
	 SCS Correlation Energy    =      -1.8215529245176521 [Eh]
	 SCS Total Energy          =    -453.4715546525894752 [Eh]
	-----------------------------------------------------------

  Dipole Moment: [D]
     X:     0.7723      Y:    -4.8209      Z:    -0.0000     Total:     4.8823

*** Psi4 exiting successfully. Buy a developer a beer!
