                               Psi4 1.3.2 release

  ==> Input File <==

--------------------------------------------------------------------------
#psi4
#
memory 32 gb

molecule  {
0 1
  N       -1.2622416    -1.2874048     0.0000312
  C        0.2308680    -1.4868800    -0.0000290
  C        1.1512880    -0.4934230    -0.0000150
  C        0.6802440     0.8910390    -0.0001390
  N       -0.7159090     1.0273040    -0.0000130
  C       -1.6820960     0.0327770     0.0001490
  C        2.6300190    -0.7237960     0.0000320
  O        1.4079770     1.8828460     0.0000440
  O       -2.8884570     0.2443790    -0.0000340
  H       -1.7971660    -1.9955960    -0.0000480
  H       -1.0703780     1.9806020    -0.0000270
  H        0.5071850    -2.5374850    -0.0000570
  H        3.0900470    -0.2640690    -0.8790850
  H        3.0900220    -0.2639380     0.8790930
  H        2.8593700    -1.7927480     0.0001130
units angstrom
no_reorient  #important for SAPT in psi4, default
symmetry c1  #important for SAPT in psi4, default
}

set PROPERTIES_ORIGIN ["COM"]
properties('MP2/aug-cc-pvtz', properties = ['dipole'])
--------------------------------------------------------------------------

    Molecular point group: c1
  Charge       = 0
  Multiplicity = 1
  Basis Set: AUG-CC-PVTZ
    Blend: AUG-CC-PVTZ
  Basis Set: (AUG-CC-PVTZ AUX)
    Blend: AUG-CC-PVTZ-JKFIT

    Orbital Energies [Eh]
    ---------------------

    Doubly Occupied:

       1A    -20.551445     2A    -20.533881     3A    -15.632968
       4A    -15.626560     5A    -11.414628     6A    -11.387472
       7A    -11.338501     8A    -11.275189     9A    -11.245824
      10A     -1.423877    11A     -1.396855    12A     -1.283865
      13A     -1.242013    14A     -1.115624    15A     -0.965966
      16A     -0.915327    17A     -0.905787    18A     -0.789822
      19A     -0.751209    20A     -0.700277    21A     -0.687308
      22A     -0.658857    23A     -0.629806    24A     -0.625206
      25A     -0.595841    26A     -0.571360    27A     -0.559355
      28A     -0.558145    29A     -0.493745    30A     -0.471719
      31A     -0.450857    32A     -0.436404    33A     -0.367486

  @DF-RHF Final Energy:  -451.64248850094515

   => Energetics <=

    Nuclear Repulsion Energy =            435.9075240362858494
    One-Electron Energy =               -1479.8936691534822785
    Two-Electron Energy =                 592.3436566162512236
    Total Energy =                       -451.6424885009452055
  Basis Set: (AUG-CC-PVTZ AUX)
    Blend: AUG-CC-PVTZ-RI
    Molecular point group: c1

    Geometry (in Angstrom), charge = 0, multiplicity = 1:

       Center              X                  Y                   Z               Mass
    ------------   -----------------  -----------------  -----------------  -----------------
         N           -1.194604957497    -1.319995349671     0.000028187383    14.003074004430
         C            0.298504642503    -1.519470549671    -0.000032012617    12.000000000000
         C            1.218924642503    -0.526013549671    -0.000018012617    12.000000000000
         C            0.747880642503     0.858448450329    -0.000142012617    12.000000000000
         N           -0.648272357497     0.994713450329    -0.000016012617    14.003074004430
         C           -1.614459357497     0.000186450329     0.000145987383    12.000000000000
         C            2.697655642503    -0.756386549671     0.000028987383    12.000000000000
         O            1.475613642503     1.850255450329     0.000040987383    15.994914619570
         O           -2.820820357497     0.211788450329    -0.000037012617    15.994914619570
         H           -1.729529357497    -2.028186549671    -0.000051012617     1.007825032230
         H           -1.002741357497     1.948011450329    -0.000030012617     1.007825032230
         H            0.574821642503    -2.570075549671    -0.000060012617     1.007825032230
         H            3.157683642503    -0.296659549671    -0.879088012617     1.007825032230
         H            3.157658642503    -0.296528549671     0.879089987383     1.007825032230
         H            2.927006642503    -1.825338549671     0.000109987383     1.007825032230

  Basis Set: AUG-CC-PVTZ
    Blend: AUG-CC-PVTZ
  Basis Set: (AUG-CC-PVTZ AUX)
    Blend: AUG-CC-PVTZ-JKFIT
	 Reference Energy          =    -451.6424885009451486 [Eh]
	 Singles Energy            =      -0.0000000000000000 [Eh]
	 Same-Spin Energy          =      -0.4569434869465567 [Eh]
	 Opposite-Spin Energy      =      -1.3842732878471526 [Eh]
	 Correlation Energy        =      -1.8412167747937094 [Eh]
	 Total Energy              =    -453.4837052757388847 [Eh]

	 ================> DF-SCS-MP2 Energies <==================
	-----------------------------------------------------------
	 SCS Same-Spin Scale       =       0.3333333333333333 [-]
	 SCS Opposite-Spin Scale   =       1.2000000000000000 [-]
	 SCS Same-Spin Energy      =      -0.1523144956488522 [Eh]
	 SCS Opposite-Spin Energy  =      -1.6611279454165830 [Eh]
	 SCS Correlation Energy    =      -1.8134424410654353 [Eh]
	 SCS Total Energy          =    -453.4559309420105819 [Eh]
	-----------------------------------------------------------

  Dipole Moment: [D]
     X:     1.6351      Y:    -3.8973      Z:    -0.0001     Total:     4.2264

*** Psi4 exiting successfully. Buy a developer a beer!
