                               Psi4 1.3.2 release

  ==> Input File <==

--------------------------------------------------------------------------
#psi4
#
memory 32 gb

molecule  {
0 1
  N       -1.1265450    -1.2362860     0.0000060
  C        0.2308680    -1.4868800    -0.0000290
  C        1.1512880    -0.4934230    -0.0000150
  C        0.6802440     0.8910390    -0.0001390
  N       -0.7159090     1.0273040    -0.0000130
  C       -1.6820960     0.0327770     0.0001490
  C        2.6300190    -0.7237960     0.0000320
  O        1.4079770     1.8828460     0.0000440
  O       -2.8884570     0.2443790    -0.0000340
  H       -1.9295615    -2.1455007    -0.0000587
  H       -1.0703780     1.9806020    -0.0000270
  H        0.5071850    -2.5374850    -0.0000570
  H        3.0900470    -0.2640690    -0.8790850
  H        3.0900220    -0.2639380     0.8790930
  H        2.8593700    -1.7927480     0.0001130
units angstrom
no_reorient  #important for SAPT in psi4, default
symmetry c1  #important for SAPT in psi4, default
}

set PROPERTIES_ORIGIN ["COM"]
properties('MP2/aug-cc-pvtz', properties = ['dipole'])
--------------------------------------------------------------------------

    Molecular point group: c1
  Charge       = 0
  Multiplicity = 1
  Basis Set: AUG-CC-PVTZ
    Blend: AUG-CC-PVTZ
  Basis Set: (AUG-CC-PVTZ AUX)
    Blend: AUG-CC-PVTZ-JKFIT

    Orbital Energies [Eh]
    ---------------------

    Doubly Occupied:

       1A    -20.542409     2A    -20.541555     3A    -15.653159
       4A    -15.627789     5A    -11.416846     6A    -11.379585
       7A    -11.331041     8A    -11.260974     9A    -11.238462
      10A     -1.423979    11A     -1.390294    12A     -1.296477
      13A     -1.231752    14A     -1.103216    15A     -0.967564
      16A     -0.913524    17A     -0.877050    18A     -0.764691
      19A     -0.746025    20A     -0.701434    21A     -0.662893
      22A     -0.658058    23A     -0.637788    24A     -0.607536
      25A     -0.590062    26A     -0.565529    27A     -0.556096
      28A     -0.549485    29A     -0.508398    30A     -0.477796
      31A     -0.446895    32A     -0.433609    33A     -0.351726

  @DF-RHF Final Energy:  -451.64220661217161

   => Energetics <=

    Nuclear Repulsion Energy =            437.0707835630958584
    One-Electron Energy =               -1482.5185878936417794
    Two-Electron Energy =                 593.8055977183743153
    Total Energy =                       -451.6422066121716625
  Basis Set: (AUG-CC-PVTZ AUX)
    Blend: AUG-CC-PVTZ-RI
    Molecular point group: c1

    Geometry (in Angstrom), charge = 0, multiplicity = 1:

       Center              X                  Y                   Z               Mass
    ------------   -----------------  -----------------  -----------------  -----------------
         N           -1.072925312424    -1.273357107540     0.000005872600    14.003074004430
         C            0.284487687576    -1.523951107540    -0.000029127400    12.000000000000
         C            1.204907687576    -0.530494107540    -0.000015127400    12.000000000000
         C            0.733863687576     0.853967892460    -0.000139127400    12.000000000000
         N           -0.662289312424     0.990232892460    -0.000013127400    14.003074004430
         C           -1.628476312424    -0.004294107540     0.000148872600    12.000000000000
         C            2.683638687576    -0.760867107540     0.000031872600    12.000000000000
         O            1.461596687576     1.845774892460     0.000043872600    15.994914619570
         O           -2.834837312424     0.207307892460    -0.000034127400    15.994914619570
         H           -1.875941812424    -2.182571807540    -0.000058827400     1.007825032230
         H           -1.016758312424     1.943530892460    -0.000027127400     1.007825032230
         H            0.560804687576    -2.574556107540    -0.000057127400     1.007825032230
         H            3.143666687576    -0.301140107540    -0.879085127400     1.007825032230
         H            3.143641687576    -0.301009107540     0.879092872600     1.007825032230
         H            2.912989687576    -1.829819107540     0.000112872600     1.007825032230

  Basis Set: AUG-CC-PVTZ
    Blend: AUG-CC-PVTZ
  Basis Set: (AUG-CC-PVTZ AUX)
    Blend: AUG-CC-PVTZ-JKFIT
	 Reference Energy          =    -451.6422066121716057 [Eh]
	 Singles Energy            =      -0.0000000000000000 [Eh]
	 Same-Spin Energy          =      -0.4606283461270089 [Eh]
	 Opposite-Spin Energy      =      -1.3888236996771759 [Eh]
	 Correlation Energy        =      -1.8494520458041848 [Eh]
	 Total Energy              =    -453.4916586579757904 [Eh]

	 ================> DF-SCS-MP2 Energies <==================
	-----------------------------------------------------------
	 SCS Same-Spin Scale       =       0.3333333333333333 [-]
	 SCS Opposite-Spin Scale   =       1.2000000000000000 [-]
	 SCS Same-Spin Energy      =      -0.1535427820423363 [Eh]
	 SCS Opposite-Spin Energy  =      -1.6665884396126109 [Eh]
	 SCS Correlation Energy    =      -1.8201312216549472 [Eh]
	 SCS Total Energy          =    -453.4623378338265525 [Eh]
	-----------------------------------------------------------

  Dipole Moment: [D]
     X:     0.8397      Y:    -4.4176      Z:    -0.0001     Total:     4.4967

*** Psi4 exiting successfully. Buy a developer a beer!
