                               Psi4 1.4a3.dev225

  ==> Input File <==

--------------------------------------------------------------------------
#psi4
#
memory 32 gb

molecule  {
0 1
  N       -1.1263310    -1.2364150    -0.0000030
  C        0.2309450    -1.4868440     0.0000000
  C        1.1514300    -0.4932890    -0.0000070
  C        0.6802680     0.8910870    -0.0000240
  N       -0.7160800     1.0272360    -0.0000150
  C       -1.6820330     0.0328590    -0.0000240
  C        2.6795142    -0.7315293     0.0000085
  O        1.4075700     1.8832080     0.0000170
  O       -2.8884930     0.2440480     0.0000250
  H       -1.7968290    -1.9958110     0.0000150
  H       -1.0704590     1.9805630     0.0000060
  H        0.5076420    -2.5373850     0.0000160
  H        3.0901790    -0.2641310    -0.8791000
  H        3.0901670    -0.2640930     0.8791020
  H        2.8592340    -1.7928420     0.0000320
units angstrom
no_reorient  #important for SAPT in psi4, default
symmetry c1  #important for SAPT in psi4, default
}

set PROPERTIES_ORIGIN ["COM"]
properties('MP2/aug-cc-pvtz', properties = ['dipole'])
--------------------------------------------------------------------------

    Molecular point group: c1
  Charge       = 0
  Multiplicity = 1
  Basis Set: AUG-CC-PVTZ
    Blend: AUG-CC-PVTZ
  Basis Set: (AUG-CC-PVTZ AUX)
    Blend: AUG-CC-PVTZ-JKFIT

    Orbital Energies [Eh]
    ---------------------

    Doubly Occupied:

       1A    -20.544300     2A    -20.542682     3A    -15.640228
       4A    -15.628298     5A    -11.418002     6A    -11.380857
       7A    -11.331740     8A    -11.264150     9A    -11.239256
      10A     -1.427076    11A     -1.391608    12A     -1.304599
      13A     -1.239845    14A     -1.102297    15A     -0.969807
      16A     -0.915756    17A     -0.893524    18A     -0.770196
      19A     -0.764105    20A     -0.706990    21A     -0.673964
      22A     -0.664614    23A     -0.639225    24A     -0.616587
      25A     -0.595460    26A     -0.562551    27A     -0.559582
      28A     -0.552157    29A     -0.512650    30A     -0.478860
      31A     -0.447865    32A     -0.434602    33A     -0.355457

  @DF-RHF Final Energy:  -451.67100364705539

   => Energetics <=

    Nuclear Repulsion Energy =            437.3053867571436513
    One-Electron Energy =               -1482.8150010274616761
    Two-Electron Energy =                 593.8386106232626389
    Total Energy =                       -451.6710036470553860
  Basis Set: (AUG-CC-PVTZ AUX)
    Blend: AUG-CC-PVTZ-RI
    Molecular point group: c1

    Geometry (in Angstrom), charge = 0, multiplicity = 1:

       Center              X                  Y                   Z               Mass
    ------------   -----------------  -----------------  -----------------  -----------------
         N           -1.078466676738    -1.273955365978    -0.000002470709    14.003074004430
         C            0.278809323262    -1.524384365978     0.000000529291    12.000000000000
         C            1.199294323262    -0.530829365978    -0.000006470709    12.000000000000
         C            0.728132323262     0.853546634022    -0.000023470709    12.000000000000
         N           -0.668215676738     0.989695634022    -0.000014470709    14.003074004430
         C           -1.634168676738    -0.004681365978    -0.000023470709    12.000000000000
         C            2.727378523262    -0.769069665978     0.000009029291    12.000000000000
         O            1.455434323262     1.845667634022     0.000017529291    15.994914619570
         O           -2.840628676738     0.206507634022     0.000025529291    15.994914619570
         H           -1.748964676738    -2.033351365978     0.000015529291     1.007825032230
         H           -1.022594676738     1.943022634022     0.000006529291     1.007825032230
         H            0.555506323262    -2.574925365978     0.000016529291     1.007825032230
         H            3.138043323262    -0.301671365978    -0.879099470709     1.007825032230
         H            3.138031323262    -0.301633365978     0.879102529291     1.007825032230
         H            2.907098323262    -1.830382365978     0.000032529291     1.007825032230

  Basis Set: AUG-CC-PVTZ
    Blend: AUG-CC-PVTZ
  Basis Set: (AUG-CC-PVTZ AUX)
    Blend: AUG-CC-PVTZ-JKFIT
	 Reference Energy          =    -451.6710036470553860 [Eh]
	 Singles Energy            =      -0.0000000000000000 [Eh]
	 Same-Spin Energy          =      -0.4585757476427235 [Eh]
	 Opposite-Spin Energy      =      -1.3844578776174061 [Eh]
	 Correlation Energy        =      -1.8430336252601296 [Eh]
	 Total Energy              =    -453.5140372723155338 [Eh]

	 ================> DF-SCS-MP2 Energies <==================
	-----------------------------------------------------------
	 SCS Same-Spin Scale       =       0.3333333333333333 [-]
	 SCS Opposite-Spin Scale   =       1.2000000000000000 [-]
	 SCS Same-Spin Energy      =      -0.1528585825475745 [Eh]
	 SCS Opposite-Spin Energy  =      -1.6613494531408872 [Eh]
	 SCS Correlation Energy    =      -1.8142080356884618 [Eh]
	 SCS Total Energy          =    -453.4852116827438522 [Eh]
	-----------------------------------------------------------

  Dipole Moment: [D]
     X:     1.0506      Y:    -4.1977      Z:    -0.0001     Total:     4.3272

*** Psi4 exiting successfully. Buy a developer a beer!
