                               Psi4 1.3.2 release

  ==> Input File <==

--------------------------------------------------------------------------
#psi4
#
memory 32 gb

molecule  {
0 1
  N       -1.1265450    -1.2362860     0.0000060
  C        0.2308680    -1.4868800    -0.0000290
  C        1.1512880    -0.4934230    -0.0000150
  C        0.6824095     0.9154260    -0.0001409
  N       -0.7159090     1.0273040    -0.0000130
  C       -1.6820960     0.0327770     0.0001490
  C        2.6300190    -0.7237960     0.0000320
  O        1.4079770     1.8828460     0.0000440
  O       -2.8884570     0.2443790    -0.0000340
  H       -1.7971660    -1.9955960    -0.0000480
  H       -1.0703780     1.9806020    -0.0000270
  H        0.5071850    -2.5374850    -0.0000570
  H        3.0900470    -0.2640690    -0.8790850
  H        3.0900220    -0.2639380     0.8790930
  H        2.8593700    -1.7927480     0.0001130
units angstrom
no_reorient  #important for SAPT in psi4, default
symmetry c1  #important for SAPT in psi4, default
}

set PROPERTIES_ORIGIN ["COM"]
properties('MP2/aug-cc-pvtz', properties = ['dipole'])
--------------------------------------------------------------------------

    Molecular point group: c1
  Charge       = 0
  Multiplicity = 1
  Basis Set: AUG-CC-PVTZ
    Blend: AUG-CC-PVTZ
  Basis Set: (AUG-CC-PVTZ AUX)
    Blend: AUG-CC-PVTZ-JKFIT

    Orbital Energies [Eh]
    ---------------------

    Doubly Occupied:

       1A    -20.547370     2A    -20.543905     3A    -15.638261
       4A    -15.627316     5A    -11.417887     6A    -11.381168
       7A    -11.328572     8A    -11.262428     9A    -11.238743
      10A     -1.428734    11A     -1.404054    12A     -1.303956
      13A     -1.240745    14A     -1.103963    15A     -0.968719
      16A     -0.910532    17A     -0.894112    18A     -0.768692
      19A     -0.763122    20A     -0.705203    21A     -0.677431
      22A     -0.664531    23A     -0.640734    24A     -0.619709
      25A     -0.591636    26A     -0.568259    27A     -0.562874
      28A     -0.551768    29A     -0.509972    30A     -0.478808
      31A     -0.449233    32A     -0.437481    33A     -0.352650

  @DF-RHF Final Energy:  -451.67350382295245

   => Energetics <=

    Nuclear Repulsion Energy =            438.1184595713889394
    One-Electron Energy =               -1484.4187863017887139
    Two-Electron Energy =                 594.6268229074473766
    Total Energy =                       -451.6735038229523980
  Basis Set: (AUG-CC-PVTZ AUX)
    Blend: AUG-CC-PVTZ-RI
    Molecular point group: c1

    Geometry (in Angstrom), charge = 0, multiplicity = 1:

       Center              X                  Y                   Z               Mass
    ------------   -----------------  -----------------  -----------------  -----------------
         N           -1.074190099765    -1.276877509026     0.000005967935    14.003074004430
         C            0.283222900235    -1.527471509026    -0.000029032065    12.000000000000
         C            1.203642900235    -0.534014509026    -0.000015032065    12.000000000000
         C            0.734764400235     0.874834490974    -0.000140932065    12.000000000000
         N           -0.663554099765     0.986712490974    -0.000013032065    14.003074004430
         C           -1.629741099765    -0.007814509026     0.000148967935    12.000000000000
         C            2.682373900235    -0.764387509026     0.000031967935    12.000000000000
         O            1.460331900235     1.842254490974     0.000043967935    15.994914619570
         O           -2.836102099765     0.203787490974    -0.000034032065    15.994914619570
         H           -1.744811099765    -2.036187509026    -0.000048032065     1.007825032230
         H           -1.018023099765     1.940010490974    -0.000027032065     1.007825032230
         H            0.559539900235    -2.578076509026    -0.000057032065     1.007825032230
         H            3.142401900235    -0.304660509026    -0.879085032065     1.007825032230
         H            3.142376900235    -0.304529509026     0.879092967935     1.007825032230
         H            2.911724900235    -1.833339509026     0.000112967935     1.007825032230

  Basis Set: AUG-CC-PVTZ
    Blend: AUG-CC-PVTZ
  Basis Set: (AUG-CC-PVTZ AUX)
    Blend: AUG-CC-PVTZ-JKFIT
	 Reference Energy          =    -451.6735038229524548 [Eh]
	 Singles Energy            =      -0.0000000000000000 [Eh]
	 Same-Spin Energy          =      -0.4583286551521255 [Eh]
	 Opposite-Spin Energy      =      -1.3837008088144960 [Eh]
	 Correlation Energy        =      -1.8420294639666215 [Eh]
	 Total Energy              =    -453.5155332869190943 [Eh]

	 ================> DF-SCS-MP2 Energies <==================
	-----------------------------------------------------------
	 SCS Same-Spin Scale       =       0.3333333333333333 [-]
	 SCS Opposite-Spin Scale   =       1.2000000000000000 [-]
	 SCS Same-Spin Energy      =      -0.1527762183840418 [Eh]
	 SCS Opposite-Spin Energy  =      -1.6604409705773950 [Eh]
	 SCS Correlation Energy    =      -1.8132171889614368 [Eh]
	 SCS Total Energy          =    -453.4867210119139145 [Eh]
	-----------------------------------------------------------

  Dipole Moment: [D]
     X:     1.1020      Y:    -4.0175      Z:    -0.0001     Total:     4.1659

*** Psi4 exiting successfully. Buy a developer a beer!
