                               Psi4 1.3.2 release

  ==> Input File <==

--------------------------------------------------------------------------
#psi4
#
memory 32 gb

molecule  {
0 1
  N       -1.1265450    -1.2362860     0.0000060
  C        0.2308680    -1.4868800    -0.0000290
  C        1.1512880    -0.4934230    -0.0000150
  C        0.6841491     0.9398470    -0.0001427
  N       -0.7159090     1.0273040    -0.0000130
  C       -1.6820960     0.0327770     0.0001490
  C        2.6300190    -0.7237960     0.0000320
  O        1.4079770     1.8828460     0.0000440
  O       -2.8884570     0.2443790    -0.0000340
  H       -1.7971660    -1.9955960    -0.0000480
  H       -1.0703780     1.9806020    -0.0000270
  H        0.5071850    -2.5374850    -0.0000570
  H        3.0900470    -0.2640690    -0.8790850
  H        3.0900220    -0.2639380     0.8790930
  H        2.8593700    -1.7927480     0.0001130
units angstrom
no_reorient  #important for SAPT in psi4, default
symmetry c1  #important for SAPT in psi4, default
}

set PROPERTIES_ORIGIN ["COM"]
properties('MP2/aug-cc-pvtz', properties = ['dipole'])
--------------------------------------------------------------------------

    Molecular point group: c1
  Charge       = 0
  Multiplicity = 1
  Basis Set: AUG-CC-PVTZ
    Blend: AUG-CC-PVTZ
  Basis Set: (AUG-CC-PVTZ AUX)
    Blend: AUG-CC-PVTZ-JKFIT

    Orbital Energies [Eh]
    ---------------------

    Doubly Occupied:

       1A    -20.551389     2A    -20.543257     3A    -15.635993
       4A    -15.626095     5A    -11.417520     6A    -11.381099
       7A    -11.325144     8A    -11.261756     9A    -11.237921
      10A     -1.433906    11A     -1.412843    12A     -1.302745
      13A     -1.241090    14A     -1.099951    15A     -0.967314
      16A     -0.905732    17A     -0.894742    18A     -0.766698
      19A     -0.760931    20A     -0.703116    21A     -0.681382
      22A     -0.664192    23A     -0.641534    24A     -0.621723
      25A     -0.592335    26A     -0.568174    27A     -0.567506
      28A     -0.551883    29A     -0.508726    30A     -0.477853
      31A     -0.449015    32A     -0.439899    33A     -0.350691

  @DF-RHF Final Energy:  -451.67254794529845

   => Energetics <=

    Nuclear Repulsion Energy =            438.0567783070032988
    One-Electron Energy =               -1484.2903396032468208
    Two-Electron Energy =                 594.5610133509451316
    Total Energy =                       -451.6725479452984473
  Basis Set: (AUG-CC-PVTZ AUX)
    Blend: AUG-CC-PVTZ-RI
    Molecular point group: c1

    Geometry (in Angstrom), charge = 0, multiplicity = 1:

       Center              X                  Y                   Z               Mass
    ------------   -----------------  -----------------  -----------------  -----------------
         N           -1.074355719530    -1.279202526430     0.000006139305    14.003074004430
         C            0.283057280470    -1.529796526430    -0.000028860695    12.000000000000
         C            1.203477280470    -0.536339526430    -0.000014860695    12.000000000000
         C            0.736338380470     0.896930473570    -0.000142560695    12.000000000000
         N           -0.663719719530     0.984387473570    -0.000012860695    14.003074004430
         C           -1.629906719530    -0.010139526430     0.000149139305    12.000000000000
         C            2.682208280470    -0.766712526430     0.000032139305    12.000000000000
         O            1.460166280470     1.839929473570     0.000044139305    15.994914619570
         O           -2.836267719530     0.201462473570    -0.000033860695    15.994914619570
         H           -1.744976719530    -2.038512526430    -0.000047860695     1.007825032230
         H           -1.018188719530     1.937685473570    -0.000026860695     1.007825032230
         H            0.559374280470    -2.580401526430    -0.000056860695     1.007825032230
         H            3.142236280470    -0.306985526430    -0.879084860695     1.007825032230
         H            3.142211280470    -0.306854526430     0.879093139305     1.007825032230
         H            2.911559280470    -1.835664526430     0.000113139305     1.007825032230

  Basis Set: AUG-CC-PVTZ
    Blend: AUG-CC-PVTZ
  Basis Set: (AUG-CC-PVTZ AUX)
    Blend: AUG-CC-PVTZ-JKFIT
	 Reference Energy          =    -451.6725479452984473 [Eh]
	 Singles Energy            =      -0.0000000000000000 [Eh]
	 Same-Spin Energy          =      -0.4577473240495001 [Eh]
	 Opposite-Spin Energy      =      -1.3827338133637515 [Eh]
	 Correlation Energy        =      -1.8404811374132515 [Eh]
	 Total Energy              =    -453.5130290827116823 [Eh]

	 ================> DF-SCS-MP2 Energies <==================
	-----------------------------------------------------------
	 SCS Same-Spin Scale       =       0.3333333333333333 [-]
	 SCS Opposite-Spin Scale   =       1.2000000000000000 [-]
	 SCS Same-Spin Energy      =      -0.1525824413498333 [Eh]
	 SCS Opposite-Spin Energy  =      -1.6592805760365017 [Eh]
	 SCS Correlation Energy    =      -1.8118630173863350 [Eh]
	 SCS Total Energy          =    -453.4844109626847626 [Eh]
	-----------------------------------------------------------

  Dipole Moment: [D]
     X:     1.1668      Y:    -3.8426      Z:    -0.0001     Total:     4.0158

*** Psi4 exiting successfully. Buy a developer a beer!
