                               Psi4 1.3.2 release

  ==> Input File <==

--------------------------------------------------------------------------
#psi4
#
memory 32 gb

molecule  {
0 1
  N       -1.1265450    -1.2362860     0.0000060
  C        0.2308680    -1.4868800    -0.0000290
  C        1.1512880    -0.4934230    -0.0000150
  C        0.6802440     0.8910390    -0.0001390
  N       -0.7159090     1.0273040    -0.0000130
  C       -1.6820960     0.0327770     0.0001490
  C        2.6300190    -0.7237960     0.0000320
  O        1.4079770     1.8828460     0.0000440
  O       -2.8884570     0.2443790    -0.0000340
  H       -1.7971660    -1.9955960    -0.0000480
  H       -1.0703780     1.9806020    -0.0000270
  H        0.5071850    -2.5374850    -0.0000570
  H        3.0900470    -0.2640690    -0.8790850
  H        3.0900220    -0.2639380     0.8790930
  H        2.8593700    -1.7927480     0.0001130
units angstrom
no_reorient  #important for SAPT in psi4, default
symmetry c1  #important for SAPT in psi4, default
}

set PROPERTIES_ORIGIN ["COM"]
properties('MP2/aug-cc-pvtz', properties = ['dipole'])
--------------------------------------------------------------------------

    Molecular point group: c1
  Charge       = 0
  Multiplicity = 1
  Basis Set: AUG-CC-PVTZ
    Blend: AUG-CC-PVTZ
  Basis Set: (AUG-CC-PVTZ AUX)
    Blend: AUG-CC-PVTZ-JKFIT

    Orbital Energies [Eh]
    ---------------------

    Doubly Occupied:

       1A    -20.544582     2A    -20.543234     3A    -15.640621
       4A    -15.628610     5A    -11.418294     6A    -11.381133
       7A    -11.332069     8A    -11.262865     9A    -11.239540
      10A     -1.427431    11A     -1.392134    12A     -1.305028
      13A     -1.240192    14A     -1.108095    15A     -0.970131
      16A     -0.915418    17A     -0.893465    18A     -0.770827
      19A     -0.765447    20A     -0.707393    21A     -0.674445
      22A     -0.665151    23A     -0.640200    24A     -0.616471
      25A     -0.591525    26A     -0.568617    27A     -0.558105
      28A     -0.551863    29A     -0.511230    30A     -0.479465
      31A     -0.448496    32A     -0.434836    33A     -0.354509

  @DF-RHF Final Energy:  -451.67247691800065

   => Energetics <=

    Nuclear Repulsion Energy =            438.1931989111443499
    One-Electron Energy =               -1484.5685044747287975
    Two-Electron Energy =                 594.7028286455837360
    Total Energy =                       -451.6724769180005978
  Basis Set: (AUG-CC-PVTZ AUX)
    Blend: AUG-CC-PVTZ-RI
    Molecular point group: c1

    Geometry (in Angstrom), charge = 0, multiplicity = 1:

       Center              X                  Y                   Z               Mass
    ------------   -----------------  -----------------  -----------------  -----------------
         N           -1.073983931910    -1.274555728614     0.000005787044    14.003074004430
         C            0.283429068090    -1.525149728614    -0.000029212956    12.000000000000
         C            1.203849068090    -0.531692728614    -0.000015212956    12.000000000000
         C            0.732805068090     0.852769271386    -0.000139212956    12.000000000000
         N           -0.663347931910     0.989034271386    -0.000013212956    14.003074004430
         C           -1.629534931910    -0.005492728614     0.000148787044    12.000000000000
         C            2.682580068090    -0.762065728614     0.000031787044    12.000000000000
         O            1.460538068090     1.844576271386     0.000043787044    15.994914619570
         O           -2.835895931910     0.206109271386    -0.000034212956    15.994914619570
         H           -1.744604931910    -2.033865728614    -0.000048212956     1.007825032230
         H           -1.017816931910     1.942332271386    -0.000027212956     1.007825032230
         H            0.559746068090    -2.575754728614    -0.000057212956     1.007825032230
         H            3.142608068090    -0.302338728614    -0.879085212956     1.007825032230
         H            3.142583068090    -0.302207728614     0.879092787044     1.007825032230
         H            2.911931068090    -1.831017728614     0.000112787044     1.007825032230

  Basis Set: AUG-CC-PVTZ
    Blend: AUG-CC-PVTZ
  Basis Set: (AUG-CC-PVTZ AUX)
    Blend: AUG-CC-PVTZ-JKFIT
	 Reference Energy          =    -451.6724769180006547 [Eh]
	 Singles Energy            =      -0.0000000000000000 [Eh]
	 Same-Spin Energy          =      -0.4589645531414405 [Eh]
	 Opposite-Spin Energy      =      -1.3847595752300397 [Eh]
	 Correlation Energy        =      -1.8437241283714803 [Eh]
	 Total Energy              =    -453.5162010463721458 [Eh]

	 ================> DF-SCS-MP2 Energies <==================
	-----------------------------------------------------------
	 SCS Same-Spin Scale       =       0.3333333333333333 [-]
	 SCS Opposite-Spin Scale   =       1.2000000000000000 [-]
	 SCS Same-Spin Energy      =      -0.1529881843804802 [Eh]
	 SCS Opposite-Spin Energy  =      -1.6617114902760475 [Eh]
	 SCS Correlation Energy    =      -1.8146996746565276 [Eh]
	 SCS Total Energy          =    -453.4871765926571925 [Eh]
	-----------------------------------------------------------

  Dipole Moment: [D]
     X:     1.0364      Y:    -4.1876      Z:    -0.0001     Total:     4.3139

*** Psi4 exiting successfully. Buy a developer a beer!
