                               Psi4 1.3.2 release

  ==> Input File <==

--------------------------------------------------------------------------
#psi4
#
memory 32 gb

molecule  {
0 1
  N       -1.1265450    -1.2362860     0.0000060
  C        0.2212955    -1.5341004    -0.0000342
  C        1.1512880    -0.4934230    -0.0000150
  C        0.6802440     0.8910390    -0.0001390
  N       -0.7159090     1.0273040    -0.0000130
  C       -1.6820960     0.0327770     0.0001490
  C        2.6300190    -0.7237960     0.0000320
  O        1.4079770     1.8828460     0.0000440
  O       -2.8884570     0.2443790    -0.0000340
  H       -1.7971660    -1.9955960    -0.0000480
  H       -1.0703780     1.9806020    -0.0000270
  H        0.5071850    -2.5374850    -0.0000570
  H        3.0900470    -0.2640690    -0.8790850
  H        3.0900220    -0.2639380     0.8790930
  H        2.8593700    -1.7927480     0.0001130
units angstrom
no_reorient  #important for SAPT in psi4, default
symmetry c1  #important for SAPT in psi4, default
}

set PROPERTIES_ORIGIN ["COM"]
properties('MP2/aug-cc-pvtz', properties = ['dipole'])
--------------------------------------------------------------------------

    Molecular point group: c1
  Charge       = 0
  Multiplicity = 1
  Basis Set: AUG-CC-PVTZ
    Blend: AUG-CC-PVTZ
  Basis Set: (AUG-CC-PVTZ AUX)
    Blend: AUG-CC-PVTZ-JKFIT

    Orbital Energies [Eh]
    ---------------------

    Doubly Occupied:

       1A    -20.545328     2A    -20.542336     3A    -15.642313
       4A    -15.628776     5A    -11.419840     6A    -11.380861
       7A    -11.335862     8A    -11.267140     9A    -11.238432
      10A     -1.427621    11A     -1.391631    12A     -1.304744
      13A     -1.240877    14A     -1.100894    15A     -0.971303
      16A     -0.918349    17A     -0.891926    18A     -0.767020
      19A     -0.765333    20A     -0.718004    21A     -0.673356
      22A     -0.664383    23A     -0.642414    24A     -0.618861
      25A     -0.590483    26A     -0.565591    27A     -0.557682
      28A     -0.549687    29A     -0.510434    30A     -0.481551
      31A     -0.448220    32A     -0.434714    33A     -0.347401

  @DF-RHF Final Energy:  -451.66671512691266

   => Energetics <=

    Nuclear Repulsion Energy =            437.3417776200586786
    One-Electron Energy =               -1482.8502456269611685
    Two-Electron Energy =                 593.8417528799899401
    Total Energy =                       -451.6667151269126634
  Basis Set: (AUG-CC-PVTZ AUX)
    Blend: AUG-CC-PVTZ-RI
    Molecular point group: c1

    Geometry (in Angstrom), charge = 0, multiplicity = 1:

       Center              X                  Y                   Z               Mass
    ------------   -----------------  -----------------  -----------------  -----------------
         N           -1.073072575737    -1.270060079302     0.000006282114    14.003074004430
         C            0.274767924263    -1.567874479302    -0.000033917886    12.000000000000
         C            1.204760424263    -0.527197079302    -0.000014717886    12.000000000000
         C            0.733716424263     0.857264920698    -0.000138717886    12.000000000000
         N           -0.662436575737     0.993529920698    -0.000012717886    14.003074004430
         C           -1.628623575737    -0.000997079302     0.000149282114    12.000000000000
         C            2.683491424263    -0.757570079302     0.000032282114    12.000000000000
         O            1.461449424263     1.849071920698     0.000044282114    15.994914619570
         O           -2.834984575737     0.210604920698    -0.000033717886    15.994914619570
         H           -1.743693575737    -2.029370079302    -0.000047717886     1.007825032230
         H           -1.016905575737     1.946827920698    -0.000026717886     1.007825032230
         H            0.560657424263    -2.571259079302    -0.000056717886     1.007825032230
         H            3.143519424263    -0.297843079302    -0.879084717886     1.007825032230
         H            3.143494424263    -0.297712079302     0.879093282114     1.007825032230
         H            2.912842424263    -1.826522079302     0.000113282114     1.007825032230

  Basis Set: AUG-CC-PVTZ
    Blend: AUG-CC-PVTZ
  Basis Set: (AUG-CC-PVTZ AUX)
    Blend: AUG-CC-PVTZ-JKFIT
	 Reference Energy          =    -451.6667151269126634 [Eh]
	 Singles Energy            =      -0.0000000000000000 [Eh]
	 Same-Spin Energy          =      -0.4595840572294784 [Eh]
	 Opposite-Spin Energy      =      -1.3860743681690371 [Eh]
	 Correlation Energy        =      -1.8456584253985155 [Eh]
	 Total Energy              =    -453.5123735523112032 [Eh]

	 ================> DF-SCS-MP2 Energies <==================
	-----------------------------------------------------------
	 SCS Same-Spin Scale       =       0.3333333333333333 [-]
	 SCS Opposite-Spin Scale   =       1.2000000000000000 [-]
	 SCS Same-Spin Energy      =      -0.1531946857431595 [Eh]
	 SCS Opposite-Spin Energy  =      -1.6632892418028444 [Eh]
	 SCS Correlation Energy    =      -1.8164839275460039 [Eh]
	 SCS Total Energy          =    -453.4831990544586802 [Eh]
	-----------------------------------------------------------

  Dipole Moment: [D]
     X:     1.0053      Y:    -4.2386      Z:    -0.0001     Total:     4.3562

*** Psi4 exiting successfully. Buy a developer a beer!
