                               Psi4 1.3.2 release

  ==> Input File <==

--------------------------------------------------------------------------
#psi4
#
memory 32 gb

molecule  {
0 1
  N       -1.1487778    -1.2457884     0.0000101
  C        0.2308680    -1.4868800    -0.0000290
  C        1.1512880    -0.4934230    -0.0000150
  C        0.6802440     0.8910390    -0.0001390
  N       -0.7159090     1.0273040    -0.0000130
  C       -1.6820960     0.0327770     0.0001490
  C        2.6300190    -0.7237960     0.0000320
  O        1.4079770     1.8828460     0.0000440
  O       -2.8884570     0.2443790    -0.0000340
  H       -1.7971660    -1.9955960    -0.0000480
  H       -1.0703780     1.9806020    -0.0000270
  H        0.5071850    -2.5374850    -0.0000570
  H        3.0900470    -0.2640690    -0.8790850
  H        3.0900220    -0.2639380     0.8790930
  H        2.8593700    -1.7927480     0.0001130
units angstrom
no_reorient  #important for SAPT in psi4, default
symmetry c1  #important for SAPT in psi4, default
}

set PROPERTIES_ORIGIN ["COM"]
properties('MP2/aug-cc-pvtz', properties = ['dipole'])
--------------------------------------------------------------------------

    Molecular point group: c1
  Charge       = 0
  Multiplicity = 1
  Basis Set: AUG-CC-PVTZ
    Blend: AUG-CC-PVTZ
  Basis Set: (AUG-CC-PVTZ AUX)
    Blend: AUG-CC-PVTZ-JKFIT

    Orbital Energies [Eh]
    ---------------------

    Doubly Occupied:

       1A    -20.544674     2A    -20.542655     3A    -15.638270
       4A    -15.629240     5A    -11.417318     6A    -11.382236
       7A    -11.333241     8A    -11.265066     9A    -11.240658
      10A     -1.426526    11A     -1.392983    12A     -1.300701
      13A     -1.240203    14A     -1.109375    15A     -0.968858
      16A     -0.914686    17A     -0.895739    18A     -0.771902
      19A     -0.764974    20A     -0.705850    21A     -0.677481
      22A     -0.663734    23A     -0.638545    24A     -0.618451
      25A     -0.592276    26A     -0.569564    27A     -0.558206
      28A     -0.553034    29A     -0.508217    30A     -0.478053
      31A     -0.449183    32A     -0.435066    33A     -0.356800

  @DF-RHF Final Energy:  -451.67241733370338

   => Energetics <=

    Nuclear Repulsion Energy =            437.7813423909585140
    One-Electron Energy =               -1483.7399884418944112
    Two-Electron Energy =                 594.2862287172324613
    Total Energy =                       -451.6724173337033790
  Basis Set: (AUG-CC-PVTZ AUX)
    Blend: AUG-CC-PVTZ-RI
    Molecular point group: c1

    Geometry (in Angstrom), charge = 0, multiplicity = 1:

       Center              X                  Y                   Z               Mass
    ------------   -----------------  -----------------  -----------------  -----------------
         N           -1.093746719907    -1.283002434232     0.000009431544    14.003074004430
         C            0.285899080093    -1.524094034232    -0.000029668456    12.000000000000
         C            1.206319080093    -0.530637034232    -0.000015668456    12.000000000000
         C            0.735275080093     0.853824965768    -0.000139668456    12.000000000000
         N           -0.660877919907     0.990089965768    -0.000013668456    14.003074004430
         C           -1.627064919907    -0.004437034232     0.000148331544    12.000000000000
         C            2.685050080093    -0.761010034232     0.000031331544    12.000000000000
         O            1.463008080093     1.845631965768     0.000043331544    15.994914619570
         O           -2.833425919907     0.207164965768    -0.000034668456    15.994914619570
         H           -1.742134919907    -2.032810034232    -0.000048668456     1.007825032230
         H           -1.015346919907     1.943387965768    -0.000027668456     1.007825032230
         H            0.562216080093    -2.574699034232    -0.000057668456     1.007825032230
         H            3.145078080093    -0.301283034232    -0.879085668456     1.007825032230
         H            3.145053080093    -0.301152034232     0.879092331544     1.007825032230
         H            2.914401080093    -1.829962034232     0.000112331544     1.007825032230

  Basis Set: AUG-CC-PVTZ
    Blend: AUG-CC-PVTZ
  Basis Set: (AUG-CC-PVTZ AUX)
    Blend: AUG-CC-PVTZ-JKFIT
	 Reference Energy          =    -451.6724173337033790 [Eh]
	 Singles Energy            =      -0.0000000000000000 [Eh]
	 Same-Spin Energy          =      -0.4585065014114021 [Eh]
	 Opposite-Spin Energy      =      -1.3843911385561263 [Eh]
	 Correlation Energy        =      -1.8428976399675283 [Eh]
	 Total Energy              =    -453.5153149736709111 [Eh]

	 ================> DF-SCS-MP2 Energies <==================
	-----------------------------------------------------------
	 SCS Same-Spin Scale       =       0.3333333333333333 [-]
	 SCS Opposite-Spin Scale   =       1.2000000000000000 [-]
	 SCS Same-Spin Energy      =      -0.1528355004704673 [Eh]
	 SCS Opposite-Spin Energy  =      -1.6612693662673514 [Eh]
	 SCS Correlation Energy    =      -1.8141048667378188 [Eh]
	 SCS Total Energy          =    -453.4865222004411862 [Eh]
	-----------------------------------------------------------

  Dipole Moment: [D]
     X:     1.1382      Y:    -4.1401      Z:    -0.0001     Total:     4.2937

*** Psi4 exiting successfully. Buy a developer a beer!
