                               Psi4 1.3.2 release

  ==> Input File <==

--------------------------------------------------------------------------
#psi4
#
memory 32 gb

molecule  {
0 1
  N       -1.1057579    -1.1422081     0.0000086
  C        0.2308680    -1.4868800    -0.0000290
  C        1.1512880    -0.4934230    -0.0000150
  C        0.6802440     0.8910390    -0.0001390
  N       -0.7159090     1.0273040    -0.0000130
  C       -1.6820960     0.0327770     0.0001490
  C        2.6300190    -0.7237960     0.0000320
  O        1.4079770     1.8828460     0.0000440
  O       -2.8884570     0.2443790    -0.0000340
  H       -1.7971660    -1.9955960    -0.0000480
  H       -1.0703780     1.9806020    -0.0000270
  H        0.5071850    -2.5374850    -0.0000570
  H        3.0900470    -0.2640690    -0.8790850
  H        3.0900220    -0.2639380     0.8790930
  H        2.8593700    -1.7927480     0.0001130
units angstrom
no_reorient  #important for SAPT in psi4, default
symmetry c1  #important for SAPT in psi4, default
}

set PROPERTIES_ORIGIN ["COM"]
properties('MP2/aug-cc-pvtz', properties = ['dipole'])
--------------------------------------------------------------------------

    Molecular point group: c1
  Charge       = 0
  Multiplicity = 1
  Basis Set: AUG-CC-PVTZ
    Blend: AUG-CC-PVTZ
  Basis Set: (AUG-CC-PVTZ AUX)
    Blend: AUG-CC-PVTZ-JKFIT

    Orbital Energies [Eh]
    ---------------------

    Doubly Occupied:

       1A    -20.542190     2A    -20.535267     3A    -15.645581
       4A    -15.622536     5A    -11.407417     6A    -11.380612
       7A    -11.333928     8A    -11.266458     9A    -11.241095
      10A     -1.431019    11A     -1.390808    12A     -1.312446
      13A     -1.234293    14A     -1.113842    15A     -0.981934
      16A     -0.919129    17A     -0.885952    18A     -0.775840
      19A     -0.756811    20A     -0.707695    21A     -0.673672
      22A     -0.660270    23A     -0.641129    24A     -0.612796
      25A     -0.594162    26A     -0.567358    27A     -0.558852
      28A     -0.551476    29A     -0.506251    30A     -0.478032
      31A     -0.446271    32A     -0.431949    33A     -0.357241

  @DF-RHF Final Energy:  -451.65785229102011

   => Energetics <=

    Nuclear Repulsion Energy =            440.2489757354264839
    One-Electron Energy =               -1488.6850313472205016
    Two-Electron Energy =                 596.7782033207738550
    Total Energy =                       -451.6578522910201627
  Basis Set: (AUG-CC-PVTZ AUX)
    Blend: AUG-CC-PVTZ-RI
    Molecular point group: c1

    Geometry (in Angstrom), charge = 0, multiplicity = 1:

       Center              X                  Y                   Z               Mass
    ------------   -----------------  -----------------  -----------------  -----------------
         N           -1.055506230030    -1.190929662942     0.000008098190    14.003074004430
         C            0.281119669970    -1.535601562942    -0.000029501810    12.000000000000
         C            1.201539669970    -0.542144562942    -0.000015501810    12.000000000000
         C            0.730495669970     0.842317437058    -0.000139501810    12.000000000000
         N           -0.665657330030     0.978582437058    -0.000013501810    14.003074004430
         C           -1.631844330030    -0.015944562942     0.000148498190    12.000000000000
         C            2.680270669970    -0.772517562942     0.000031498190    12.000000000000
         O            1.458228669970     1.834124437058     0.000043498190    15.994914619570
         O           -2.838205330030     0.195657437058    -0.000034501810    15.994914619570
         H           -1.746914330030    -2.044317562942    -0.000048501810     1.007825032230
         H           -1.020126330030     1.931880437058    -0.000027501810     1.007825032230
         H            0.557436669970    -2.586206562942    -0.000057501810     1.007825032230
         H            3.140298669970    -0.312790562942    -0.879085501810     1.007825032230
         H            3.140273669970    -0.312659562942     0.879092498190     1.007825032230
         H            2.909621669970    -1.841469562942     0.000112498190     1.007825032230

  Basis Set: AUG-CC-PVTZ
    Blend: AUG-CC-PVTZ
  Basis Set: (AUG-CC-PVTZ AUX)
    Blend: AUG-CC-PVTZ-JKFIT
	 Reference Energy          =    -451.6578522910201059 [Eh]
	 Singles Energy            =      -0.0000000000000000 [Eh]
	 Same-Spin Energy          =      -0.4600425803015807 [Eh]
	 Opposite-Spin Energy      =      -1.3860606221843752 [Eh]
	 Correlation Energy        =      -1.8461032024859558 [Eh]
	 Total Energy              =    -453.5039554935060551 [Eh]

	 ================> DF-SCS-MP2 Energies <==================
	-----------------------------------------------------------
	 SCS Same-Spin Scale       =       0.3333333333333333 [-]
	 SCS Opposite-Spin Scale   =       1.2000000000000000 [-]
	 SCS Same-Spin Energy      =      -0.1533475267671935 [Eh]
	 SCS Opposite-Spin Energy  =      -1.6632727466212502 [Eh]
	 SCS Correlation Energy    =      -1.8166202733884438 [Eh]
	 SCS Total Energy          =    -453.4744725644085293 [Eh]
	-----------------------------------------------------------

  Dipole Moment: [D]
     X:     1.2920      Y:    -4.5036      Z:    -0.0001     Total:     4.6853

*** Psi4 exiting successfully. Buy a developer a beer!
