                               Psi4 1.3.2 release

  ==> Input File <==

--------------------------------------------------------------------------
#psi4
#
memory 32 gb

molecule  {
0 1
  N       -1.1265450    -1.2362860     0.0000060
  C        0.1972377    -1.6273955    -0.0000443
  C        1.1512880    -0.4934230    -0.0000150
  C        0.6802440     0.8910390    -0.0001390
  N       -0.7159090     1.0273040    -0.0000130
  C       -1.6820960     0.0327770     0.0001490
  C        2.6300190    -0.7237960     0.0000320
  O        1.4079770     1.8828460     0.0000440
  O       -2.8884570     0.2443790    -0.0000340
  H       -1.7971660    -1.9955960    -0.0000480
  H       -1.0703780     1.9806020    -0.0000270
  H        0.5071850    -2.5374850    -0.0000570
  H        3.0900470    -0.2640690    -0.8790850
  H        3.0900220    -0.2639380     0.8790930
  H        2.8593700    -1.7927480     0.0001130
units angstrom
no_reorient  #important for SAPT in psi4, default
symmetry c1  #important for SAPT in psi4, default
}

set PROPERTIES_ORIGIN ["COM"]
properties('MP2/aug-cc-pvtz', properties = ['dipole'])
--------------------------------------------------------------------------

    Molecular point group: c1
  Charge       = 0
  Multiplicity = 1
  Basis Set: AUG-CC-PVTZ
    Blend: AUG-CC-PVTZ
  Basis Set: (AUG-CC-PVTZ AUX)
    Blend: AUG-CC-PVTZ-JKFIT

    Orbital Energies [Eh]
    ---------------------

    Doubly Occupied:

       1A    -20.547153     2A    -20.540478     3A    -15.647007
       4A    -15.629420     5A    -11.423345     6A    -11.380325
       7A    -11.344076     8A    -11.275256     9A    -11.236422
      10A     -1.428501    11A     -1.390642    12A     -1.305013
      13A     -1.242519    14A     -1.089080    15A     -0.977720
      16A     -0.922539    17A     -0.889128    18A     -0.775123
      19A     -0.763733    20A     -0.730710    21A     -0.669904
      22A     -0.663666    23A     -0.646726    24A     -0.619618
      25A     -0.588754    26A     -0.560172    27A     -0.556947
      28A     -0.541353    29A     -0.509854    30A     -0.485049
      31A     -0.447411    32A     -0.434685    33A     -0.333831

  @DF-RHF Final Energy:  -451.63324906257151

   => Energetics <=

    Nuclear Repulsion Energy =            435.7384070714740005
    One-Electron Energy =               -1479.5509922837754857
    Two-Electron Energy =                 592.1793361497299202
    Total Energy =                       -451.6332490625715081
  Basis Set: (AUG-CC-PVTZ AUX)
    Blend: AUG-CC-PVTZ-RI
    Molecular point group: c1

    Geometry (in Angstrom), charge = 0, multiplicity = 1:

       Center              X                  Y                   Z               Mass
    ------------   -----------------  -----------------  -----------------  -----------------
         N           -1.070782137028    -1.261177857803     0.000007243691    14.003074004430
         C            0.253000562972    -1.652287357803    -0.000043056309    12.000000000000
         C            1.207050862972    -0.518314857803    -0.000013756309    12.000000000000
         C            0.736006862972     0.866147142197    -0.000137756309    12.000000000000
         N           -0.660146137028     1.002412142197    -0.000011756309    14.003074004430
         C           -1.626333137028     0.007885142197     0.000150243691    12.000000000000
         C            2.685781862972    -0.748687857803     0.000033243691    12.000000000000
         O            1.463739862972     1.857954142197     0.000045243691    15.994914619570
         O           -2.832694137028     0.219487142197    -0.000032756309    15.994914619570
         H           -1.741403137028    -2.020487857803    -0.000046756309     1.007825032230
         H           -1.014615137028     1.955710142197    -0.000025756309     1.007825032230
         H            0.562947862972    -2.562376857803    -0.000055756309     1.007825032230
         H            3.145809862972    -0.288960857803    -0.879083756309     1.007825032230
         H            3.145784862972    -0.288829857803     0.879094243691     1.007825032230
         H            2.915132862972    -1.817639857803     0.000114243691     1.007825032230

  Basis Set: AUG-CC-PVTZ
    Blend: AUG-CC-PVTZ
  Basis Set: (AUG-CC-PVTZ AUX)
    Blend: AUG-CC-PVTZ-JKFIT
	 Reference Energy          =    -451.6332490625715081 [Eh]
	 Singles Energy            =      -0.0000000000000000 [Eh]
	 Same-Spin Energy          =      -0.4614351927311732 [Eh]
	 Opposite-Spin Energy      =      -1.3901324172455338 [Eh]
	 Correlation Energy        =      -1.8515676099767071 [Eh]
	 Total Energy              =    -453.4848166725482201 [Eh]

	 ================> DF-SCS-MP2 Energies <==================
	-----------------------------------------------------------
	 SCS Same-Spin Scale       =       0.3333333333333333 [-]
	 SCS Opposite-Spin Scale   =       1.2000000000000000 [-]
	 SCS Same-Spin Energy      =      -0.1538117309103911 [Eh]
	 SCS Opposite-Spin Energy  =      -1.6681589006946405 [Eh]
	 SCS Correlation Energy    =      -1.8219706316050315 [Eh]
	 SCS Total Energy          =    -453.4552196941765487 [Eh]
	-----------------------------------------------------------

  Dipole Moment: [D]
     X:     0.9528      Y:    -4.2854      Z:    -0.0000     Total:     4.3901

*** Psi4 exiting successfully. Buy a developer a beer!
