                               Psi4 1.4a3.dev225

  ==> Input File <==

--------------------------------------------------------------------------
#psi4
#
memory 32 gb

molecule  {
0 1
  N       -1.1263310    -1.2364150    -0.0000030
  C        0.2309450    -1.4868440     0.0000000
  C        1.1514300    -0.4932890    -0.0000070
  C        0.6802680     0.8910870    -0.0000240
  N       -0.7160800     1.0272360    -0.0000150
  C       -1.6820330     0.0328590    -0.0000240
  C        2.6301110    -0.7238270     0.0000080
  O        1.4075700     1.8832080     0.0000170
  O       -2.8884930     0.2440480     0.0000250
  H       -1.7968290    -1.9958110     0.0000150
  H       -1.0634903     1.9618163     0.0000056
  H        0.5076420    -2.5373850     0.0000160
  H        3.0901790    -0.2641310    -0.8791000
  H        3.0901670    -0.2640930     0.8791020
  H        2.8592340    -1.7928420     0.0000320
units angstrom
no_reorient  #important for SAPT in psi4, default
symmetry c1  #important for SAPT in psi4, default
}

set PROPERTIES_ORIGIN ["COM"]
properties('MP2/aug-cc-pvtz', properties = ['dipole'])
--------------------------------------------------------------------------

    Molecular point group: c1
  Charge       = 0
  Multiplicity = 1
  Basis Set: AUG-CC-PVTZ
    Blend: AUG-CC-PVTZ
  Basis Set: (AUG-CC-PVTZ AUX)
    Blend: AUG-CC-PVTZ-JKFIT

    Orbital Energies [Eh]
    ---------------------

    Doubly Occupied:

       1A    -20.544829     2A    -20.543493     3A    -15.640717
       4A    -15.627097     5A    -11.418498     6A    -11.381332
       7A    -11.332223     8A    -11.262925     9A    -11.239618
      10A     -1.427937    11A     -1.392430    12A     -1.305293
      13A     -1.242416    14A     -1.108263    15A     -0.970250
      16A     -0.917092    17A     -0.894215    18A     -0.772492
      19A     -0.765730    20A     -0.710213    21A     -0.675144
      22A     -0.665410    23A     -0.640420    24A     -0.616959
      25A     -0.591640    26A     -0.568923    27A     -0.558335
      28A     -0.552097    29A     -0.511437    30A     -0.479613
      31A     -0.448725    32A     -0.435308    33A     -0.354579

  @DF-RHF Final Energy:  -451.67289080193541

   => Energetics <=

    Nuclear Repulsion Energy =            438.3170961398016630
    One-Electron Energy =               -1484.7886680888088904
    Two-Electron Energy =                 594.7986811470718749
    Total Energy =                       -451.6728908019354094
  Basis Set: (AUG-CC-PVTZ AUX)
    Blend: AUG-CC-PVTZ-RI
    Molecular point group: c1

    Geometry (in Angstrom), charge = 0, multiplicity = 1:

       Center              X                  Y                   Z               Mass
    ------------   -----------------  -----------------  -----------------  -----------------
         N           -1.073818933453    -1.274538772028    -0.000002419908    14.003074004430
         C            0.283457066547    -1.524967772028     0.000000580092    12.000000000000
         C            1.203942066547    -0.531412772028    -0.000006419908    12.000000000000
         C            0.732780066547     0.852963227972    -0.000023419908    12.000000000000
         N           -0.663567933453     0.989112227972    -0.000014419908    14.003074004430
         C           -1.629520933453    -0.005264772028    -0.000023419908    12.000000000000
         C            2.682623066547    -0.761950772028     0.000008580092    12.000000000000
         O            1.460082066547     1.845084227972     0.000017580092    15.994914619570
         O           -2.835980933453     0.205924227972     0.000025580092    15.994914619570
         H           -1.744316933453    -2.033934772028     0.000015580092     1.007825032230
         H           -1.010978233453     1.923692527972     0.000006180092     1.007825032230
         H            0.560154066547    -2.575508772028     0.000016580092     1.007825032230
         H            3.142691066547    -0.302254772028    -0.879099419908     1.007825032230
         H            3.142679066547    -0.302216772028     0.879102580092     1.007825032230
         H            2.911746066547    -1.830965772028     0.000032580092     1.007825032230

  Basis Set: AUG-CC-PVTZ
    Blend: AUG-CC-PVTZ
  Basis Set: (AUG-CC-PVTZ AUX)
    Blend: AUG-CC-PVTZ-JKFIT
	 Reference Energy          =    -451.6728908019354094 [Eh]
	 Singles Energy            =      -0.0000000000000000 [Eh]
	 Same-Spin Energy          =      -0.4588002274703322 [Eh]
	 Opposite-Spin Energy      =      -1.3844276357178262 [Eh]
	 Correlation Energy        =      -1.8432278631881585 [Eh]
	 Total Energy              =    -453.5161186651235425 [Eh]

	 ================> DF-SCS-MP2 Energies <==================
	-----------------------------------------------------------
	 SCS Same-Spin Scale       =       0.3333333333333333 [-]
	 SCS Opposite-Spin Scale   =       1.2000000000000000 [-]
	 SCS Same-Spin Energy      =      -0.1529334091567774 [Eh]
	 SCS Opposite-Spin Energy  =      -1.6613131628613915 [Eh]
	 SCS Correlation Energy    =      -1.8142465720181689 [Eh]
	 SCS Total Energy          =    -453.4871373739536011 [Eh]
	-----------------------------------------------------------

  Dipole Moment: [D]
     X:     1.0462      Y:    -4.2107      Z:    -0.0001     Total:     4.3387

*** Psi4 exiting successfully. Buy a developer a beer!
