                               Psi4 1.3.2 release

  ==> Input File <==

--------------------------------------------------------------------------
#psi4
#
memory 32 gb

molecule  {
0 1
  N       -1.1265450    -1.2362860     0.0000060
  C        0.2308680    -1.4868800    -0.0000290
  C        1.1512880    -0.4934230    -0.0000150
  C        0.6746379     0.8423970    -0.0001351
  N       -0.7159090     1.0273040    -0.0000130
  C       -1.6820960     0.0327770     0.0001490
  C        2.6300190    -0.7237960     0.0000320
  O        1.4079770     1.8828460     0.0000440
  O       -2.8884570     0.2443790    -0.0000340
  H       -1.7971660    -1.9955960    -0.0000480
  H       -1.0703780     1.9806020    -0.0000270
  H        0.5071850    -2.5374850    -0.0000570
  H        3.0900470    -0.2640690    -0.8790850
  H        3.0900220    -0.2639380     0.8790930
  H        2.8593700    -1.7927480     0.0001130
units angstrom
no_reorient  #important for SAPT in psi4, default
symmetry c1  #important for SAPT in psi4, default
}

set PROPERTIES_ORIGIN ["COM"]
properties('MP2/aug-cc-pvtz', properties = ['dipole'])
--------------------------------------------------------------------------

    Molecular point group: c1
  Charge       = 0
  Multiplicity = 1
  Basis Set: AUG-CC-PVTZ
    Blend: AUG-CC-PVTZ
  Basis Set: (AUG-CC-PVTZ AUX)
    Blend: AUG-CC-PVTZ-JKFIT

    Orbital Energies [Eh]
    ---------------------

    Doubly Occupied:

       1A    -20.546016     2A    -20.534501     3A    -15.645633
       4A    -15.631337     5A    -11.419206     6A    -11.380543
       7A    -11.339333     8A    -11.263135     9A    -11.241082
      10A     -1.428088    11A     -1.368161    12A     -1.306278
      13A     -1.238122    14A     -1.116707    15A     -0.972989
      16A     -0.925240    17A     -0.892214    18A     -0.775632
      19A     -0.770228    20A     -0.711905    21A     -0.671281
      22A     -0.667024    23A     -0.640526    24A     -0.606228
      25A     -0.592195    26A     -0.569781    27A     -0.552564
      28A     -0.549298    29A     -0.513769    30A     -0.479965
      31A     -0.444348    32A     -0.428962    33A     -0.357835

  @DF-RHF Final Energy:  -451.66477176853630

   => Energetics <=

    Nuclear Repulsion Energy =            438.3830871844081116
    One-Electron Energy =               -1484.9354708782918806
    Two-Electron Energy =                 594.8876119253474144
    Total Energy =                       -451.6647717685362977
  Basis Set: (AUG-CC-PVTZ AUX)
    Blend: AUG-CC-PVTZ-RI
    Molecular point group: c1

    Geometry (in Angstrom), charge = 0, multiplicity = 1:

       Center              X                  Y                   Z               Mass
    ------------   -----------------  -----------------  -----------------  -----------------
         N           -1.073450199464    -1.269924734937     0.000005415742    14.003074004430
         C            0.283962800536    -1.520518734937    -0.000029584258    12.000000000000
         C            1.204382800536    -0.527061734937    -0.000015584258    12.000000000000
         C            0.727732700536     0.808758265063    -0.000135684258    12.000000000000
         N           -0.662814199464     0.993665265063    -0.000013584258    14.003074004430
         C           -1.629001199464    -0.000861734937     0.000148415742    12.000000000000
         C            2.683113800536    -0.757434734937     0.000031415742    12.000000000000
         O            1.461071800536     1.849207265063     0.000043415742    15.994914619570
         O           -2.835362199464     0.210740265063    -0.000034584258    15.994914619570
         H           -1.744071199464    -2.029234734937    -0.000048584258     1.007825032230
         H           -1.017283199464     1.946963265063    -0.000027584258     1.007825032230
         H            0.560279800536    -2.571123734937    -0.000057584258     1.007825032230
         H            3.143141800536    -0.297707734937    -0.879085584258     1.007825032230
         H            3.143116800536    -0.297576734937     0.879092415742     1.007825032230
         H            2.912464800536    -1.826386734937     0.000112415742     1.007825032230

  Basis Set: AUG-CC-PVTZ
    Blend: AUG-CC-PVTZ
  Basis Set: (AUG-CC-PVTZ AUX)
    Blend: AUG-CC-PVTZ-JKFIT
	 Reference Energy          =    -451.6647717685362977 [Eh]
	 Singles Energy            =      -0.0000000000000000 [Eh]
	 Same-Spin Energy          =      -0.4603719639985597 [Eh]
	 Opposite-Spin Energy      =      -1.3871052408306150 [Eh]
	 Correlation Energy        =      -1.8474772048291748 [Eh]
	 Total Energy              =    -453.5122489733654447 [Eh]

	 ================> DF-SCS-MP2 Energies <==================
	-----------------------------------------------------------
	 SCS Same-Spin Scale       =       0.3333333333333333 [-]
	 SCS Opposite-Spin Scale   =       1.2000000000000000 [-]
	 SCS Same-Spin Energy      =      -0.1534573213328532 [Eh]
	 SCS Opposite-Spin Energy  =      -1.6645262889967380 [Eh]
	 SCS Correlation Energy    =      -1.8179836103295912 [Eh]
	 SCS Total Energy          =    -453.4827553788658747 [Eh]
	-----------------------------------------------------------

  Dipole Moment: [D]
     X:     0.9042      Y:    -4.5135      Z:    -0.0000     Total:     4.6031

*** Psi4 exiting successfully. Buy a developer a beer!
