                               Psi4 1.3.2 release

  ==> Input File <==

--------------------------------------------------------------------------
#psi4
#
memory 32 gb

molecule  {
0 1
  N       -1.1344637    -1.2838117     0.0000046
  C        0.2308680    -1.4868800    -0.0000290
  C        1.1512880    -0.4934230    -0.0000150
  C        0.6802440     0.8910390    -0.0001390
  N       -0.7159090     1.0273040    -0.0000130
  C       -1.6820960     0.0327770     0.0001490
  C        2.6300190    -0.7237960     0.0000320
  O        1.4079770     1.8828460     0.0000440
  O       -2.8884570     0.2443790    -0.0000340
  H       -1.7971660    -1.9955960    -0.0000480
  H       -1.0703780     1.9806020    -0.0000270
  H        0.5071850    -2.5374850    -0.0000570
  H        3.0900470    -0.2640690    -0.8790850
  H        3.0900220    -0.2639380     0.8790930
  H        2.8593700    -1.7927480     0.0001130
units angstrom
no_reorient  #important for SAPT in psi4, default
symmetry c1  #important for SAPT in psi4, default
}

set PROPERTIES_ORIGIN ["COM"]
properties('MP2/aug-cc-pvtz', properties = ['dipole'])
--------------------------------------------------------------------------

    Molecular point group: c1
  Charge       = 0
  Multiplicity = 1
  Basis Set: AUG-CC-PVTZ
    Blend: AUG-CC-PVTZ
  Basis Set: (AUG-CC-PVTZ AUX)
    Blend: AUG-CC-PVTZ-JKFIT

    Orbital Energies [Eh]
    ---------------------

    Doubly Occupied:

       1A    -20.549142     2A    -20.543863     3A    -15.637930
       4A    -15.631470     5A    -11.423306     6A    -11.381493
       7A    -11.331772     8A    -11.261560     9A    -11.238961
      10A     -1.426703    11A     -1.392922    12A     -1.301841
      13A     -1.243100    14A     -1.106506    15A     -0.966113
      16A     -0.913649    17A     -0.896187    18A     -0.777430
      19A     -0.762028    20A     -0.708204    21A     -0.679840
      22A     -0.661848    23A     -0.639298    24A     -0.616617
      25A     -0.590452    26A     -0.569002    27A     -0.557684
      28A     -0.551749    29A     -0.513702    30A     -0.479421
      31A     -0.449498    32A     -0.436260    33A     -0.353503

  @DF-RHF Final Energy:  -451.66946158464140

   => Energetics <=

    Nuclear Repulsion Energy =            437.2135202662091729
    One-Electron Energy =               -1482.5798565943759968
    Two-Electron Energy =                 593.6968747435255409
    Total Energy =                       -451.6694615846413399
  Basis Set: (AUG-CC-PVTZ AUX)
    Blend: AUG-CC-PVTZ-RI
    Molecular point group: c1

    Geometry (in Angstrom), charge = 0, multiplicity = 1:

       Center              X                  Y                   Z               Mass
    ------------   -----------------  -----------------  -----------------  -----------------
         N           -1.081022882889    -1.316801434665     0.000004542581    14.003074004430
         C            0.284308817111    -1.519869734665    -0.000029057419    12.000000000000
         C            1.204728817111    -0.526412734665    -0.000015057419    12.000000000000
         C            0.733684817111     0.858049265335    -0.000139057419    12.000000000000
         N           -0.662468182889     0.994314265335    -0.000013057419    14.003074004430
         C           -1.628655182889    -0.000212734665     0.000148942581    12.000000000000
         C            2.683459817111    -0.756785734665     0.000031942581    12.000000000000
         O            1.461417817111     1.849856265335     0.000043942581    15.994914619570
         O           -2.835016182889     0.211389265335    -0.000034057419    15.994914619570
         H           -1.743725182889    -2.028585734665    -0.000048057419     1.007825032230
         H           -1.016937182889     1.947612265335    -0.000027057419     1.007825032230
         H            0.560625817111    -2.570474734665    -0.000057057419     1.007825032230
         H            3.143487817111    -0.297058734665    -0.879085057419     1.007825032230
         H            3.143462817111    -0.296927734665     0.879092942581     1.007825032230
         H            2.912810817111    -1.825737734665     0.000112942581     1.007825032230

  Basis Set: AUG-CC-PVTZ
    Blend: AUG-CC-PVTZ
  Basis Set: (AUG-CC-PVTZ AUX)
    Blend: AUG-CC-PVTZ-JKFIT
	 Reference Energy          =    -451.6694615846413967 [Eh]
	 Singles Energy            =      -0.0000000000000000 [Eh]
	 Same-Spin Energy          =      -0.4586509109464066 [Eh]
	 Opposite-Spin Energy      =      -1.3847619239445212 [Eh]
	 Correlation Energy        =      -1.8434128348909278 [Eh]
	 Total Energy              =    -453.5128744195323520 [Eh]

	 ================> DF-SCS-MP2 Energies <==================
	-----------------------------------------------------------
	 SCS Same-Spin Scale       =       0.3333333333333333 [-]
	 SCS Opposite-Spin Scale   =       1.2000000000000000 [-]
	 SCS Same-Spin Energy      =      -0.1528836369821355 [Eh]
	 SCS Opposite-Spin Energy  =      -1.6617143087334254 [Eh]
	 SCS Correlation Energy    =      -1.8145979457155610 [Eh]
	 SCS Total Energy          =    -453.4840595303569444 [Eh]
	-----------------------------------------------------------

  Dipole Moment: [D]
     X:     0.9187      Y:    -4.0228      Z:    -0.0001     Total:     4.1264

*** Psi4 exiting successfully. Buy a developer a beer!
