                               Psi4 1.4a3.dev225

  ==> Input File <==

--------------------------------------------------------------------------
#psi4
#
memory 32 gb

molecule  {
0 1
  N       -1.1263310    -1.2364150    -0.0000030
  C        0.2309450    -1.4868440     0.0000000
  C        1.1514300    -0.4932890    -0.0000070
  C        0.6802680     0.8910870    -0.0000240
  N       -0.7160800     1.0272360    -0.0000150
  C       -1.6820330     0.0328590    -0.0000240
  C        2.6301110    -0.7238270     0.0000080
  O        1.4075700     1.8832080     0.0000170
  O       -2.8884930     0.2440480     0.0000250
  H       -1.7968290    -1.9958110     0.0000150
  H       -1.0704590     1.9805630     0.0000060
  H        0.5127360    -2.5567254     0.0000163
  H        3.0901790    -0.2641310    -0.8791000
  H        3.0901670    -0.2640930     0.8791020
  H        2.8592340    -1.7928420     0.0000320
units angstrom
no_reorient  #important for SAPT in psi4, default
symmetry c1  #important for SAPT in psi4, default
}

set PROPERTIES_ORIGIN ["COM"]
properties('MP2/aug-cc-pvtz', properties = ['dipole'])
--------------------------------------------------------------------------

    Molecular point group: c1
  Charge       = 0
  Multiplicity = 1
  Basis Set: AUG-CC-PVTZ
    Blend: AUG-CC-PVTZ
  Basis Set: (AUG-CC-PVTZ AUX)
    Blend: AUG-CC-PVTZ-JKFIT

    Orbital Energies [Eh]
    ---------------------

    Doubly Occupied:

       1A    -20.544656     2A    -20.543302     3A    -15.640770
       4A    -15.628670     5A    -11.418395     6A    -11.381267
       7A    -11.334241     8A    -11.262920     9A    -11.239503
      10A     -1.427492    11A     -1.392191    12A     -1.305020
      13A     -1.240214    14A     -1.107847    15A     -0.969473
      16A     -0.914340    17A     -0.893533    18A     -0.770860
      19A     -0.765350    20A     -0.704652    21A     -0.674092
      22A     -0.665222    23A     -0.639721    24A     -0.615146
      25A     -0.591522    26A     -0.568577    27A     -0.558139
      28A     -0.551861    29A     -0.511317    30A     -0.479366
      31A     -0.448527    32A     -0.434899    33A     -0.354513

  @DF-RHF Final Energy:  -451.67178722730756

   => Energetics <=

    Nuclear Repulsion Energy =            438.0819871263294658
    One-Electron Energy =               -1484.3523566948740608
    Two-Electron Energy =                 594.5985823412369200
    Total Energy =                       -451.6717872273076182
  Basis Set: (AUG-CC-PVTZ AUX)
    Blend: AUG-CC-PVTZ-RI
    Molecular point group: c1

    Geometry (in Angstrom), charge = 0, multiplicity = 1:

       Center              X                  Y                   Z               Mass
    ------------   -----------------  -----------------  -----------------  -----------------
         N           -1.073803943563    -1.274534024870    -0.000002425505    14.003074004430
         C            0.283472056437    -1.524963024870     0.000000574495    12.000000000000
         C            1.203957056437    -0.531408024870    -0.000006425505    12.000000000000
         C            0.732795056437     0.852967975130    -0.000023425505    12.000000000000
         N           -0.663552943563     0.989116975130    -0.000014425505    14.003074004430
         C           -1.629505943563    -0.005260024870    -0.000023425505    12.000000000000
         C            2.682638056437    -0.761946024870     0.000008574495    12.000000000000
         O            1.460097056437     1.845088975130     0.000017574495    15.994914619570
         O           -2.835965943563     0.205928975130     0.000025574495    15.994914619570
         H           -1.744301943563    -2.033930024870     0.000015574495     1.007825032230
         H           -1.017931943563     1.942443975130     0.000006574495     1.007825032230
         H            0.565263056437    -2.594844424870     0.000016874495     1.007825032230
         H            3.142706056437    -0.302250024870    -0.879099425505     1.007825032230
         H            3.142694056437    -0.302212024870     0.879102574495     1.007825032230
         H            2.911761056437    -1.830961024870     0.000032574495     1.007825032230

  Basis Set: AUG-CC-PVTZ
    Blend: AUG-CC-PVTZ
  Basis Set: (AUG-CC-PVTZ AUX)
    Blend: AUG-CC-PVTZ-JKFIT
	 Reference Energy          =    -451.6717872273075614 [Eh]
	 Singles Energy            =      -0.0000000000000000 [Eh]
	 Same-Spin Energy          =      -0.4590285317875002 [Eh]
	 Opposite-Spin Energy      =      -1.3849276688795529 [Eh]
	 Correlation Energy        =      -1.8439562006670531 [Eh]
	 Total Energy              =    -453.5157434279745985 [Eh]

	 ================> DF-SCS-MP2 Energies <==================
	-----------------------------------------------------------
	 SCS Same-Spin Scale       =       0.3333333333333333 [-]
	 SCS Opposite-Spin Scale   =       1.2000000000000000 [-]
	 SCS Same-Spin Energy      =      -0.1530095105958334 [Eh]
	 SCS Opposite-Spin Energy  =      -1.6619132026554635 [Eh]
	 SCS Correlation Energy    =      -1.8149227132512968 [Eh]
	 SCS Total Energy          =    -453.4867099405588533 [Eh]
	-----------------------------------------------------------

  Dipole Moment: [D]
     X:     1.0354      Y:    -4.1853      Z:    -0.0001     Total:     4.3114

*** Psi4 exiting successfully. Buy a developer a beer!
