                               Psi4 1.3.2 release

  ==> Input File <==

--------------------------------------------------------------------------
#psi4
#
memory 32 gb

molecule  {
0 1
  N       -1.1265450    -1.2362860     0.0000060
  C        0.2308680    -1.4868800    -0.0000290
  C        1.1993181    -0.4761404    -0.0000221
  C        0.6802440     0.8910390    -0.0001390
  N       -0.7159090     1.0273040    -0.0000130
  C       -1.6820960     0.0327770     0.0001490
  C        2.6300190    -0.7237960     0.0000320
  O        1.4079770     1.8828460     0.0000440
  O       -2.8884570     0.2443790    -0.0000340
  H       -1.7971660    -1.9955960    -0.0000480
  H       -1.0703780     1.9806020    -0.0000270
  H        0.5071850    -2.5374850    -0.0000570
  H        3.0900470    -0.2640690    -0.8790850
  H        3.0900220    -0.2639380     0.8790930
  H        2.8593700    -1.7927480     0.0001130
units angstrom
no_reorient  #important for SAPT in psi4, default
symmetry c1  #important for SAPT in psi4, default
}

set PROPERTIES_ORIGIN ["COM"]
properties('MP2/aug-cc-pvtz', properties = ['dipole'])
--------------------------------------------------------------------------

    Molecular point group: c1
  Charge       = 0
  Multiplicity = 1
  Basis Set: AUG-CC-PVTZ
    Blend: AUG-CC-PVTZ
  Basis Set: (AUG-CC-PVTZ AUX)
    Blend: AUG-CC-PVTZ-JKFIT

    Orbital Energies [Eh]
    ---------------------

    Doubly Occupied:

       1A    -20.545500     2A    -20.539811     3A    -15.643712
       4A    -15.629539     5A    -11.419081     6A    -11.379163
       7A    -11.338260     8A    -11.266270     9A    -11.237086
      10A     -1.427837    11A     -1.390854    12A     -1.304702
      13A     -1.240432    14A     -1.107437    15A     -0.973360
      16A     -0.914963    17A     -0.891470    18A     -0.771590
      19A     -0.763663    20A     -0.706541    21A     -0.673696
      22A     -0.665025    23A     -0.639962    24A     -0.614463
      25A     -0.594884    26A     -0.582260    27A     -0.557787
      28A     -0.548580    29A     -0.509694    30A     -0.479669
      31A     -0.446515    32A     -0.434668    33A     -0.345987

  @DF-RHF Final Energy:  -451.66662865624113

   => Energetics <=

    Nuclear Repulsion Energy =            437.8062529858055427
    One-Electron Energy =               -1483.7768365635495229
    Two-Electron Energy =                 594.3039549215029638
    Total Energy =                       -451.6666286562410733
  Basis Set: (AUG-CC-PVTZ AUX)
    Blend: AUG-CC-PVTZ-RI
    Molecular point group: c1

    Geometry (in Angstrom), charge = 0, multiplicity = 1:

       Center              X                  Y                   Z               Mass
    ------------   -----------------  -----------------  -----------------  -----------------
         N           -1.078556669244    -1.276201129941     0.000006463005    14.003074004430
         C            0.278856330756    -1.526795129941    -0.000028536995    12.000000000000
         C            1.247306430756    -0.516055529941    -0.000021636995    12.000000000000
         C            0.728232330756     0.851123870059    -0.000138536995    12.000000000000
         N           -0.667920669244     0.987388870059    -0.000012536995    14.003074004430
         C           -1.634107669244    -0.007138129941     0.000149463005    12.000000000000
         C            2.678007330756    -0.763711129941     0.000032463005    12.000000000000
         O            1.455965330756     1.842930870059     0.000044463005    15.994914619570
         O           -2.840468669244     0.204463870059    -0.000033536995    15.994914619570
         H           -1.749177669244    -2.035511129941    -0.000047536995     1.007825032230
         H           -1.022389669244     1.940686870059    -0.000026536995     1.007825032230
         H            0.555173330756    -2.577400129941    -0.000056536995     1.007825032230
         H            3.138035330756    -0.303984129941    -0.879084536995     1.007825032230
         H            3.138010330756    -0.303853129941     0.879093463005     1.007825032230
         H            2.907358330756    -1.832663129941     0.000113463005     1.007825032230

  Basis Set: AUG-CC-PVTZ
    Blend: AUG-CC-PVTZ
  Basis Set: (AUG-CC-PVTZ AUX)
    Blend: AUG-CC-PVTZ-JKFIT
	 Reference Energy          =    -451.6666286562411301 [Eh]
	 Singles Energy            =      -0.0000000000000000 [Eh]
	 Same-Spin Energy          =      -0.4598610217560244 [Eh]
	 Opposite-Spin Energy      =      -1.3861021309417685 [Eh]
	 Correlation Energy        =      -1.8459631526977929 [Eh]
	 Total Energy              =    -453.5125918089389074 [Eh]

	 ================> DF-SCS-MP2 Energies <==================
	-----------------------------------------------------------
	 SCS Same-Spin Scale       =       0.3333333333333333 [-]
	 SCS Opposite-Spin Scale   =       1.2000000000000000 [-]
	 SCS Same-Spin Energy      =      -0.1532870072520081 [Eh]
	 SCS Opposite-Spin Energy  =      -1.6633225571301222 [Eh]
	 SCS Correlation Energy    =      -1.8166095643821303 [Eh]
	 SCS Total Energy          =    -453.4832382206232637 [Eh]
	-----------------------------------------------------------

  Dipole Moment: [D]
     X:     1.0342      Y:    -4.2300      Z:    -0.0001     Total:     4.3546

*** Psi4 exiting successfully. Buy a developer a beer!
