                               Psi4 1.3.2 release

  ==> Input File <==

--------------------------------------------------------------------------
#psi4
#
memory 32 gb

molecule  {
0 1
  N       -1.1265450    -1.2362860     0.0000060
  C        0.2308680    -1.4868800    -0.0000290
  C        1.1512880    -0.4934230    -0.0000150
  C        0.6802440     0.8910390    -0.0001390
  N       -0.7159090     1.0273040    -0.0000130
  C       -1.6820960     0.0327770     0.0001490
  C        2.6300190    -0.7237960     0.0000320
  O        1.4079770     1.8828460     0.0000440
  O       -2.8884570     0.2443790    -0.0000340
  H       -1.8633638    -2.0705484    -0.0000533
  H       -1.0703780     1.9806020    -0.0000270
  H        0.5071850    -2.5374850    -0.0000570
  H        3.0900470    -0.2640690    -0.8790850
  H        3.0900220    -0.2639380     0.8790930
  H        2.8593700    -1.7927480     0.0001130
units angstrom
no_reorient  #important for SAPT in psi4, default
symmetry c1  #important for SAPT in psi4, default
}

set PROPERTIES_ORIGIN ["COM"]
properties('MP2/aug-cc-pvtz', properties = ['dipole'])
--------------------------------------------------------------------------

    Molecular point group: c1
  Charge       = 0
  Multiplicity = 1
  Basis Set: AUG-CC-PVTZ
    Blend: AUG-CC-PVTZ
  Basis Set: (AUG-CC-PVTZ AUX)
    Blend: AUG-CC-PVTZ-JKFIT

    Orbital Energies [Eh]
    ---------------------

    Doubly Occupied:

       1A    -20.543492     2A    -20.542383     3A    -15.647756
       4A    -15.628186     5A    -11.417558     6A    -11.380351
       7A    -11.331552     8A    -11.261902     9A    -11.238997
      10A     -1.425554    11A     -1.391193    12A     -1.300002
      13A     -1.235563    14A     -1.105411    15A     -0.968740
      16A     -0.914464    17A     -0.883865    18A     -0.766193
      19A     -0.755773    20A     -0.704421    21A     -0.666893
      22A     -0.663996    23A     -0.639088    24A     -0.612782
      25A     -0.590786    26A     -0.567227    27A     -0.557074
      28A     -0.550812    29A     -0.509784    30A     -0.478649
      31A     -0.447694    32A     -0.434222    33A     -0.353077

  @DF-RHF Final Energy:  -451.66183300029957

   => Energetics <=

    Nuclear Repulsion Energy =            437.5996740900856139
    One-Electron Energy =               -1483.4921309601625126
    Two-Electron Energy =                 594.2306238697772187
    Total Energy =                       -451.6618330002995663
  Basis Set: (AUG-CC-PVTZ AUX)
    Blend: AUG-CC-PVTZ-RI
    Molecular point group: c1

    Geometry (in Angstrom), charge = 0, multiplicity = 1:

       Center              X                  Y                   Z               Mass
    ------------   -----------------  -----------------  -----------------  -----------------
         N           -1.073454621768    -1.273956417677     0.000005829423    14.003074004430
         C            0.283958378232    -1.524550417677    -0.000029170577    12.000000000000
         C            1.204378378232    -0.531093417677    -0.000015170577    12.000000000000
         C            0.733334378232     0.853368582323    -0.000139170577    12.000000000000
         N           -0.662818621768     0.989633582323    -0.000013170577    14.003074004430
         C           -1.629005621768    -0.004893417677     0.000148829423    12.000000000000
         C            2.683109378232    -0.761466417677     0.000031829423    12.000000000000
         O            1.461067378232     1.845175582323     0.000043829423    15.994914619570
         O           -2.835366621768     0.206708582323    -0.000034170577    15.994914619570
         H           -1.810273421768    -2.108218817677    -0.000053470577     1.007825032230
         H           -1.017287621768     1.942931582323    -0.000027170577     1.007825032230
         H            0.560275378232    -2.575155417677    -0.000057170577     1.007825032230
         H            3.143137378232    -0.301739417677    -0.879085170577     1.007825032230
         H            3.143112378232    -0.301608417677     0.879092829423     1.007825032230
         H            2.912460378232    -1.830418417677     0.000112829423     1.007825032230

  Basis Set: AUG-CC-PVTZ
    Blend: AUG-CC-PVTZ
  Basis Set: (AUG-CC-PVTZ AUX)
    Blend: AUG-CC-PVTZ-JKFIT
	 Reference Energy          =    -451.6618330002995663 [Eh]
	 Singles Energy            =      -0.0000000000000000 [Eh]
	 Same-Spin Energy          =      -0.4597760250052805 [Eh]
	 Opposite-Spin Energy      =      -1.3866342800867666 [Eh]
	 Correlation Energy        =      -1.8464103050920471 [Eh]
	 Total Energy              =    -453.5082433053916020 [Eh]

	 ================> DF-SCS-MP2 Energies <==================
	-----------------------------------------------------------
	 SCS Same-Spin Scale       =       0.3333333333333333 [-]
	 SCS Opposite-Spin Scale   =       1.2000000000000000 [-]
	 SCS Same-Spin Energy      =      -0.1532586750017602 [Eh]
	 SCS Opposite-Spin Energy  =      -1.6639611361041198 [Eh]
	 SCS Correlation Energy    =      -1.8172198111058799 [Eh]
	 SCS Total Energy          =    -453.4790528114054382 [Eh]
	-----------------------------------------------------------

  Dipole Moment: [D]
     X:     0.9383      Y:    -4.3030      Z:    -0.0001     Total:     4.4041

*** Psi4 exiting successfully. Buy a developer a beer!
