                               Psi4 1.3.2 release

  ==> Input File <==

--------------------------------------------------------------------------
#psi4
#
memory 32 gb

molecule  {
0 1
  N       -1.1265450    -1.2362860     0.0000060
  C        0.3397547    -1.5776478    -0.0000145
  C        1.1512880    -0.4934230    -0.0000150
  C        0.6802440     0.8910390    -0.0001390
  N       -0.7159090     1.0273040    -0.0000130
  C       -1.6820960     0.0327770     0.0001490
  C        2.6300190    -0.7237960     0.0000320
  O        1.4079770     1.8828460     0.0000440
  O       -2.8884570     0.2443790    -0.0000340
  H       -1.7971660    -1.9955960    -0.0000480
  H       -1.0703780     1.9806020    -0.0000270
  H        0.5071850    -2.5374850    -0.0000570
  H        3.0900470    -0.2640690    -0.8790850
  H        3.0900220    -0.2639380     0.8790930
  H        2.8593700    -1.7927480     0.0001130
units angstrom
no_reorient  #important for SAPT in psi4, default
symmetry c1  #important for SAPT in psi4, default
}

set PROPERTIES_ORIGIN ["COM"]
properties('MP2/aug-cc-pvtz', properties = ['dipole'])
--------------------------------------------------------------------------

    Molecular point group: c1
  Charge       = 0
  Multiplicity = 1
  Basis Set: AUG-CC-PVTZ
    Blend: AUG-CC-PVTZ
  Basis Set: (AUG-CC-PVTZ AUX)
    Blend: AUG-CC-PVTZ-JKFIT

    Orbital Energies [Eh]
    ---------------------

    Doubly Occupied:

       1A    -20.552582     2A    -20.538223     3A    -15.627711
       4A    -15.627355     5A    -11.412869     6A    -11.390611
       7A    -11.332893     8A    -11.276047     9A    -11.241760
      10A     -1.421226    11A     -1.396221    12A     -1.282049
      13A     -1.225034    14A     -1.115057    15A     -0.970206
      16A     -0.925365    17A     -0.884746    18A     -0.765604
      19A     -0.752883    20A     -0.724386    21A     -0.670027
      22A     -0.656344    23A     -0.641196    24A     -0.631133
      25A     -0.593869    26A     -0.563927    27A     -0.557338
      28A     -0.549904    29A     -0.492460    30A     -0.479066
      31A     -0.452899    32A     -0.434907    33A     -0.363545

  @DF-RHF Final Energy:  -451.64603649719425

   => Energetics <=

    Nuclear Repulsion Energy =            436.0311717591786191
    One-Electron Energy =               -1480.2555339673003800
    Two-Electron Energy =                 592.5783257109276292
    Total Energy =                       -451.6460364971942454
  Basis Set: (AUG-CC-PVTZ AUX)
    Blend: AUG-CC-PVTZ-RI
    Molecular point group: c1

    Geometry (in Angstrom), charge = 0, multiplicity = 1:

       Center              X                  Y                   Z               Mass
    ------------   -----------------  -----------------  -----------------  -----------------
         N           -1.084350561967    -1.265914120377     0.000004406562    14.003074004430
         C            0.381949138033    -1.607275920377    -0.000016093438    12.000000000000
         C            1.193482438033    -0.523051120377    -0.000016593438    12.000000000000
         C            0.722438438033     0.861410879623    -0.000140593438    12.000000000000
         N           -0.673714561967     0.997675879623    -0.000014593438    14.003074004430
         C           -1.639901561967     0.003148879623     0.000147406562    12.000000000000
         C            2.672213438033    -0.753424120377     0.000030406562    12.000000000000
         O            1.450171438033     1.853217879623     0.000042406562    15.994914619570
         O           -2.846262561967     0.214750879623    -0.000035593438    15.994914619570
         H           -1.754971561967    -2.025224120377    -0.000049593438     1.007825032230
         H           -1.028183561967     1.950973879623    -0.000028593438     1.007825032230
         H            0.549379438033    -2.567113120377    -0.000058593438     1.007825032230
         H            3.132241438033    -0.293697120377    -0.879086593438     1.007825032230
         H            3.132216438033    -0.293566120377     0.879091406562     1.007825032230
         H            2.901564438033    -1.822376120377     0.000111406562     1.007825032230

  Basis Set: AUG-CC-PVTZ
    Blend: AUG-CC-PVTZ
  Basis Set: (AUG-CC-PVTZ AUX)
    Blend: AUG-CC-PVTZ-JKFIT
	 Reference Energy          =    -451.6460364971942454 [Eh]
	 Singles Energy            =      -0.0000000000000000 [Eh]
	 Same-Spin Energy          =      -0.4586594469145330 [Eh]
	 Opposite-Spin Energy      =      -1.3870234871233256 [Eh]
	 Correlation Energy        =      -1.8456829340378587 [Eh]
	 Total Energy              =    -453.4917194312321271 [Eh]

	 ================> DF-SCS-MP2 Energies <==================
	-----------------------------------------------------------
	 SCS Same-Spin Scale       =       0.3333333333333333 [-]
	 SCS Opposite-Spin Scale   =       1.2000000000000000 [-]
	 SCS Same-Spin Energy      =      -0.1528864823048443 [Eh]
	 SCS Opposite-Spin Energy  =      -1.6644281845479907 [Eh]
	 SCS Correlation Energy    =      -1.8173146668528350 [Eh]
	 SCS Total Energy          =    -453.4633511640470829 [Eh]
	-----------------------------------------------------------

  Dipole Moment: [D]
     X:     1.5835      Y:    -4.0729      Z:    -0.0001     Total:     4.3699

*** Psi4 exiting successfully. Buy a developer a beer!
