                               Psi4 1.3.2 release

  ==> Input File <==

--------------------------------------------------------------------------
#psi4
#
memory 32 gb

molecule  {
0 1
  N       -1.1265450    -1.2362860     0.0000060
  C        0.2308680    -1.4868800    -0.0000290
  C        1.1512880    -0.4934230    -0.0000150
  C        0.6802440     0.8910390    -0.0001390
  N       -0.7159090     1.0273040    -0.0000130
  C       -1.6820960     0.0327770     0.0001490
  C        2.6300190    -0.7237960     0.0000320
  O        1.2896612     1.7215966     0.0000142
  O       -2.8884570     0.2443790    -0.0000340
  H       -1.7971660    -1.9955960    -0.0000480
  H       -1.0703780     1.9806020    -0.0000270
  H        0.5071850    -2.5374850    -0.0000570
  H        3.0900470    -0.2640690    -0.8790850
  H        3.0900220    -0.2639380     0.8790930
  H        2.8593700    -1.7927480     0.0001130
units angstrom
no_reorient  #important for SAPT in psi4, default
symmetry c1  #important for SAPT in psi4, default
}

set PROPERTIES_ORIGIN ["COM"]
properties('MP2/aug-cc-pvtz', properties = ['dipole'])
--------------------------------------------------------------------------

    Molecular point group: c1
  Charge       = 0
  Multiplicity = 1
  Basis Set: AUG-CC-PVTZ
    Blend: AUG-CC-PVTZ
  Basis Set: (AUG-CC-PVTZ AUX)
    Blend: AUG-CC-PVTZ-JKFIT

    Orbital Energies [Eh]
    ---------------------

    Doubly Occupied:

       1A    -20.545757     2A    -20.531455     3A    -15.625445
       4A    -15.601609     5A    -11.403138     6A    -11.343264
       7A    -11.316380     8A    -11.244775     9A    -11.237460
      10A     -1.547191    11A     -1.408953    12A     -1.293594
      13A     -1.228383    14A     -1.097555    15A     -0.963235
      16A     -0.902786    17A     -0.877598    18A     -0.781887
      19A     -0.757992    20A     -0.713878    21A     -0.689533
      22A     -0.686187    23A     -0.637186    24A     -0.628305
      25A     -0.616034    26A     -0.579400    27A     -0.575009
      28A     -0.554272    29A     -0.501183    30A     -0.471687
      31A     -0.439645    32A     -0.435703    33A     -0.344696

  @DF-RHF Final Energy:  -451.61322944959886

   => Energetics <=

    Nuclear Repulsion Energy =            445.9944418917320945
    One-Electron Energy =               -1500.0529961262700454
    Two-Electron Energy =                 602.4453247849390891
    Total Energy =                       -451.6132294495988617
  Basis Set: (AUG-CC-PVTZ AUX)
    Blend: AUG-CC-PVTZ-RI
    Molecular point group: c1

    Geometry (in Angstrom), charge = 0, multiplicity = 1:

       Center              X                  Y                   Z               Mass
    ------------   -----------------  -----------------  -----------------  -----------------
         N           -1.058969593878    -1.254093093877     0.000009568680    14.003074004430
         C            0.298443406122    -1.504687093877    -0.000025431320    12.000000000000
         C            1.218863406122    -0.511230093877    -0.000011431320    12.000000000000
         C            0.747819406122     0.873231906123    -0.000135431320    12.000000000000
         N           -0.648333593878     1.009496906123    -0.000009431320    14.003074004430
         C           -1.614520593878     0.014969906123     0.000152568680    12.000000000000
         C            2.697594406122    -0.741603093877     0.000035568680    12.000000000000
         O            1.357236606122     1.703789506123     0.000017768680    15.994914619570
         O           -2.820881593878     0.226571906123    -0.000030431320    15.994914619570
         H           -1.729590593878    -2.013403093877    -0.000044431320     1.007825032230
         H           -1.002802593878     1.962794906123    -0.000023431320     1.007825032230
         H            0.574760406122    -2.555292093877    -0.000053431320     1.007825032230
         H            3.157622406122    -0.281876093877    -0.879081431320     1.007825032230
         H            3.157597406122    -0.281745093877     0.879096568680     1.007825032230
         H            2.926945406122    -1.810555093877     0.000116568680     1.007825032230

  Basis Set: AUG-CC-PVTZ
    Blend: AUG-CC-PVTZ
  Basis Set: (AUG-CC-PVTZ AUX)
    Blend: AUG-CC-PVTZ-JKFIT
	 Reference Energy          =    -451.6132294495988617 [Eh]
	 Singles Energy            =      -0.0000000000000000 [Eh]
	 Same-Spin Energy          =      -0.4537516426617545 [Eh]
	 Opposite-Spin Energy      =      -1.3725959886903176 [Eh]
	 Correlation Energy        =      -1.8263476313520721 [Eh]
	 Total Energy              =    -453.4395770809509258 [Eh]

	 ================> DF-SCS-MP2 Energies <==================
	-----------------------------------------------------------
	 SCS Same-Spin Scale       =       0.3333333333333333 [-]
	 SCS Opposite-Spin Scale   =       1.2000000000000000 [-]
	 SCS Same-Spin Energy      =      -0.1512505475539181 [Eh]
	 SCS Opposite-Spin Energy  =      -1.6471151864283811 [Eh]
	 SCS Correlation Energy    =      -1.7983657339822992 [Eh]
	 SCS Total Energy          =    -453.4115951835811416 [Eh]
	-----------------------------------------------------------

  Dipole Moment: [D]
     X:     1.9892      Y:    -3.1059      Z:    -0.0001     Total:     3.6883

*** Psi4 exiting successfully. Buy a developer a beer!
