                               Psi4 1.4a3.dev225

  ==> Input File <==

--------------------------------------------------------------------------
#psi4
#
memory 32 gb

molecule  {
0 1
  N       -1.1263310    -1.2364150    -0.0000030
  C        0.2309450    -1.4868440     0.0000000
  C        1.1514300    -0.4932890    -0.0000070
  C        0.6802680     0.8910870    -0.0000240
  N       -0.7160800     1.0272360    -0.0000150
  C       -1.6820330     0.0328590    -0.0000240
  C        2.6301110    -0.7238270     0.0000080
  O        1.4075700     1.8832080     0.0000170
  O       -2.9081934     0.2474965     0.0000258
  H       -1.7968290    -1.9958110     0.0000150
  H       -1.0704590     1.9805630     0.0000060
  H        0.5076420    -2.5373850     0.0000160
  H        3.0901790    -0.2641310    -0.8791000
  H        3.0901670    -0.2640930     0.8791020
  H        2.8592340    -1.7928420     0.0000320
units angstrom
no_reorient  #important for SAPT in psi4, default
symmetry c1  #important for SAPT in psi4, default
}

set PROPERTIES_ORIGIN ["COM"]
properties('MP2/aug-cc-pvtz', properties = ['dipole'])
--------------------------------------------------------------------------

    Molecular point group: c1
  Charge       = 0
  Multiplicity = 1
  Basis Set: AUG-CC-PVTZ
    Blend: AUG-CC-PVTZ
  Basis Set: (AUG-CC-PVTZ AUX)
    Blend: AUG-CC-PVTZ-JKFIT

    Orbital Energies [Eh]
    ---------------------

    Doubly Occupied:

       1A    -20.544523     2A    -20.543815     3A    -15.642977
       4A    -15.631013     5A    -11.421667     6A    -11.382538
       7A    -11.333289     8A    -11.264352     9A    -11.240486
      10A     -1.420540    11A     -1.390110    12A     -1.303000
      13A     -1.241481    14A     -1.109360    15A     -0.971456
      16A     -0.916390    17A     -0.895145    18A     -0.772179
      19A     -0.765654    20A     -0.708537    21A     -0.674363
      22A     -0.664121    23A     -0.635607    24A     -0.616783
      25A     -0.591234    26A     -0.569515    27A     -0.558898
      28A     -0.552798    29A     -0.509083    30A     -0.477334
      31A     -0.449132    32A     -0.434635    33A     -0.355574

  @DF-RHF Final Energy:  -451.66956726155308

   => Energetics <=

    Nuclear Repulsion Energy =            437.4893255904319744
    One-Electron Energy =               -1483.1426049713954853
    Two-Electron Energy =                 593.9837121194104839
    Total Energy =                       -451.6695672615530839
  Basis Set: (AUG-CC-PVTZ AUX)
    Blend: AUG-CC-PVTZ-RI
    Molecular point group: c1

    Geometry (in Angstrom), charge = 0, multiplicity = 1:

       Center              X                  Y                   Z               Mass
    ------------   -----------------  -----------------  -----------------  -----------------
         N           -1.071263221262    -1.275126285013    -0.000002524627    14.003074004430
         C            0.286012778738    -1.525555285013     0.000000475373    12.000000000000
         C            1.206497778738    -0.532000285013    -0.000006524627    12.000000000000
         C            0.735335778738     0.852375714987    -0.000023524627    12.000000000000
         N           -0.661012221262     0.988524714987    -0.000014524627    14.003074004430
         C           -1.626965221262    -0.005852285013    -0.000023524627    12.000000000000
         C            2.685178778738    -0.762538285013     0.000008475373    12.000000000000
         O            1.462637778738     1.844496714987     0.000017475373    15.994914619570
         O           -2.853125621262     0.208785214987     0.000026275373    15.994914619570
         H           -1.741761221262    -2.034522285013     0.000015475373     1.007825032230
         H           -1.015391221262     1.941851714987     0.000006475373     1.007825032230
         H            0.562709778738    -2.576096285013     0.000016475373     1.007825032230
         H            3.145246778738    -0.302842285013    -0.879099524627     1.007825032230
         H            3.145234778738    -0.302804285013     0.879102475373     1.007825032230
         H            2.914301778738    -1.831553285013     0.000032475373     1.007825032230

  Basis Set: AUG-CC-PVTZ
    Blend: AUG-CC-PVTZ
  Basis Set: (AUG-CC-PVTZ AUX)
    Blend: AUG-CC-PVTZ-JKFIT
	 Reference Energy          =    -451.6695672615530839 [Eh]
	 Singles Energy            =      -0.0000000000000000 [Eh]
	 Same-Spin Energy          =      -0.4594753492309974 [Eh]
	 Opposite-Spin Energy      =      -1.3859537431523692 [Eh]
	 Correlation Energy        =      -1.8454290923833665 [Eh]
	 Total Energy              =    -453.5149963539364535 [Eh]

	 ================> DF-SCS-MP2 Energies <==================
	-----------------------------------------------------------
	 SCS Same-Spin Scale       =       0.3333333333333333 [-]
	 SCS Opposite-Spin Scale   =       1.2000000000000000 [-]
	 SCS Same-Spin Energy      =      -0.1531584497436658 [Eh]
	 SCS Opposite-Spin Energy  =      -1.6631444917828431 [Eh]
	 SCS Correlation Energy    =      -1.8163029415265088 [Eh]
	 SCS Total Energy          =    -453.4858702030795712 [Eh]
	-----------------------------------------------------------

  Dipole Moment: [D]
     X:     1.1961      Y:    -4.2104      Z:    -0.0001     Total:     4.3770

*** Psi4 exiting successfully. Buy a developer a beer!
