                               Psi4 1.3.2 release

  ==> Input File <==

--------------------------------------------------------------------------
#psi4
#
memory 32 gb

molecule  {
0 1
  N       -1.1169725    -1.1890656     0.0000073
  C        0.2308680    -1.4868800    -0.0000290
  C        1.1512880    -0.4934230    -0.0000150
  C        0.6802440     0.8910390    -0.0001390
  N       -0.7159090     1.0273040    -0.0000130
  C       -1.6820960     0.0327770     0.0001490
  C        2.6300190    -0.7237960     0.0000320
  O        1.4079770     1.8828460     0.0000440
  O       -2.8884570     0.2443790    -0.0000340
  H       -1.7971660    -1.9955960    -0.0000480
  H       -1.0703780     1.9806020    -0.0000270
  H        0.5071850    -2.5374850    -0.0000570
  H        3.0900470    -0.2640690    -0.8790850
  H        3.0900220    -0.2639380     0.8790930
  H        2.8593700    -1.7927480     0.0001130
units angstrom
no_reorient  #important for SAPT in psi4, default
symmetry c1  #important for SAPT in psi4, default
}

set PROPERTIES_ORIGIN ["COM"]
properties('MP2/aug-cc-pvtz', properties = ['dipole'])
--------------------------------------------------------------------------

    Molecular point group: c1
  Charge       = 0
  Multiplicity = 1
  Basis Set: AUG-CC-PVTZ
    Blend: AUG-CC-PVTZ
  Basis Set: (AUG-CC-PVTZ AUX)
    Blend: AUG-CC-PVTZ-JKFIT

    Orbital Energies [Eh]
    ---------------------

    Doubly Occupied:

       1A    -20.542674     2A    -20.539931     3A    -15.643180
       4A    -15.625615     5A    -11.412955     6A    -11.380837
       7A    -11.332792     8A    -11.264506     9A    -11.240255
      10A     -1.428809    11A     -1.391421    12A     -1.308618
      13A     -1.237256    14A     -1.110532    15A     -0.975559
      16A     -0.917466    17A     -0.889783    18A     -0.771764
      19A     -0.762186    20A     -0.707250    21A     -0.669080
      22A     -0.667683    23A     -0.640830    24A     -0.615270
      25A     -0.592773    26A     -0.568086    27A     -0.558493
      28A     -0.551846    29A     -0.508730    30A     -0.478940
      31A     -0.447424    32A     -0.433390    33A     -0.355760

  @DF-RHF Final Energy:  -451.66856567205849

   => Energetics <=

    Nuclear Repulsion Energy =            439.2060129589110034
    One-Electron Energy =               -1486.6057693910472608
    Two-Electron Energy =                 595.7311907600776522
    Total Energy =                       -451.6685656720585484
  Basis Set: (AUG-CC-PVTZ AUX)
    Blend: AUG-CC-PVTZ-RI
    Molecular point group: c1

    Geometry (in Angstrom), charge = 0, multiplicity = 1:

       Center              X                  Y                   Z               Mass
    ------------   -----------------  -----------------  -----------------  -----------------
         N           -1.065474914238    -1.232581404448     0.000006942617    14.003074004430
         C            0.282365585762    -1.530395804448    -0.000029357383    12.000000000000
         C            1.202785585762    -0.536938804448    -0.000015357383    12.000000000000
         C            0.731741585762     0.847523195552    -0.000139357383    12.000000000000
         N           -0.664411414238     0.983788195552    -0.000013357383    14.003074004430
         C           -1.630598414238    -0.010738804448     0.000148642617    12.000000000000
         C            2.681516585762    -0.767311804448     0.000031642617    12.000000000000
         O            1.459474585762     1.839330195552     0.000043642617    15.994914619570
         O           -2.836959414238     0.200863195552    -0.000034357383    15.994914619570
         H           -1.745668414238    -2.039111804448    -0.000048357383     1.007825032230
         H           -1.018880414238     1.937086195552    -0.000027357383     1.007825032230
         H            0.558682585762    -2.581000804448    -0.000057357383     1.007825032230
         H            3.141544585762    -0.307584804448    -0.879085357383     1.007825032230
         H            3.141519585762    -0.307453804448     0.879092642617     1.007825032230
         H            2.910867585762    -1.836263804448     0.000112642617     1.007825032230

  Basis Set: AUG-CC-PVTZ
    Blend: AUG-CC-PVTZ
  Basis Set: (AUG-CC-PVTZ AUX)
    Blend: AUG-CC-PVTZ-JKFIT
	 Reference Energy          =    -451.6685656720584916 [Eh]
	 Singles Energy            =      -0.0000000000000000 [Eh]
	 Same-Spin Energy          =      -0.4594313164306948 [Eh]
	 Opposite-Spin Energy      =      -1.3851975104249574 [Eh]
	 Correlation Energy        =      -1.8446288268556521 [Eh]
	 Total Energy              =    -453.5131944989141175 [Eh]

	 ================> DF-SCS-MP2 Energies <==================
	-----------------------------------------------------------
	 SCS Same-Spin Scale       =       0.3333333333333333 [-]
	 SCS Opposite-Spin Scale   =       1.2000000000000000 [-]
	 SCS Same-Spin Energy      =      -0.1531437721435649 [Eh]
	 SCS Opposite-Spin Energy  =      -1.6622370125099488 [Eh]
	 SCS Correlation Energy    =      -1.8153807846535137 [Eh]
	 SCS Total Energy          =    -453.4839464567120331 [Eh]
	-----------------------------------------------------------

  Dipole Moment: [D]
     X:     1.1611      Y:    -4.3488      Z:    -0.0001     Total:     4.5011

*** Psi4 exiting successfully. Buy a developer a beer!
