                               Psi4 1.3.2 release

  ==> Input File <==

--------------------------------------------------------------------------
#psi4
#
memory 32 gb

molecule  {
0 1
  N       -1.1265450    -1.2362860     0.0000060
  C        0.2308680    -1.4868800    -0.0000290
  C        1.1512880    -0.4934230    -0.0000150
  C        0.6802440     0.8910390    -0.0001390
  N       -0.7159090     1.0273040    -0.0000130
  C       -1.6820960     0.0327770     0.0001490
  C        2.6300190    -0.7237960     0.0000320
  O        1.4079770     1.8828460     0.0000440
  O       -2.8884570     0.2443790    -0.0000340
  H       -1.7971660    -1.9955960    -0.0000480
  H       -1.0703780     1.9806020    -0.0000270
  H        0.5326207    -2.6341960    -0.0000596
  H        3.0900470    -0.2640690    -0.8790850
  H        3.0900220    -0.2639380     0.8790930
  H        2.8593700    -1.7927480     0.0001130
units angstrom
no_reorient  #important for SAPT in psi4, default
symmetry c1  #important for SAPT in psi4, default
}

set PROPERTIES_ORIGIN ["COM"]
properties('MP2/aug-cc-pvtz', properties = ['dipole'])
--------------------------------------------------------------------------

    Molecular point group: c1
  Charge       = 0
  Multiplicity = 1
  Basis Set: AUG-CC-PVTZ
    Blend: AUG-CC-PVTZ
  Basis Set: (AUG-CC-PVTZ AUX)
    Blend: AUG-CC-PVTZ-JKFIT

    Orbital Energies [Eh]
    ---------------------

    Doubly Occupied:

       1A    -20.545017     2A    -20.543524     3A    -15.641440
       4A    -15.628890     5A    -11.418836     6A    -11.381735
       7A    -11.342414     8A    -11.263304     9A    -11.239342
      10A     -1.427831    11A     -1.392447    12A     -1.305128
      13A     -1.240258    14A     -1.107192    15A     -0.967569
      16A     -0.910532    17A     -0.893795    18A     -0.771102
      19A     -0.765127    20A     -0.695718    21A     -0.672251
      22A     -0.665570    23A     -0.638012    24A     -0.608322
      25A     -0.591543    26A     -0.568329    27A     -0.558340
      28A     -0.551757    29A     -0.511565    30A     -0.478927
      31A     -0.448624    32A     -0.435143    33A     -0.354802

  @DF-RHF Final Energy:  -451.66486701982001

   => Energetics <=

    Nuclear Repulsion Energy =            437.6841714050348742
    One-Electron Energy =               -1483.5693059521697705
    Two-Electron Energy =                 594.2202675273148316
    Total Energy =                       -451.6648670198200080
  Basis Set: (AUG-CC-PVTZ AUX)
    Blend: AUG-CC-PVTZ-RI
    Molecular point group: c1

    Geometry (in Angstrom), charge = 0, multiplicity = 1:

       Center              X                  Y                   Z               Mass
    ------------   -----------------  -----------------  -----------------  -----------------
         N           -1.074187312899    -1.273782438366     0.000005807834    14.003074004430
         C            0.283225687101    -1.524376438366    -0.000029192166    12.000000000000
         C            1.203645687101    -0.530919438366    -0.000015192166    12.000000000000
         C            0.732601687101     0.853542561634    -0.000139192166    12.000000000000
         N           -0.663551312899     0.989807561634    -0.000013192166    14.003074004430
         C           -1.629738312899    -0.004719438366     0.000148807834    12.000000000000
         C            2.682376687101    -0.761292438366     0.000031807834    12.000000000000
         O            1.460334687101     1.845349561634     0.000043807834    15.994914619570
         O           -2.836099312899     0.206882561634    -0.000034192166    15.994914619570
         H           -1.744808312899    -2.033092438366    -0.000048192166     1.007825032230
         H           -1.018020312899     1.943105561634    -0.000027192166     1.007825032230
         H            0.584978387101    -2.671692438366    -0.000059792166     1.007825032230
         H            3.142404687101    -0.301565438366    -0.879085192166     1.007825032230
         H            3.142379687101    -0.301434438366     0.879092807834     1.007825032230
         H            2.911727687101    -1.830244438366     0.000112807834     1.007825032230

  Basis Set: AUG-CC-PVTZ
    Blend: AUG-CC-PVTZ
  Basis Set: (AUG-CC-PVTZ AUX)
    Blend: AUG-CC-PVTZ-JKFIT
	 Reference Energy          =    -451.6648670198200080 [Eh]
	 Singles Energy            =      -0.0000000000000000 [Eh]
	 Same-Spin Energy          =      -0.4592998492987769 [Eh]
	 Opposite-Spin Energy      =      -1.3857333935963023 [Eh]
	 Correlation Energy        =      -1.8450332428950793 [Eh]
	 Total Energy              =    -453.5099002627150639 [Eh]

	 ================> DF-SCS-MP2 Energies <==================
	-----------------------------------------------------------
	 SCS Same-Spin Scale       =       0.3333333333333333 [-]
	 SCS Opposite-Spin Scale   =       1.2000000000000000 [-]
	 SCS Same-Spin Energy      =      -0.1530999497662590 [Eh]
	 SCS Opposite-Spin Energy  =      -1.6628800723155628 [Eh]
	 SCS Correlation Energy    =      -1.8159800220818219 [Eh]
	 SCS Total Energy          =    -453.4808470419018249 [Eh]
	-----------------------------------------------------------

  Dipole Moment: [D]
     X:     1.0238      Y:    -4.1743      Z:    -0.0001     Total:     4.2980

*** Psi4 exiting successfully. Buy a developer a beer!
