                               Psi4 1.4a3.dev225

  ==> Input File <==

--------------------------------------------------------------------------
#psi4
#
memory 32 gb

molecule  {
0 1
  N       -1.1263310    -1.2364150    -0.0000030
  C        0.2309450    -1.4868440     0.0000000
  C        1.1514300    -0.4932890    -0.0000070
  C        0.6802680     0.8910870    -0.0000240
  N       -0.7160800     1.0272360    -0.0000150
  C       -1.6820330     0.0328590    -0.0000240
  C        2.6301110    -0.7238270     0.0000080
  O        1.4075700     1.8832080     0.0000170
  O       -2.8392419     0.2354267     0.0000230
  H       -1.7968290    -1.9958110     0.0000150
  H       -1.0704590     1.9805630     0.0000060
  H        0.5076420    -2.5373850     0.0000160
  H        3.0901790    -0.2641310    -0.8791000
  H        3.0901670    -0.2640930     0.8791020
  H        2.8592340    -1.7928420     0.0000320
units angstrom
no_reorient  #important for SAPT in psi4, default
symmetry c1  #important for SAPT in psi4, default
}

set PROPERTIES_ORIGIN ["COM"]
properties('MP2/aug-cc-pvtz', properties = ['dipole'])
--------------------------------------------------------------------------

    Molecular point group: c1
  Charge       = 0
  Multiplicity = 1
  Basis Set: AUG-CC-PVTZ
    Blend: AUG-CC-PVTZ
  Basis Set: (AUG-CC-PVTZ AUX)
    Blend: AUG-CC-PVTZ-JKFIT

    Orbital Energies [Eh]
    ---------------------

    Doubly Occupied:

       1A    -20.546300     2A    -20.540000     3A    -15.634531
       4A    -15.622448     5A    -11.409202     6A    -11.377598
       7A    -11.329006     8A    -11.259052     9A    -11.237155
      10A     -1.453333    11A     -1.392942    12A     -1.307411
      13A     -1.236928    14A     -1.104793    15A     -0.966720
      16A     -0.913185    17A     -0.889182    18A     -0.768031
      19A     -0.764921    20A     -0.704956    21A     -0.676851
      22A     -0.669451    23A     -0.649063    24A     -0.616016
      25A     -0.592765    26A     -0.566196    27A     -0.556194
      28A     -0.549586    29A     -0.516395    30A     -0.484570
      31A     -0.446343    32A     -0.434714    33A     -0.351602

  @DF-RHF Final Energy:  -451.67478708752236

   => Energetics <=

    Nuclear Repulsion Energy =            440.0019444402913678
    One-Electron Energy =               -1488.2185799103883710
    Two-Electron Energy =                 596.5418483825748126
    Total Energy =                       -451.6747870875223043
  Basis Set: (AUG-CC-PVTZ AUX)
    Blend: AUG-CC-PVTZ-RI
    Molecular point group: c1

    Geometry (in Angstrom), charge = 0, multiplicity = 1:

       Center              X                  Y                   Z               Mass
    ------------   -----------------  -----------------  -----------------  -----------------
         N           -1.080013203334    -1.273594620965    -0.000002169305    14.003074004430
         C            0.277262796666    -1.524023620965     0.000000830695    12.000000000000
         C            1.197747796666    -0.530468620965    -0.000006169305    12.000000000000
         C            0.726585796666     0.853907379035    -0.000023169305    12.000000000000
         N           -0.669762203334     0.990056379035    -0.000014169305    14.003074004430
         C           -1.635715203334    -0.004320620965    -0.000023169305    12.000000000000
         C            2.676428796666    -0.761006620965     0.000008830695    12.000000000000
         O            1.453887796666     1.846028379035     0.000017830695    15.994914619570
         O           -2.792924103334     0.198247079035     0.000023830695    15.994914619570
         H           -1.750511203334    -2.032990620965     0.000015830695     1.007825032230
         H           -1.024141203334     1.943383379035     0.000006830695     1.007825032230
         H            0.553959796666    -2.574564620965     0.000016830695     1.007825032230
         H            3.136496796666    -0.301310620965    -0.879099169305     1.007825032230
         H            3.136484796666    -0.301272620965     0.879102830695     1.007825032230
         H            2.905551796666    -1.830021620965     0.000032830695     1.007825032230

  Basis Set: AUG-CC-PVTZ
    Blend: AUG-CC-PVTZ
  Basis Set: (AUG-CC-PVTZ AUX)
    Blend: AUG-CC-PVTZ-JKFIT
	 Reference Energy          =    -451.6747870875223612 [Eh]
	 Singles Energy            =      -0.0000000000000000 [Eh]
	 Same-Spin Energy          =      -0.4576730878376751 [Eh]
	 Opposite-Spin Energy      =      -1.3817358318650448 [Eh]
	 Correlation Energy        =      -1.8394089197027199 [Eh]
	 Total Energy              =    -453.5141960072251095 [Eh]

	 ================> DF-SCS-MP2 Energies <==================
	-----------------------------------------------------------
	 SCS Same-Spin Scale       =       0.3333333333333333 [-]
	 SCS Opposite-Spin Scale   =       1.2000000000000000 [-]
	 SCS Same-Spin Energy      =      -0.1525576959458917 [Eh]
	 SCS Opposite-Spin Energy  =      -1.6580829982380536 [Eh]
	 SCS Correlation Energy    =      -1.8106406941839452 [Eh]
	 SCS Total Energy          =    -453.4854277817063348 [Eh]
	-----------------------------------------------------------

  Dipole Moment: [D]
     X:     0.6303      Y:    -4.1266      Z:    -0.0001     Total:     4.1745

*** Psi4 exiting successfully. Buy a developer a beer!
