                               Psi4 1.3.2 release

  ==> Input File <==

--------------------------------------------------------------------------
#psi4
#
memory 32 gb

molecule  {
0 1
  N       -1.1265450    -1.2362860     0.0000060
  C        0.2308680    -1.4868800    -0.0000290
  C        1.1512880    -0.4934230    -0.0000150
  C        0.6583522     0.7458477    -0.0001269
  N       -0.7159090     1.0273040    -0.0000130
  C       -1.6820960     0.0327770     0.0001490
  C        2.6300190    -0.7237960     0.0000320
  O        1.4079770     1.8828460     0.0000440
  O       -2.8884570     0.2443790    -0.0000340
  H       -1.7971660    -1.9955960    -0.0000480
  H       -1.0703780     1.9806020    -0.0000270
  H        0.5071850    -2.5374850    -0.0000570
  H        3.0900470    -0.2640690    -0.8790850
  H        3.0900220    -0.2639380     0.8790930
  H        2.8593700    -1.7927480     0.0001130
units angstrom
no_reorient  #important for SAPT in psi4, default
symmetry c1  #important for SAPT in psi4, default
}

set PROPERTIES_ORIGIN ["COM"]
properties('MP2/aug-cc-pvtz', properties = ['dipole'])
--------------------------------------------------------------------------

    Molecular point group: c1
  Charge       = 0
  Multiplicity = 1
  Basis Set: AUG-CC-PVTZ
    Blend: AUG-CC-PVTZ
  Basis Set: (AUG-CC-PVTZ AUX)
    Blend: AUG-CC-PVTZ-JKFIT

    Orbital Energies [Eh]
    ---------------------

    Doubly Occupied:

       1A    -20.549103     2A    -20.514811     3A    -15.656854
       4A    -15.636912     5A    -11.421291     6A    -11.376134
       7A    -11.355134     8A    -11.261886     9A    -11.244035
      10A     -1.432202    11A     -1.340502    12A     -1.299062
      13A     -1.226759    14A     -1.134643    15A     -0.978871
      16A     -0.944302    17A     -0.890005    18A     -0.787290
      19A     -0.779329    20A     -0.720974    21A     -0.672504
      22A     -0.672017    23A     -0.644923    24A     -0.594932
      25A     -0.588019    26A     -0.568317    27A     -0.547703
      28A     -0.537395    29A     -0.518714    30A     -0.479152
      31A     -0.427213    32A     -0.416995    33A     -0.361618

  @DF-RHF Final Energy:  -451.62866370647527

   => Energetics <=

    Nuclear Repulsion Energy =            438.9274599382594602
    One-Electron Energy =               -1485.9530447080737758
    Two-Electron Energy =                 595.3969210633390503
    Total Energy =                       -451.6286637064752085
  Basis Set: (AUG-CC-PVTZ AUX)
    Blend: AUG-CC-PVTZ-RI
    Molecular point group: c1

    Geometry (in Angstrom), charge = 0, multiplicity = 1:

       Center              X                  Y                   Z               Mass
    ------------   -----------------  -----------------  -----------------  -----------------
         N           -1.071899708659    -1.260732695181     0.000004635056    14.003074004430
         C            0.285513291341    -1.511326695181    -0.000030364944    12.000000000000
         C            1.205933291341    -0.517869695181    -0.000016364944    12.000000000000
         C            0.712997491341     0.721401004819    -0.000128264944    12.000000000000
         N           -0.661263708659     1.002857304819    -0.000014364944    14.003074004430
         C           -1.627450708659     0.008330304819     0.000147635056    12.000000000000
         C            2.684664291341    -0.748242695181     0.000030635056    12.000000000000
         O            1.462622291341     1.858399304819     0.000042635056    15.994914619570
         O           -2.833811708659     0.219932304819    -0.000035364944    15.994914619570
         H           -1.742520708659    -2.020042695181    -0.000049364944     1.007825032230
         H           -1.015732708659     1.956155304819    -0.000028364944     1.007825032230
         H            0.561830291341    -2.561931695181    -0.000058364944     1.007825032230
         H            3.144692291341    -0.288515695181    -0.879086364944     1.007825032230
         H            3.144667291341    -0.288384695181     0.879091635056     1.007825032230
         H            2.914015291341    -1.817194695181     0.000111635056     1.007825032230

  Basis Set: AUG-CC-PVTZ
    Blend: AUG-CC-PVTZ
  Basis Set: (AUG-CC-PVTZ AUX)
    Blend: AUG-CC-PVTZ-JKFIT
	 Reference Energy          =    -451.6286637064752654 [Eh]
	 Singles Energy            =      -0.0000000000000000 [Eh]
	 Same-Spin Energy          =      -0.4634570333793534 [Eh]
	 Opposite-Spin Energy      =      -1.3922705944542642 [Eh]
	 Correlation Energy        =      -1.8557276278336174 [Eh]
	 Total Energy              =    -453.4843913343088957 [Eh]

	 ================> DF-SCS-MP2 Energies <==================
	-----------------------------------------------------------
	 SCS Same-Spin Scale       =       0.3333333333333333 [-]
	 SCS Opposite-Spin Scale   =       1.2000000000000000 [-]
	 SCS Same-Spin Energy      =      -0.1544856777931178 [Eh]
	 SCS Opposite-Spin Energy  =      -1.6707247133451169 [Eh]
	 SCS Correlation Energy    =      -1.8252103911382347 [Eh]
	 SCS Total Energy          =    -453.4538740976134932 [Eh]
	-----------------------------------------------------------

  Dipole Moment: [D]
     X:     0.6390      Y:    -5.1129      Z:    -0.0000     Total:     5.1527

*** Psi4 exiting successfully. Buy a developer a beer!
