                               Psi4 1.4a3.dev225

  ==> Input File <==

--------------------------------------------------------------------------
#psi4
#
memory 32 gb

molecule  {
0 1
  N       -1.1263310    -1.2364150    -0.0000030
  C        0.2309450    -1.4868440     0.0000000
  C        1.1514300    -0.4932890    -0.0000070
  C        0.6802680     0.8910870    -0.0000240
  N       -0.7160800     1.0272360    -0.0000150
  C       -1.6820330     0.0328590    -0.0000240
  C        2.6301110    -0.7238270     0.0000080
  O        1.4075700     1.8832080     0.0000170
  O       -2.8884930     0.2440480     0.0000250
  H       -1.7968290    -1.9958110     0.0000150
  H       -1.0878807     2.0274297     0.0000070
  H        0.5076420    -2.5373850     0.0000160
  H        3.0901790    -0.2641310    -0.8791000
  H        3.0901670    -0.2640930     0.8791020
  H        2.8592340    -1.7928420     0.0000320
units angstrom
no_reorient  #important for SAPT in psi4, default
symmetry c1  #important for SAPT in psi4, default
}

set PROPERTIES_ORIGIN ["COM"]
properties('MP2/aug-cc-pvtz', properties = ['dipole'])
--------------------------------------------------------------------------

    Molecular point group: c1
  Charge       = 0
  Multiplicity = 1
  Basis Set: AUG-CC-PVTZ
    Blend: AUG-CC-PVTZ
  Basis Set: (AUG-CC-PVTZ AUX)
    Blend: AUG-CC-PVTZ-JKFIT

    Orbital Energies [Eh]
    ---------------------

    Doubly Occupied:

       1A    -20.543939     2A    -20.542662     3A    -15.640368
       4A    -15.632127     5A    -11.417792     6A    -11.380733
       7A    -11.331773     8A    -11.262677     9A    -11.239367
      10A     -1.426220    11A     -1.391419    12A     -1.304396
      13A     -1.235235    14A     -1.107625    15A     -0.969774
      16A     -0.911928    17A     -0.891539    18A     -0.767354
      19A     -0.764624    20A     -0.700416    21A     -0.672209
      22A     -0.664495    23A     -0.639544    24A     -0.615080
      25A     -0.591234    26A     -0.567812    27A     -0.557516
      28A     -0.551280    29A     -0.510815    30A     -0.479056
      31A     -0.447960    32A     -0.433711    33A     -0.354183

  @DF-RHF Final Energy:  -451.66872416135851

   => Energetics <=

    Nuclear Repulsion Energy =            437.8796056246407602
    One-Electron Energy =               -1484.0029363737589847
    Two-Electron Energy =                 594.4546065877595993
    Total Energy =                       -451.6687241613585684
  Basis Set: (AUG-CC-PVTZ AUX)
    Blend: AUG-CC-PVTZ-RI
    Molecular point group: c1

    Geometry (in Angstrom), charge = 0, multiplicity = 1:

       Center              X                  Y                   Z               Mass
    ------------   -----------------  -----------------  -----------------  -----------------
         N           -1.073623910565    -1.275063409374    -0.000002431102    14.003074004430
         C            0.283652089435    -1.525492409374     0.000000568898    12.000000000000
         C            1.204137089435    -0.531937409374    -0.000006431102    12.000000000000
         C            0.732975089435     0.852438590626    -0.000023431102    12.000000000000
         N           -0.663372910565     0.988587590626    -0.000014431102    14.003074004430
         C           -1.629325910565    -0.005789409374    -0.000023431102    12.000000000000
         C            2.682818089435    -0.762475409374     0.000008568898    12.000000000000
         O            1.460277089435     1.844559590626     0.000017568898    15.994914619570
         O           -2.835785910565     0.205399590626     0.000025568898    15.994914619570
         H           -1.744121910565    -2.034459409374     0.000015568898     1.007825032230
         H           -1.035173610565     1.988781290626     0.000007568898     1.007825032230
         H            0.560349089435    -2.576033409374     0.000016568898     1.007825032230
         H            3.142886089435    -0.302779409374    -0.879099431102     1.007825032230
         H            3.142874089435    -0.302741409374     0.879102568898     1.007825032230
         H            2.911941089435    -1.831490409374     0.000032568898     1.007825032230

  Basis Set: AUG-CC-PVTZ
    Blend: AUG-CC-PVTZ
  Basis Set: (AUG-CC-PVTZ AUX)
    Blend: AUG-CC-PVTZ-JKFIT
	 Reference Energy          =    -451.6687241613585115 [Eh]
	 Singles Energy            =      -0.0000000000000000 [Eh]
	 Same-Spin Energy          =      -0.4594021282489823 [Eh]
	 Opposite-Spin Energy      =      -1.3856761561777007 [Eh]
	 Correlation Energy        =      -1.8450782844266831 [Eh]
	 Total Energy              =    -453.5138024457851884 [Eh]

	 ================> DF-SCS-MP2 Energies <==================
	-----------------------------------------------------------
	 SCS Same-Spin Scale       =       0.3333333333333333 [-]
	 SCS Opposite-Spin Scale   =       1.2000000000000000 [-]
	 SCS Same-Spin Energy      =      -0.1531340427496607 [Eh]
	 SCS Opposite-Spin Energy  =      -1.6628113874132409 [Eh]
	 SCS Correlation Energy    =      -1.8159454301629017 [Eh]
	 SCS Total Energy          =    -453.4846695915214241 [Eh]
	-----------------------------------------------------------

  Dipole Moment: [D]
     X:     1.0167      Y:    -4.1268      Z:    -0.0001     Total:     4.2502

*** Psi4 exiting successfully. Buy a developer a beer!
