                               Psi4 1.3.2 release

  ==> Input File <==

--------------------------------------------------------------------------
#psi4
#
memory 32 gb

molecule  {
0 1
  N       -1.1265450    -1.2362860     0.0000060
  C        0.2308680    -1.4868800    -0.0000290
  C        1.2467157    -0.4571922    -0.0000293
  C        0.6802440     0.8910390    -0.0001390
  N       -0.7159090     1.0273040    -0.0000130
  C       -1.6820960     0.0327770     0.0001490
  C        2.6300190    -0.7237960     0.0000320
  O        1.4079770     1.8828460     0.0000440
  O       -2.8884570     0.2443790    -0.0000340
  H       -1.7971660    -1.9955960    -0.0000480
  H       -1.0703780     1.9806020    -0.0000270
  H        0.5071850    -2.5374850    -0.0000570
  H        3.0900470    -0.2640690    -0.8790850
  H        3.0900220    -0.2639380     0.8790930
  H        2.8593700    -1.7927480     0.0001130
units angstrom
no_reorient  #important for SAPT in psi4, default
symmetry c1  #important for SAPT in psi4, default
}

set PROPERTIES_ORIGIN ["COM"]
properties('MP2/aug-cc-pvtz', properties = ['dipole'])
--------------------------------------------------------------------------

    Molecular point group: c1
  Charge       = 0
  Multiplicity = 1
  Basis Set: AUG-CC-PVTZ
    Blend: AUG-CC-PVTZ
  Basis Set: (AUG-CC-PVTZ AUX)
    Blend: AUG-CC-PVTZ-JKFIT

    Orbital Energies [Eh]
    ---------------------

    Doubly Occupied:

       1A    -20.546348     2A    -20.536356     3A    -15.646609
       4A    -15.630478     5A    -11.419791     6A    -11.377479
       7A    -11.343788     8A    -11.269644     9A    -11.234708
      10A     -1.428268    11A     -1.389602    12A     -1.304578
      13A     -1.240693    14A     -1.108827    15A     -0.975964
      16A     -0.914668    17A     -0.889525    18A     -0.773438
      19A     -0.760510    20A     -0.706096    21A     -0.672934
      22A     -0.665037    23A     -0.639483    24A     -0.613318
      25A     -0.598866    26A     -0.595631    27A     -0.557507
      28A     -0.543615    29A     -0.508475    30A     -0.479545
      31A     -0.443951    32A     -0.434513    33A     -0.337149

  @DF-RHF Final Energy:  -451.65327483625452

   => Energetics <=

    Nuclear Repulsion Energy =            437.4751828841009456
    One-Electron Energy =               -1483.0821286876769136
    Two-Electron Energy =                 593.9536709673213863
    Total Energy =                       -451.6532748362544680
  Basis Set: (AUG-CC-PVTZ AUX)
    Blend: AUG-CC-PVTZ-RI
    Molecular point group: c1

    Geometry (in Angstrom), charge = 0, multiplicity = 1:

       Center              X                  Y                   Z               Mass
    ------------   -----------------  -----------------  -----------------  -----------------
         N           -1.083069188999    -1.278005105813     0.000007148485    14.003074004430
         C            0.274343811001    -1.528599105813    -0.000027851515    12.000000000000
         C            1.290191511001    -0.498911305813    -0.000028151515    12.000000000000
         C            0.723719811001     0.849319894187    -0.000137851515    12.000000000000
         N           -0.672433188999     0.985584894187    -0.000011851515    14.003074004430
         C           -1.638620188999    -0.008942105813     0.000150148485    12.000000000000
         C            2.673494811001    -0.765515105813     0.000033148485    12.000000000000
         O            1.451452811001     1.841126894187     0.000045148485    15.994914619570
         O           -2.844981188999     0.202659894187    -0.000032851515    15.994914619570
         H           -1.753690188999    -2.037315105813    -0.000046851515     1.007825032230
         H           -1.026902188999     1.938882894187    -0.000025851515     1.007825032230
         H            0.550660811001    -2.579204105813    -0.000055851515     1.007825032230
         H            3.133522811001    -0.305788105813    -0.879083851515     1.007825032230
         H            3.133497811001    -0.305657105813     0.879094148485     1.007825032230
         H            2.902845811001    -1.834467105813     0.000114148485     1.007825032230

  Basis Set: AUG-CC-PVTZ
    Blend: AUG-CC-PVTZ
  Basis Set: (AUG-CC-PVTZ AUX)
    Blend: AUG-CC-PVTZ-JKFIT
	 Reference Energy          =    -451.6532748362545249 [Eh]
	 Singles Energy            =      -0.0000000000000000 [Eh]
	 Same-Spin Energy          =      -0.4610278441434251 [Eh]
	 Opposite-Spin Energy      =      -1.3878992588487802 [Eh]
	 Correlation Energy        =      -1.8489271029922052 [Eh]
	 Total Energy              =    -453.5022019392467314 [Eh]

	 ================> DF-SCS-MP2 Energies <==================
	-----------------------------------------------------------
	 SCS Same-Spin Scale       =       0.3333333333333333 [-]
	 SCS Opposite-Spin Scale   =       1.2000000000000000 [-]
	 SCS Same-Spin Energy      =      -0.1536759480478084 [Eh]
	 SCS Opposite-Spin Energy  =      -1.6654791106185363 [Eh]
	 SCS Correlation Energy    =      -1.8191550586663445 [Eh]
	 SCS Total Energy          =    -453.4724298949208787 [Eh]
	-----------------------------------------------------------

  Dipole Moment: [D]
     X:     1.0559      Y:    -4.2626      Z:    -0.0000     Total:     4.3914

*** Psi4 exiting successfully. Buy a developer a beer!
