                               Psi4 1.3.2 release

  ==> Input File <==

--------------------------------------------------------------------------
#psi4
#
memory 32 gb

molecule  {
0 1
  N       -1.1265450    -1.2362860     0.0000060
  C        0.2483464    -1.5027922    -0.0000266
  C        1.1512880    -0.4934230    -0.0000150
  C        0.6802440     0.8910390    -0.0001390
  N       -0.7159090     1.0273040    -0.0000130
  C       -1.6820960     0.0327770     0.0001490
  C        2.6300190    -0.7237960     0.0000320
  O        1.4079770     1.8828460     0.0000440
  O       -2.8884570     0.2443790    -0.0000340
  H       -1.7971660    -1.9955960    -0.0000480
  H       -1.0703780     1.9806020    -0.0000270
  H        0.5071850    -2.5374850    -0.0000570
  H        3.0900470    -0.2640690    -0.8790850
  H        3.0900220    -0.2639380     0.8790930
  H        2.8593700    -1.7927480     0.0001130
units angstrom
no_reorient  #important for SAPT in psi4, default
symmetry c1  #important for SAPT in psi4, default
}

set PROPERTIES_ORIGIN ["COM"]
properties('MP2/aug-cc-pvtz', properties = ['dipole'])
--------------------------------------------------------------------------

    Molecular point group: c1
  Charge       = 0
  Multiplicity = 1
  Basis Set: AUG-CC-PVTZ
    Blend: AUG-CC-PVTZ
  Basis Set: (AUG-CC-PVTZ AUX)
    Blend: AUG-CC-PVTZ-JKFIT

    Orbital Energies [Eh]
    ---------------------

    Doubly Occupied:

       1A    -20.544789     2A    -20.543499     3A    -15.638547
       4A    -15.628432     5A    -11.417432     6A    -11.382696
       7A    -11.331937     8A    -11.264842     9A    -11.239830
      10A     -1.426050    11A     -1.392948    12A     -1.300162
      13A     -1.238168    14A     -1.109138    15A     -0.969840
      16A     -0.916394    17A     -0.892054    18A     -0.766698
      19A     -0.764583    20A     -0.710406    21A     -0.674600
      22A     -0.663328    23A     -0.640520    24A     -0.620003
      25A     -0.591880    26A     -0.567227    27A     -0.557774
      28A     -0.552517    29A     -0.508163    30A     -0.479388
      31A     -0.449552    32A     -0.434842    33A     -0.355987

  @DF-RHF Final Energy:  -451.67149655184619

   => Energetics <=

    Nuclear Repulsion Energy =            437.8080056482738200
    One-Electron Energy =               -1483.8105461971663317
    Two-Electron Energy =                 594.3310439970463221
    Total Energy =                       -451.6714965518461895
  Basis Set: (AUG-CC-PVTZ AUX)
    Blend: AUG-CC-PVTZ-RI
    Molecular point group: c1

    Geometry (in Angstrom), charge = 0, multiplicity = 1:

       Center              X                  Y                   Z               Mass
    ------------   -----------------  -----------------  -----------------  -----------------
         N           -1.075647974505    -1.273040797123     0.000005558551    14.003074004430
         C            0.299243425495    -1.539546997123    -0.000027041449    12.000000000000
         C            1.202185025495    -0.530177797123    -0.000015441449    12.000000000000
         C            0.731141025495     0.854284202877    -0.000139441449    12.000000000000
         N           -0.665011974505     0.990549202877    -0.000013441449    14.003074004430
         C           -1.631198974505    -0.003977797123     0.000148558551    12.000000000000
         C            2.680916025495    -0.760550797123     0.000031558551    12.000000000000
         O            1.458874025495     1.846091202877     0.000043558551    15.994914619570
         O           -2.837559974505     0.207624202877    -0.000034441449    15.994914619570
         H           -1.746268974505    -2.032350797123    -0.000048441449     1.007825032230
         H           -1.019480974505     1.943847202877    -0.000027441449     1.007825032230
         H            0.558082025495    -2.574239797123    -0.000057441449     1.007825032230
         H            3.140944025495    -0.300823797123    -0.879085441449     1.007825032230
         H            3.140919025495    -0.300692797123     0.879092558551     1.007825032230
         H            2.910267025495    -1.829502797123     0.000112558551     1.007825032230

  Basis Set: AUG-CC-PVTZ
    Blend: AUG-CC-PVTZ
  Basis Set: (AUG-CC-PVTZ AUX)
    Blend: AUG-CC-PVTZ-JKFIT
	 Reference Energy          =    -451.6714965518461895 [Eh]
	 Singles Energy            =      -0.0000000000000000 [Eh]
	 Same-Spin Energy          =      -0.4588392813224806 [Eh]
	 Opposite-Spin Energy      =      -1.3849496826343228 [Eh]
	 Correlation Energy        =      -1.8437889639568035 [Eh]
	 Total Energy              =    -453.5152855158029865 [Eh]

	 ================> DF-SCS-MP2 Energies <==================
	-----------------------------------------------------------
	 SCS Same-Spin Scale       =       0.3333333333333333 [-]
	 SCS Opposite-Spin Scale   =       1.2000000000000000 [-]
	 SCS Same-Spin Energy      =      -0.1529464271074935 [Eh]
	 SCS Opposite-Spin Energy  =      -1.6619396191611873 [Eh]
	 SCS Correlation Energy    =      -1.8148860462686809 [Eh]
	 SCS Total Energy          =    -453.4863825981148580 [Eh]
	-----------------------------------------------------------

  Dipole Moment: [D]
     X:     1.1276      Y:    -4.1710      Z:    -0.0001     Total:     4.3207

*** Psi4 exiting successfully. Buy a developer a beer!
