                               Psi4 1.3.2 release

  ==> Input File <==

--------------------------------------------------------------------------
#psi4
#
memory 32 gb

molecule  {
0 1
  N       -1.1265450    -1.2362860     0.0000060
  C        0.2100809    -1.5809579    -0.0000393
  C        1.1512880    -0.4934230    -0.0000150
  C        0.6802440     0.8910390    -0.0001390
  N       -0.7159090     1.0273040    -0.0000130
  C       -1.6820960     0.0327770     0.0001490
  C        2.6300190    -0.7237960     0.0000320
  O        1.4079770     1.8828460     0.0000440
  O       -2.8884570     0.2443790    -0.0000340
  H       -1.7971660    -1.9955960    -0.0000480
  H       -1.0703780     1.9806020    -0.0000270
  H        0.5071850    -2.5374850    -0.0000570
  H        3.0900470    -0.2640690    -0.8790850
  H        3.0900220    -0.2639380     0.8790930
  H        2.8593700    -1.7927480     0.0001130
units angstrom
no_reorient  #important for SAPT in psi4, default
symmetry c1  #important for SAPT in psi4, default
}

set PROPERTIES_ORIGIN ["COM"]
properties('MP2/aug-cc-pvtz', properties = ['dipole'])
--------------------------------------------------------------------------

    Molecular point group: c1
  Charge       = 0
  Multiplicity = 1
  Basis Set: AUG-CC-PVTZ
    Blend: AUG-CC-PVTZ
  Basis Set: (AUG-CC-PVTZ AUX)
    Blend: AUG-CC-PVTZ-JKFIT

    Orbital Energies [Eh]
    ---------------------

    Doubly Occupied:

       1A    -20.546190     2A    -20.541422     3A    -15.644447
       4A    -15.629051     5A    -11.421530     6A    -11.380602
       7A    -11.339873     8A    -11.271304     9A    -11.237394
      10A     -1.427985    11A     -1.391140    12A     -1.304746
      13A     -1.241661    14A     -1.094550    15A     -0.973837
      16A     -0.920728    17A     -0.890428    18A     -0.768431
      19A     -0.763953    20A     -0.726950    21A     -0.671771
      22A     -0.663900    23A     -0.644699    24A     -0.619753
      25A     -0.589563    26A     -0.562601    27A     -0.557300
      28A     -0.546279    29A     -0.509986    30A     -0.483392
      31A     -0.447861    32A     -0.434669    33A     -0.340494

  @DF-RHF Final Energy:  -451.65361680867142

   => Energetics <=

    Nuclear Repulsion Energy =            436.5232000451250656
    One-Electron Energy =               -1481.1766588079833582
    Two-Electron Energy =                 592.9998419541868770
    Total Energy =                       -451.6536168086713587
  Basis Set: (AUG-CC-PVTZ AUX)
    Blend: AUG-CC-PVTZ-RI
    Molecular point group: c1

    Geometry (in Angstrom), charge = 0, multiplicity = 1:

       Center              X                  Y                   Z               Mass
    ------------   -----------------  -----------------  -----------------  -----------------
         N           -1.072004882351    -1.265598980124     0.000006767663    14.003074004430
         C            0.264621017649    -1.610270880124    -0.000038532337    12.000000000000
         C            1.205828117649    -0.522735980124    -0.000014232337    12.000000000000
         C            0.734784117649     0.861726019876    -0.000138232337    12.000000000000
         N           -0.661368882351     0.997991019876    -0.000012232337    14.003074004430
         C           -1.627555882351     0.003464019876     0.000149767663    12.000000000000
         C            2.684559117649    -0.753108980124     0.000032767663    12.000000000000
         O            1.462517117649     1.853533019876     0.000044767663    15.994914619570
         O           -2.833916882351     0.215066019876    -0.000033232337    15.994914619570
         H           -1.742625882351    -2.024908980124    -0.000047232337     1.007825032230
         H           -1.015837882351     1.951289019876    -0.000026232337     1.007825032230
         H            0.561725117649    -2.566797980124    -0.000056232337     1.007825032230
         H            3.144587117649    -0.293381980124    -0.879084232337     1.007825032230
         H            3.144562117649    -0.293250980124     0.879093767663     1.007825032230
         H            2.913910117649    -1.822060980124     0.000113767663     1.007825032230

  Basis Set: AUG-CC-PVTZ
    Blend: AUG-CC-PVTZ
  Basis Set: (AUG-CC-PVTZ AUX)
    Blend: AUG-CC-PVTZ-JKFIT
	 Reference Energy          =    -451.6536168086714156 [Eh]
	 Singles Energy            =      -0.0000000000000000 [Eh]
	 Same-Spin Energy          =      -0.4604070534032959 [Eh]
	 Opposite-Spin Energy      =      -1.3878656542762917 [Eh]
	 Correlation Energy        =      -1.8482727076795875 [Eh]
	 Total Energy              =    -453.5018895163510138 [Eh]

	 ================> DF-SCS-MP2 Energies <==================
	-----------------------------------------------------------
	 SCS Same-Spin Scale       =       0.3333333333333333 [-]
	 SCS Opposite-Spin Scale   =       1.2000000000000000 [-]
	 SCS Same-Spin Energy      =      -0.1534690178010986 [Eh]
	 SCS Opposite-Spin Energy  =      -1.6654387851315500 [Eh]
	 SCS Correlation Energy    =      -1.8189078029326486 [Eh]
	 SCS Total Energy          =    -453.4725246116040580 [Eh]
	-----------------------------------------------------------

  Dipole Moment: [D]
     X:     0.9766      Y:    -4.2715      Z:    -0.0001     Total:     4.3817

*** Psi4 exiting successfully. Buy a developer a beer!
