                               Psi4 1.4a3.dev225

  ==> Input File <==

--------------------------------------------------------------------------
#psi4
#
memory 32 gb

molecule  {
0 1
  N       -1.1263310    -1.2364150    -0.0000030
  C        0.2309450    -1.4868440     0.0000000
  C        1.1514300    -0.4932890    -0.0000070
  C        0.6802680     0.8910870    -0.0000240
  N       -0.7160800     1.0272360    -0.0000150
  C       -1.6820330     0.0328590    -0.0000240
  C        2.5807078    -0.7161247     0.0000075
  O        1.4075700     1.8832080     0.0000170
  O       -2.8884930     0.2440480     0.0000250
  H       -1.7968290    -1.9958110     0.0000150
  H       -1.0704590     1.9805630     0.0000060
  H        0.5076420    -2.5373850     0.0000160
  H        3.0901790    -0.2641310    -0.8791000
  H        3.0901670    -0.2640930     0.8791020
  H        2.8592340    -1.7928420     0.0000320
units angstrom
no_reorient  #important for SAPT in psi4, default
symmetry c1  #important for SAPT in psi4, default
}

set PROPERTIES_ORIGIN ["COM"]
properties('MP2/aug-cc-pvtz', properties = ['dipole'])
--------------------------------------------------------------------------

    Molecular point group: c1
  Charge       = 0
  Multiplicity = 1
  Basis Set: AUG-CC-PVTZ
    Blend: AUG-CC-PVTZ
  Basis Set: (AUG-CC-PVTZ AUX)
    Blend: AUG-CC-PVTZ-JKFIT

    Orbital Energies [Eh]
    ---------------------

    Doubly Occupied:

       1A    -20.544836     2A    -20.543839     3A    -15.640990
       4A    -15.628934     5A    -11.418568     6A    -11.381453
       7A    -11.332420     8A    -11.261106     9A    -11.240608
      10A     -1.427753    11A     -1.392678    12A     -1.305436
      13A     -1.240578    14A     -1.114863    15A     -0.970872
      16A     -0.915088    17A     -0.893310    18A     -0.771384
      19A     -0.766843    20A     -0.707822    21A     -0.674947
      22A     -0.665714    23A     -0.641441    24A     -0.616745
      25A     -0.588730    26A     -0.584137    27A     -0.556386
      28A     -0.540661    29A     -0.509306    30A     -0.479955
      31A     -0.449053    32A     -0.435067    33A     -0.352962

  @DF-RHF Final Energy:  -451.66899339744060

   => Energetics <=

    Nuclear Repulsion Energy =            439.1014638072972502
    One-Electron Energy =               -1486.3519429421041878
    Two-Electron Energy =                 595.5814857373663926
    Total Energy =                       -451.6689933974405449
  Basis Set: (AUG-CC-PVTZ AUX)
    Blend: AUG-CC-PVTZ-RI
    Molecular point group: c1

    Geometry (in Angstrom), charge = 0, multiplicity = 1:

       Center              X                  Y                   Z               Mass
    ------------   -----------------  -----------------  -----------------  -----------------
         N           -1.069059748289    -1.275421971076    -0.000002375504    14.003074004430
         C            0.288216251711    -1.525850971076     0.000000624496    12.000000000000
         C            1.208701251711    -0.532295971076    -0.000006375504    12.000000000000
         C            0.737539251711     0.852080028924    -0.000023375504    12.000000000000
         N           -0.658808748289     0.988229028924    -0.000014375504    14.003074004430
         C           -1.624761748289    -0.006147971076    -0.000023375504    12.000000000000
         C            2.637979051711    -0.755131671076     0.000008124496    12.000000000000
         O            1.464841251711     1.844201028924     0.000017624496    15.994914619570
         O           -2.831221748289     0.205041028924     0.000025624496    15.994914619570
         H           -1.739557748289    -2.034817971076     0.000015624496     1.007825032230
         H           -1.013187748289     1.941556028924     0.000006624496     1.007825032230
         H            0.564913251711    -2.576391971076     0.000016624496     1.007825032230
         H            3.147450251711    -0.303137971076    -0.879099375504     1.007825032230
         H            3.147438251711    -0.303099971076     0.879102624496     1.007825032230
         H            2.916505251711    -1.831848971076     0.000032624496     1.007825032230

  Basis Set: AUG-CC-PVTZ
    Blend: AUG-CC-PVTZ
  Basis Set: (AUG-CC-PVTZ AUX)
    Blend: AUG-CC-PVTZ-JKFIT
	 Reference Energy          =    -451.6689933974406017 [Eh]
	 Singles Energy            =      -0.0000000000000000 [Eh]
	 Same-Spin Energy          =      -0.4595662317406518 [Eh]
	 Opposite-Spin Energy      =      -1.3854130163019782 [Eh]
	 Correlation Energy        =      -1.8449792480426299 [Eh]
	 Total Energy              =    -453.5139726454832498 [Eh]

	 ================> DF-SCS-MP2 Energies <==================
	-----------------------------------------------------------
	 SCS Same-Spin Scale       =       0.3333333333333333 [-]
	 SCS Opposite-Spin Scale   =       1.2000000000000000 [-]
	 SCS Same-Spin Energy      =      -0.1531887439135506 [Eh]
	 SCS Opposite-Spin Energy  =      -1.6624956195623739 [Eh]
	 SCS Correlation Energy    =      -1.8156843634759245 [Eh]
	 SCS Total Energy          =    -453.4846777609165542 [Eh]
	-----------------------------------------------------------

  Dipole Moment: [D]
     X:     1.0271      Y:    -4.1746      Z:    -0.0001     Total:     4.2991

*** Psi4 exiting successfully. Buy a developer a beer!
