                               Psi4 1.3.2 release

  ==> Input File <==

--------------------------------------------------------------------------
#psi4
#
memory 32 gb

molecule  {
0 1
  N       -1.1265450    -1.2362860     0.0000060
  C        0.2308680    -1.4868800    -0.0000290
  C        1.1512880    -0.4934230    -0.0000150
  C        0.6802440     0.8910390    -0.0001390
  N       -0.7159090     1.0273040    -0.0000130
  C       -1.6820960     0.0327770     0.0001490
  C        2.6300190    -0.7237960     0.0000320
  O        1.4079770     1.8828460     0.0000440
  O       -2.8884570     0.2443790    -0.0000340
  H       -1.7971660    -1.9955960    -0.0000480
  H       -1.0703780     1.9806020    -0.0000270
  H        0.4817493    -2.4407740    -0.0000544
  H        3.0900470    -0.2640690    -0.8790850
  H        3.0900220    -0.2639380     0.8790930
  H        2.8593700    -1.7927480     0.0001130
units angstrom
no_reorient  #important for SAPT in psi4, default
symmetry c1  #important for SAPT in psi4, default
}

set PROPERTIES_ORIGIN ["COM"]
properties('MP2/aug-cc-pvtz', properties = ['dipole'])
--------------------------------------------------------------------------

    Molecular point group: c1
  Charge       = 0
  Multiplicity = 1
  Basis Set: AUG-CC-PVTZ
    Blend: AUG-CC-PVTZ
  Basis Set: (AUG-CC-PVTZ AUX)
    Blend: AUG-CC-PVTZ-JKFIT

    Orbital Energies [Eh]
    ---------------------

    Doubly Occupied:

       1A    -20.544238     2A    -20.543101     3A    -15.639947
       4A    -15.628443     5A    -11.417872     6A    -11.380712
       7A    -11.320908     8A    -11.262700     9A    -11.239777
      10A     -1.427139    11A     -1.391954    12A     -1.305228
      13A     -1.240367    14A     -1.109718    15A     -0.974679
      16A     -0.921633    17A     -0.893231    18A     -0.770985
      19A     -0.766294    20A     -0.723269    21A     -0.675756
      22A     -0.664845    23A     -0.642417    24A     -0.621151
      25A     -0.591578    26A     -0.568815    27A     -0.557981
      28A     -0.551963    29A     -0.511025    30A     -0.479867
      31A     -0.448465    32A     -0.434631    33A     -0.354368

  @DF-RHF Final Energy:  -451.66667454281219

   => Energetics <=

    Nuclear Repulsion Energy =            438.7635704343485941
    One-Electron Energy =               -1485.6503709890487244
    Two-Electron Energy =                 595.2201260118879418
    Total Energy =                       -451.6666745428121885
  Basis Set: (AUG-CC-PVTZ AUX)
    Blend: AUG-CC-PVTZ-RI
    Molecular point group: c1

    Geometry (in Angstrom), charge = 0, multiplicity = 1:

       Center              X                  Y                   Z               Mass
    ------------   -----------------  -----------------  -----------------  -----------------
         N           -1.073780550922    -1.275329018863     0.000005766255    14.003074004430
         C            0.283632449078    -1.525923018863    -0.000029233745    12.000000000000
         C            1.204052449078    -0.532466018863    -0.000015233745    12.000000000000
         C            0.733008449078     0.851995981137    -0.000139233745    12.000000000000
         N           -0.663144550922     0.988260981137    -0.000013233745    14.003074004430
         C           -1.629331550922    -0.006266018863     0.000148766255    12.000000000000
         C            2.682783449078    -0.762839018863     0.000031766255    12.000000000000
         O            1.460741449078     1.843802981137     0.000043766255    15.994914619570
         O           -2.835692550922     0.205335981137    -0.000034233745    15.994914619570
         H           -1.744401550922    -2.034639018863    -0.000048233745     1.007825032230
         H           -1.017613550922     1.941558981137    -0.000027233745     1.007825032230
         H            0.534513749078    -2.479817018863    -0.000054633745     1.007825032230
         H            3.142811449078    -0.303112018863    -0.879085233745     1.007825032230
         H            3.142786449078    -0.302981018863     0.879092766255     1.007825032230
         H            2.912134449078    -1.831791018863     0.000112766255     1.007825032230

  Basis Set: AUG-CC-PVTZ
    Blend: AUG-CC-PVTZ
  Basis Set: (AUG-CC-PVTZ AUX)
    Blend: AUG-CC-PVTZ-JKFIT
	 Reference Energy          =    -451.6666745428121885 [Eh]
	 Singles Energy            =      -0.0000000000000000 [Eh]
	 Same-Spin Energy          =      -0.4587273790648181 [Eh]
	 Opposite-Spin Energy      =      -1.3842020573224219 [Eh]
	 Correlation Energy        =      -1.8429294363872399 [Eh]
	 Total Energy              =    -453.5096039791994258 [Eh]

	 ================> DF-SCS-MP2 Energies <==================
	-----------------------------------------------------------
	 SCS Same-Spin Scale       =       0.3333333333333333 [-]
	 SCS Opposite-Spin Scale   =       1.2000000000000000 [-]
	 SCS Same-Spin Energy      =      -0.1529091263549394 [Eh]
	 SCS Opposite-Spin Energy  =      -1.6610424687869061 [Eh]
	 SCS Correlation Energy    =      -1.8139515951418455 [Eh]
	 SCS Total Energy          =    -453.4806261379540615 [Eh]
	-----------------------------------------------------------

  Dipole Moment: [D]
     X:     1.0475      Y:    -4.1876      Z:    -0.0001     Total:     4.3166

*** Psi4 exiting successfully. Buy a developer a beer!
