                               Psi4 1.3.2 release

  ==> Input File <==

--------------------------------------------------------------------------
#psi4
#
memory 32 gb

molecule  {
0 1
  N       -1.1265450    -1.2362860     0.0000060
  C        0.2387867    -1.4393543    -0.0000238
  C        1.1512880    -0.4934230    -0.0000150
  C        0.6802440     0.8910390    -0.0001390
  N       -0.7159090     1.0273040    -0.0000130
  C       -1.6820960     0.0327770     0.0001490
  C        2.6300190    -0.7237960     0.0000320
  O        1.4079770     1.8828460     0.0000440
  O       -2.8884570     0.2443790    -0.0000340
  H       -1.7971660    -1.9955960    -0.0000480
  H       -1.0703780     1.9806020    -0.0000270
  H        0.5071850    -2.5374850    -0.0000570
  H        3.0900470    -0.2640690    -0.8790850
  H        3.0900220    -0.2639380     0.8790930
  H        2.8593700    -1.7927480     0.0001130
units angstrom
no_reorient  #important for SAPT in psi4, default
symmetry c1  #important for SAPT in psi4, default
}

set PROPERTIES_ORIGIN ["COM"]
properties('MP2/aug-cc-pvtz', properties = ['dipole'])
--------------------------------------------------------------------------

    Molecular point group: c1
  Charge       = 0
  Multiplicity = 1
  Basis Set: AUG-CC-PVTZ
    Blend: AUG-CC-PVTZ
  Basis Set: (AUG-CC-PVTZ AUX)
    Blend: AUG-CC-PVTZ-JKFIT

    Orbital Energies [Eh]
    ---------------------

    Doubly Occupied:

       1A    -20.544138     2A    -20.543967     3A    -15.639389
       4A    -15.628575     5A    -11.416916     6A    -11.381457
       7A    -11.328558     8A    -11.258598     9A    -11.240721
      10A     -1.427435    11A     -1.392672    12A     -1.305623
      13A     -1.239631    14A     -1.116113    15A     -0.970191
      16A     -0.912060    17A     -0.894924    18A     -0.776602
      19A     -0.765341    20A     -0.698416    21A     -0.674687
      22A     -0.666239    23A     -0.638517    24A     -0.612456
      25A     -0.592700    26A     -0.570708    27A     -0.558589
      28A     -0.553174    29A     -0.512402    30A     -0.477035
      31A     -0.448684    32A     -0.435056    33A     -0.361765

  @DF-RHF Final Energy:  -451.67087089457652

   => Energetics <=

    Nuclear Repulsion Energy =            439.0757006194032215
    One-Electron Energy =               -1486.3264701974960644
    Two-Electron Energy =                 595.5798986835162623
    Total Energy =                       -451.6708708945765238
  Basis Set: (AUG-CC-PVTZ AUX)
    Blend: AUG-CC-PVTZ-RI
    Molecular point group: c1

    Geometry (in Angstrom), charge = 0, multiplicity = 1:

       Center              X                  Y                   Z               Mass
    ------------   -----------------  -----------------  -----------------  -----------------
         N           -1.074737836964    -1.279080444214     0.000005291975    14.003074004430
         C            0.290593863036    -1.482148744214    -0.000024508025    12.000000000000
         C            1.203095163036    -0.536217444214    -0.000015708025    12.000000000000
         C            0.732051163036     0.848244555786    -0.000139708025    12.000000000000
         N           -0.664101836964     0.984509555786    -0.000013708025    14.003074004430
         C           -1.630288836964    -0.010017444214     0.000148291975    12.000000000000
         C            2.681826163036    -0.766590444214     0.000031291975    12.000000000000
         O            1.459784163036     1.840051555786     0.000043291975    15.994914619570
         O           -2.836649836964     0.201584555786    -0.000034708025    15.994914619570
         H           -1.745358836964    -2.038390444214    -0.000048708025     1.007825032230
         H           -1.018570836964     1.937807555786    -0.000027708025     1.007825032230
         H            0.558992163036    -2.580279444214    -0.000057708025     1.007825032230
         H            3.141854163036    -0.306863444214    -0.879085708025     1.007825032230
         H            3.141829163036    -0.306732444214     0.879092291975     1.007825032230
         H            2.911177163036    -1.835542444214     0.000112291975     1.007825032230

  Basis Set: AUG-CC-PVTZ
    Blend: AUG-CC-PVTZ
  Basis Set: (AUG-CC-PVTZ AUX)
    Blend: AUG-CC-PVTZ-JKFIT
	 Reference Energy          =    -451.6708708945765238 [Eh]
	 Singles Energy            =      -0.0000000000000000 [Eh]
	 Same-Spin Energy          =      -0.4585479753354544 [Eh]
	 Opposite-Spin Energy      =      -1.3839101743663513 [Eh]
	 Correlation Energy        =      -1.8424581497018058 [Eh]
	 Total Energy              =    -453.5133290442783505 [Eh]

	 ================> DF-SCS-MP2 Energies <==================
	-----------------------------------------------------------
	 SCS Same-Spin Scale       =       0.3333333333333333 [-]
	 SCS Opposite-Spin Scale   =       1.2000000000000000 [-]
	 SCS Same-Spin Energy      =      -0.1528493251118181 [Eh]
	 SCS Opposite-Spin Energy  =      -1.6606922092396215 [Eh]
	 SCS Correlation Energy    =      -1.8135415343514396 [Eh]
	 SCS Total Energy          =    -453.4844124289279534 [Eh]
	-----------------------------------------------------------

  Dipole Moment: [D]
     X:     1.0677      Y:    -4.1182      Z:    -0.0001     Total:     4.2543

*** Psi4 exiting successfully. Buy a developer a beer!
