                               Psi4 1.3.2 release

  ==> Input File <==

--------------------------------------------------------------------------
#psi4
#
memory 32 gb

molecule  {
0 1
  N       -1.1265450    -1.2362860     0.0000060
  C        0.2350347    -1.4631517    -0.0000264
  C        1.1512880    -0.4934230    -0.0000150
  C        0.6802440     0.8910390    -0.0001390
  N       -0.7159090     1.0273040    -0.0000130
  C       -1.6820960     0.0327770     0.0001490
  C        2.6300190    -0.7237960     0.0000320
  O        1.4079770     1.8828460     0.0000440
  O       -2.8884570     0.2443790    -0.0000340
  H       -1.7971660    -1.9955960    -0.0000480
  H       -1.0703780     1.9806020    -0.0000270
  H        0.5071850    -2.5374850    -0.0000570
  H        3.0900470    -0.2640690    -0.8790850
  H        3.0900220    -0.2639380     0.8790930
  H        2.8593700    -1.7927480     0.0001130
units angstrom
no_reorient  #important for SAPT in psi4, default
symmetry c1  #important for SAPT in psi4, default
}

set PROPERTIES_ORIGIN ["COM"]
properties('MP2/aug-cc-pvtz', properties = ['dipole'])
--------------------------------------------------------------------------

    Molecular point group: c1
  Charge       = 0
  Multiplicity = 1
  Basis Set: AUG-CC-PVTZ
    Blend: AUG-CC-PVTZ
  Basis Set: (AUG-CC-PVTZ AUX)
    Blend: AUG-CC-PVTZ-JKFIT

    Orbital Energies [Eh]
    ---------------------

    Doubly Occupied:

       1A    -20.544257     2A    -20.543684     3A    -15.639947
       4A    -15.628575     5A    -11.417582     6A    -11.381286
       7A    -11.330273     8A    -11.260723     9A    -11.240121
      10A     -1.427407    11A     -1.392397    12A     -1.305285
      13A     -1.239894    14A     -1.112005    15A     -0.970019
      16A     -0.913780    17A     -0.894211    18A     -0.773587
      19A     -0.765384    20A     -0.702555    21A     -0.674701
      22A     -0.665652    23A     -0.639268    24A     -0.614633
      25A     -0.592095    26A     -0.569856    27A     -0.558338
      28A     -0.552611    29A     -0.511767    30A     -0.478300
      31A     -0.448602    32A     -0.434932    33A     -0.358122

  @DF-RHF Final Energy:  -451.67259553659835

   => Energetics <=

    Nuclear Repulsion Energy =            438.6307076551600517
    One-Electron Energy =               -1485.4429034651036545
    Two-Electron Energy =                 595.1396002733453088
    Total Energy =                       -451.6725955365983509
  Basis Set: (AUG-CC-PVTZ AUX)
    Blend: AUG-CC-PVTZ-RI
    Molecular point group: c1

    Geometry (in Angstrom), charge = 0, multiplicity = 1:

       Center              X                  Y                   Z               Mass
    ------------   -----------------  -----------------  -----------------  -----------------
         N           -1.074380625331    -1.276814797058     0.000005539510    14.003074004430
         C            0.287199074669    -1.503680497058    -0.000026860490    12.000000000000
         C            1.203452374669    -0.533951797058    -0.000015460490    12.000000000000
         C            0.732408374669     0.850510202942    -0.000139460490    12.000000000000
         N           -0.663744625331     0.986775202942    -0.000013460490    14.003074004430
         C           -1.629931625331    -0.007751797058     0.000148539510    12.000000000000
         C            2.682183374669    -0.764324797058     0.000031539510    12.000000000000
         O            1.460141374669     1.842317202942     0.000043539510    15.994914619570
         O           -2.836292625331     0.203850202942    -0.000034460490    15.994914619570
         H           -1.745001625331    -2.036124797058    -0.000048460490     1.007825032230
         H           -1.018213625331     1.940073202942    -0.000027460490     1.007825032230
         H            0.559349374669    -2.578013797058    -0.000057460490     1.007825032230
         H            3.142211374669    -0.304597797058    -0.879085460490     1.007825032230
         H            3.142186374669    -0.304466797058     0.879092539510     1.007825032230
         H            2.911534374669    -1.833276797058     0.000112539510     1.007825032230

  Basis Set: AUG-CC-PVTZ
    Blend: AUG-CC-PVTZ
  Basis Set: (AUG-CC-PVTZ AUX)
    Blend: AUG-CC-PVTZ-JKFIT
	 Reference Energy          =    -451.6725955365983509 [Eh]
	 Singles Energy            =      -0.0000000000000000 [Eh]
	 Same-Spin Energy          =      -0.4587308997259054 [Eh]
	 Opposite-Spin Energy      =      -1.3842778032858041 [Eh]
	 Correlation Energy        =      -1.8430087030117095 [Eh]
	 Total Energy              =    -453.5156042396100702 [Eh]

	 ================> DF-SCS-MP2 Energies <==================
	-----------------------------------------------------------
	 SCS Same-Spin Scale       =       0.3333333333333333 [-]
	 SCS Opposite-Spin Scale   =       1.2000000000000000 [-]
	 SCS Same-Spin Energy      =      -0.1529102999086351 [Eh]
	 SCS Opposite-Spin Energy  =      -1.6611333639429648 [Eh]
	 SCS Correlation Energy    =      -1.8140436638516000 [Eh]
	 SCS Total Energy          =    -453.4866392004499289 [Eh]
	-----------------------------------------------------------

  Dipole Moment: [D]
     X:     1.0521      Y:    -4.1552      Z:    -0.0001     Total:     4.2863

*** Psi4 exiting successfully. Buy a developer a beer!
