                               Psi4 1.3.2 release

  ==> Input File <==

--------------------------------------------------------------------------
#psi4
#
memory 32 gb

molecule  {
0 1
  N       -1.0825938    -1.2161245    -0.0000020
  C        0.2308680    -1.4868800    -0.0000290
  C        1.1512880    -0.4934230    -0.0000150
  C        0.6802440     0.8910390    -0.0001390
  N       -0.7159090     1.0273040    -0.0000130
  C       -1.6820960     0.0327770     0.0001490
  C        2.6300190    -0.7237960     0.0000320
  O        1.4079770     1.8828460     0.0000440
  O       -2.8884570     0.2443790    -0.0000340
  H       -1.7971660    -1.9955960    -0.0000480
  H       -1.0703780     1.9806020    -0.0000270
  H        0.5071850    -2.5374850    -0.0000570
  H        3.0900470    -0.2640690    -0.8790850
  H        3.0900220    -0.2639380     0.8790930
  H        2.8593700    -1.7927480     0.0001130
units angstrom
no_reorient  #important for SAPT in psi4, default
symmetry c1  #important for SAPT in psi4, default
}

set PROPERTIES_ORIGIN ["COM"]
properties('MP2/aug-cc-pvtz', properties = ['dipole'])
--------------------------------------------------------------------------

    Molecular point group: c1
  Charge       = 0
  Multiplicity = 1
  Basis Set: AUG-CC-PVTZ
    Blend: AUG-CC-PVTZ
  Basis Set: (AUG-CC-PVTZ AUX)
    Blend: AUG-CC-PVTZ-JKFIT

    Orbital Energies [Eh]
    ---------------------

    Doubly Occupied:

       1A    -20.548569     2A    -20.540298     3A    -15.645255
       4A    -15.627481     5A    -11.420648     6A    -11.378898
       7A    -11.329713     8A    -11.258371     9A    -11.237260
      10A     -1.429622    11A     -1.390390    12A     -1.314553
      13A     -1.240477    14A     -1.105578    15A     -0.973525
      16A     -0.916899    17A     -0.889209    18A     -0.775014
      19A     -0.760222    20A     -0.710506    21A     -0.668708
      22A     -0.668479    23A     -0.642710    24A     -0.611801
      25A     -0.590006    26A     -0.566236    27A     -0.558144
      28A     -0.549378    29A     -0.517184    30A     -0.482317
      31A     -0.446913    32A     -0.434423    33A     -0.349835

  @DF-RHF Final Energy:  -451.66696546607898

   => Energetics <=

    Nuclear Repulsion Energy =            439.0520858128221562
    One-Electron Energy =               -1486.2808591959046680
    Two-Electron Energy =                 595.5618079170036481
    Total Energy =                       -451.6669654660789774
  Basis Set: (AUG-CC-PVTZ AUX)
    Blend: AUG-CC-PVTZ-RI
    Molecular point group: c1

    Geometry (in Angstrom), charge = 0, multiplicity = 1:

       Center              X                  Y                   Z               Mass
    ------------   -----------------  -----------------  -----------------  -----------------
         N           -1.034915607282    -1.256634124039    -0.000001324174    14.003074004430
         C            0.278546192718    -1.527389624039    -0.000028324174    12.000000000000
         C            1.198966192718    -0.533932624039    -0.000014324174    12.000000000000
         C            0.727922192718     0.850529375961    -0.000138324174    12.000000000000
         N           -0.668230807282     0.986794375961    -0.000012324174    14.003074004430
         C           -1.634417807282    -0.007732624039     0.000149675826    12.000000000000
         C            2.677697192718    -0.764305624039     0.000032675826    12.000000000000
         O            1.455655192718     1.842336375961     0.000044675826    15.994914619570
         O           -2.840778807282     0.203869375961    -0.000033324174    15.994914619570
         H           -1.749487807282    -2.036105624039    -0.000047324174     1.007825032230
         H           -1.022699807282     1.940092375961    -0.000026324174     1.007825032230
         H            0.554863192718    -2.577994624039    -0.000056324174     1.007825032230
         H            3.137725192718    -0.304578624039    -0.879084324174     1.007825032230
         H            3.137700192718    -0.304447624039     0.879093675826     1.007825032230
         H            2.907048192718    -1.833257624039     0.000113675826     1.007825032230

  Basis Set: AUG-CC-PVTZ
    Blend: AUG-CC-PVTZ
  Basis Set: (AUG-CC-PVTZ AUX)
    Blend: AUG-CC-PVTZ-JKFIT
	 Reference Energy          =    -451.6669654660789774 [Eh]
	 Singles Energy            =      -0.0000000000000000 [Eh]
	 Same-Spin Energy          =      -0.4600160224195402 [Eh]
	 Opposite-Spin Energy      =      -1.3858298850403128 [Eh]
	 Correlation Energy        =      -1.8458459074598530 [Eh]
	 Total Energy              =    -453.5128113735388524 [Eh]

	 ================> DF-SCS-MP2 Energies <==================
	-----------------------------------------------------------
	 SCS Same-Spin Scale       =       0.3333333333333333 [-]
	 SCS Opposite-Spin Scale   =       1.2000000000000000 [-]
	 SCS Same-Spin Energy      =      -0.1533386741398467 [Eh]
	 SCS Opposite-Spin Energy  =      -1.6629958620483754 [Eh]
	 SCS Correlation Energy    =      -1.8163345361882222 [Eh]
	 SCS Total Energy          =    -453.4833000022671854 [Eh]
	-----------------------------------------------------------

  Dipole Moment: [D]
     X:     0.8347      Y:    -4.2805      Z:    -0.0001     Total:     4.3611

*** Psi4 exiting successfully. Buy a developer a beer!
