                               Psi4 1.3.2 release

  ==> Input File <==

--------------------------------------------------------------------------
#psi4
#
memory 32 gb

molecule  {
0 1
  N       -1.1044814    -1.2263970     0.0000020
  C        0.2308680    -1.4868800    -0.0000290
  C        1.1512880    -0.4934230    -0.0000150
  C        0.6802440     0.8910390    -0.0001390
  N       -0.7159090     1.0273040    -0.0000130
  C       -1.6820960     0.0327770     0.0001490
  C        2.6300190    -0.7237960     0.0000320
  O        1.4079770     1.8828460     0.0000440
  O       -2.8884570     0.2443790    -0.0000340
  H       -1.7971660    -1.9955960    -0.0000480
  H       -1.0703780     1.9806020    -0.0000270
  H        0.5071850    -2.5374850    -0.0000570
  H        3.0900470    -0.2640690    -0.8790850
  H        3.0900220    -0.2639380     0.8790930
  H        2.8593700    -1.7927480     0.0001130
units angstrom
no_reorient  #important for SAPT in psi4, default
symmetry c1  #important for SAPT in psi4, default
}

set PROPERTIES_ORIGIN ["COM"]
properties('MP2/aug-cc-pvtz', properties = ['dipole'])
--------------------------------------------------------------------------

    Molecular point group: c1
  Charge       = 0
  Multiplicity = 1
  Basis Set: AUG-CC-PVTZ
    Blend: AUG-CC-PVTZ
  Basis Set: (AUG-CC-PVTZ AUX)
    Blend: AUG-CC-PVTZ-JKFIT

    Orbital Energies [Eh]
    ---------------------

    Doubly Occupied:

       1A    -20.546556     2A    -20.541774     3A    -15.642951
       4A    -15.628023     5A    -11.419405     6A    -11.380019
       7A    -11.330889     8A    -11.260630     9A    -11.238406
      10A     -1.428462    11A     -1.391268    12A     -1.309652
      13A     -1.240284    14A     -1.106826    15A     -0.971685
      16A     -0.916172    17A     -0.891284    18A     -0.772594
      19A     -0.763131    20A     -0.708951    21A     -0.671449
      22A     -0.666730    23A     -0.641634    24A     -0.614262
      25A     -0.590767    26A     -0.567505    27A     -0.558078
      28A     -0.550645    29A     -0.514229    30A     -0.480890
      31A     -0.447735    32A     -0.434621    33A     -0.352184

  @DF-RHF Final Energy:  -451.67064692871617

   => Energetics <=

    Nuclear Repulsion Energy =            438.6168990517970201
    One-Electron Energy =               -1485.4157052845553153
    Two-Electron Energy =                 595.1281593040421285
    Total Energy =                       -451.6706469287162236
  Basis Set: (AUG-CC-PVTZ AUX)
    Blend: AUG-CC-PVTZ-RI
    Molecular point group: c1

    Geometry (in Angstrom), charge = 0, multiplicity = 1:

       Center              X                  Y                   Z               Mass
    ------------   -----------------  -----------------  -----------------  -----------------
         N           -1.054371546190    -1.265765373351     0.000002231435    14.003074004430
         C            0.280977853810    -1.526248373351    -0.000028768565    12.000000000000
         C            1.201397853810    -0.532791373351    -0.000014768565    12.000000000000
         C            0.730353853810     0.851670626649    -0.000138768565    12.000000000000
         N           -0.665799146190     0.987935626649    -0.000012768565    14.003074004430
         C           -1.631986146190    -0.006591373351     0.000149231435    12.000000000000
         C            2.680128853810    -0.763164373351     0.000032231435    12.000000000000
         O            1.458086853810     1.843477626649     0.000044231435    15.994914619570
         O           -2.838347146190     0.205010626649    -0.000033768565    15.994914619570
         H           -1.747056146190    -2.034964373351    -0.000047768565     1.007825032230
         H           -1.020268146190     1.941233626649    -0.000026768565     1.007825032230
         H            0.557294853810    -2.576853373351    -0.000056768565     1.007825032230
         H            3.140156853810    -0.303437373351    -0.879084768565     1.007825032230
         H            3.140131853810    -0.303306373351     0.879093231435     1.007825032230
         H            2.909479853810    -1.832116373351     0.000113231435     1.007825032230

  Basis Set: AUG-CC-PVTZ
    Blend: AUG-CC-PVTZ
  Basis Set: (AUG-CC-PVTZ AUX)
    Blend: AUG-CC-PVTZ-JKFIT
	 Reference Energy          =    -451.6706469287161667 [Eh]
	 Singles Energy            =      -0.0000000000000000 [Eh]
	 Same-Spin Energy          =      -0.4594681568395932 [Eh]
	 Opposite-Spin Energy      =      -1.3852397976110324 [Eh]
	 Correlation Energy        =      -1.8447079544506257 [Eh]
	 Total Energy              =    -453.5153548831667649 [Eh]

	 ================> DF-SCS-MP2 Energies <==================
	-----------------------------------------------------------
	 SCS Same-Spin Scale       =       0.3333333333333333 [-]
	 SCS Opposite-Spin Scale   =       1.2000000000000000 [-]
	 SCS Same-Spin Energy      =      -0.1531560522798644 [Eh]
	 SCS Opposite-Spin Energy  =      -1.6622877571332388 [Eh]
	 SCS Correlation Energy    =      -1.8154438094131033 [Eh]
	 SCS Total Energy          =    -453.4860907381292918 [Eh]
	-----------------------------------------------------------

  Dipole Moment: [D]
     X:     0.9350      Y:    -4.2344      Z:    -0.0001     Total:     4.3364

*** Psi4 exiting successfully. Buy a developer a beer!
