                               Psi4 1.4a3.dev225

  ==> Input File <==

--------------------------------------------------------------------------
#psi4
#
memory 32 gb

molecule  {
0 1
  N       -1.1263310    -1.2364150    -0.0000030
  C        0.2309450    -1.4868440     0.0000000
  C        1.1514300    -0.4932890    -0.0000070
  C        0.6802680     0.8910870    -0.0000240
  N       -0.7160800     1.0272360    -0.0000150
  C       -1.6820330     0.0328590    -0.0000240
  C        2.6301110    -0.7238270     0.0000080
  O        1.4075700     1.8832080     0.0000170
  O       -2.8884930     0.2440480     0.0000250
  H       -1.7637356    -1.9583299     0.0000141
  H       -1.0704590     1.9805630     0.0000060
  H        0.5076420    -2.5373850     0.0000160
  H        3.0901790    -0.2641310    -0.8791000
  H        3.0901670    -0.2640930     0.8791020
  H        2.8592340    -1.7928420     0.0000320
units angstrom
no_reorient  #important for SAPT in psi4, default
symmetry c1  #important for SAPT in psi4, default
}

set PROPERTIES_ORIGIN ["COM"]
properties('MP2/aug-cc-pvtz', properties = ['dipole'])
--------------------------------------------------------------------------

    Molecular point group: c1
  Charge       = 0
  Multiplicity = 1
  Basis Set: AUG-CC-PVTZ
    Blend: AUG-CC-PVTZ
  Basis Set: (AUG-CC-PVTZ AUX)
    Blend: AUG-CC-PVTZ-JKFIT

    Orbital Energies [Eh]
    ---------------------

    Doubly Occupied:

       1A    -20.545119     2A    -20.543689     3A    -15.636393
       4A    -15.628846     5A    -11.418675     6A    -11.381556
       7A    -11.332359     8A    -11.263345     9A    -11.239821
      10A     -1.428530    11A     -1.392629    12A     -1.308383
      13A     -1.242840    14A     -1.109642    15A     -0.970935
      16A     -0.915914    17A     -0.899584    18A     -0.777168
      19A     -0.766937    20A     -0.708781    21A     -0.677488
      22A     -0.665745    23A     -0.640689    24A     -0.617906
      25A     -0.591899    26A     -0.569238    27A     -0.558637
      28A     -0.552345    29A     -0.512004    30A     -0.479855
      31A     -0.448909    32A     -0.435152    33A     -0.355212

  @DF-RHF Final Energy:  -451.67206863458046

   => Energetics <=

    Nuclear Repulsion Energy =            438.5146107085036533
    One-Electron Energy =               -1485.1409025947400551
    Two-Electron Energy =                 594.9542232516560034
    Total Energy =                       -451.6720686345804552
  Basis Set: (AUG-CC-PVTZ AUX)
    Blend: AUG-CC-PVTZ-RI
    Molecular point group: c1

    Geometry (in Angstrom), charge = 0, multiplicity = 1:

       Center              X                  Y                   Z               Mass
    ------------   -----------------  -----------------  -----------------  -----------------
         N           -1.074027823608    -1.274988363175    -0.000002415910    14.003074004430
         C            0.283248176392    -1.525417363175     0.000000584090    12.000000000000
         C            1.203733176392    -0.531862363175    -0.000006415910    12.000000000000
         C            0.732571176392     0.852513636825    -0.000023415910    12.000000000000
         N           -0.663776823608     0.988662636825    -0.000014415910    14.003074004430
         C           -1.629729823608    -0.005714363175    -0.000023415910    12.000000000000
         C            2.682414176392    -0.762400363175     0.000008584090    12.000000000000
         O            1.459873176392     1.844634636825     0.000017584090    15.994914619570
         O           -2.836189823608     0.205474636825     0.000025584090    15.994914619570
         H           -1.711432423608    -1.996903263175     0.000014684090     1.007825032230
         H           -1.018155823608     1.941989636825     0.000006584090     1.007825032230
         H            0.559945176392    -2.575958363175     0.000016584090     1.007825032230
         H            3.142482176392    -0.302704363175    -0.879099415910     1.007825032230
         H            3.142470176392    -0.302666363175     0.879102584090     1.007825032230
         H            2.911537176392    -1.831415363175     0.000032584090     1.007825032230

  Basis Set: AUG-CC-PVTZ
    Blend: AUG-CC-PVTZ
  Basis Set: (AUG-CC-PVTZ AUX)
    Blend: AUG-CC-PVTZ-JKFIT
	 Reference Energy          =    -451.6720686345804552 [Eh]
	 Singles Energy            =      -0.0000000000000000 [Eh]
	 Same-Spin Energy          =      -0.4585873639528310 [Eh]
	 Opposite-Spin Energy      =      -1.3839695679499278 [Eh]
	 Correlation Energy        =      -1.8425569319027586 [Eh]
	 Total Energy              =    -453.5146255664832324 [Eh]

	 ================> DF-SCS-MP2 Energies <==================
	-----------------------------------------------------------
	 SCS Same-Spin Scale       =       0.3333333333333333 [-]
	 SCS Opposite-Spin Scale   =       1.2000000000000000 [-]
	 SCS Same-Spin Energy      =      -0.1528624546509436 [Eh]
	 SCS Opposite-Spin Energy  =      -1.6607634815399133 [Eh]
	 SCS Correlation Energy    =      -1.8136259361908569 [Eh]
	 SCS Total Energy          =    -453.4856945707713294 [Eh]
	-----------------------------------------------------------

  Dipole Moment: [D]
     X:     1.0861      Y:    -4.1296      Z:    -0.0001     Total:     4.2700

*** Psi4 exiting successfully. Buy a developer a beer!
