                               Psi4 1.4a3.dev225

  ==> Input File <==

--------------------------------------------------------------------------
#psi4
#
memory 32 gb

molecule  {
0 1
  N       -1.1263310    -1.2364150    -0.0000030
  C        0.2309450    -1.4868440     0.0000000
  C        1.1514300    -0.4932890    -0.0000070
  C        0.6802680     0.8910870    -0.0000240
  N       -0.7160800     1.0272360    -0.0000150
  C       -1.6820330     0.0328590    -0.0000240
  C        2.6301110    -0.7238270     0.0000080
  O        1.4075700     1.8832080     0.0000170
  O       -2.8884930     0.2440480     0.0000250
  H       -1.7835917    -1.9808186     0.0000146
  H       -1.0704590     1.9805630     0.0000060
  H        0.5076420    -2.5373850     0.0000160
  H        3.0901790    -0.2641310    -0.8791000
  H        3.0901670    -0.2640930     0.8791020
  H        2.8592340    -1.7928420     0.0000320
units angstrom
no_reorient  #important for SAPT in psi4, default
symmetry c1  #important for SAPT in psi4, default
}

set PROPERTIES_ORIGIN ["COM"]
properties('MP2/aug-cc-pvtz', properties = ['dipole'])
--------------------------------------------------------------------------

    Molecular point group: c1
  Charge       = 0
  Multiplicity = 1
  Basis Set: AUG-CC-PVTZ
    Blend: AUG-CC-PVTZ
  Basis Set: (AUG-CC-PVTZ AUX)
    Blend: AUG-CC-PVTZ-JKFIT

    Orbital Energies [Eh]
    ---------------------

    Doubly Occupied:

       1A    -20.544793     2A    -20.543429     3A    -15.638978
       4A    -15.628712     5A    -11.418447     6A    -11.381318
       7A    -11.332199     8A    -11.263049     9A    -11.239656
      10A     -1.427847    11A     -1.392333    12A     -1.306284
      13A     -1.241244    14A     -1.108684    15A     -0.970427
      16A     -0.915624    17A     -0.895806    18A     -0.773180
      19A     -0.766202    20A     -0.707971    21A     -0.675726
      22A     -0.665385    23A     -0.640386    24A     -0.617066
      25A     -0.591674    26A     -0.568873    27A     -0.558314
      28A     -0.552070    29A     -0.511556    30A     -0.479619
      31A     -0.448669    32A     -0.434969    33A     -0.354762

  @DF-RHF Final Energy:  -451.67288682745823

   => Energetics <=

    Nuclear Repulsion Energy =            438.3161743342499790
    One-Electron Energy =               -1484.7876156105162408
    Two-Electron Energy =                 594.7985544488079768
    Total Energy =                       -451.6728868274582283
  Basis Set: (AUG-CC-PVTZ AUX)
    Blend: AUG-CC-PVTZ-RI
    Molecular point group: c1

    Geometry (in Angstrom), charge = 0, multiplicity = 1:

       Center              X                  Y                   Z               Mass
    ------------   -----------------  -----------------  -----------------  -----------------
         N           -1.073869056472    -1.274808546066    -0.000002419908    14.003074004430
         C            0.283406943528    -1.525237546066     0.000000580092    12.000000000000
         C            1.203891943528    -0.531682546066    -0.000006419908    12.000000000000
         C            0.732729943528     0.852693453934    -0.000023419908    12.000000000000
         N           -0.663618056472     0.988842453934    -0.000014419908    14.003074004430
         C           -1.629571056472    -0.005534546066    -0.000023419908    12.000000000000
         C            2.682572943528    -0.762220546066     0.000008580092    12.000000000000
         O            1.460031943528     1.844814453934     0.000017580092    15.994914619570
         O           -2.836031056472     0.205654453934     0.000025580092    15.994914619570
         H           -1.731129756472    -2.019212146066     0.000015180092     1.007825032230
         H           -1.017997056472     1.942169453934     0.000006580092     1.007825032230
         H            0.560103943528    -2.575778546066     0.000016580092     1.007825032230
         H            3.142640943528    -0.302524546066    -0.879099419908     1.007825032230
         H            3.142628943528    -0.302486546066     0.879102580092     1.007825032230
         H            2.911695943528    -1.831235546066     0.000032580092     1.007825032230

  Basis Set: AUG-CC-PVTZ
    Blend: AUG-CC-PVTZ
  Basis Set: (AUG-CC-PVTZ AUX)
    Blend: AUG-CC-PVTZ-JKFIT
	 Reference Energy          =    -451.6728868274582283 [Eh]
	 Singles Energy            =      -0.0000000000000000 [Eh]
	 Same-Spin Energy          =      -0.4588132590032600 [Eh]
	 Opposite-Spin Energy      =      -1.3844334035363453 [Eh]
	 Correlation Energy        =      -1.8432466625396053 [Eh]
	 Total Energy              =    -453.5161334899978556 [Eh]

	 ================> DF-SCS-MP2 Energies <==================
	-----------------------------------------------------------
	 SCS Same-Spin Scale       =       0.3333333333333333 [-]
	 SCS Opposite-Spin Scale   =       1.2000000000000000 [-]
	 SCS Same-Spin Energy      =      -0.1529377530010867 [Eh]
	 SCS Opposite-Spin Energy  =      -1.6613200842436142 [Eh]
	 SCS Correlation Energy    =      -1.8142578372447009 [Eh]
	 SCS Total Energy          =    -453.4871446647029529 [Eh]
	-----------------------------------------------------------

  Dipole Moment: [D]
     X:     1.0572      Y:    -4.1639      Z:    -0.0001     Total:     4.2960

*** Psi4 exiting successfully. Buy a developer a beer!
