                               Psi4 1.3.2 release

  ==> Input File <==

--------------------------------------------------------------------------
#psi4
#
memory 32 gb

molecule  {
0 1
  N       -1.1265450    -1.2362860     0.0000060
  C        0.2308680    -1.4868800    -0.0000290
  C        1.1512880    -0.4934230    -0.0000150
  C        0.6802440     0.8910390    -0.0001390
  N       -0.7159090     1.0273040    -0.0000130
  C       -1.6820960     0.0327770     0.0001490
  C        2.4324028    -0.6930092     0.0000257
  O        1.4079770     1.8828460     0.0000440
  O       -2.8884570     0.2443790    -0.0000340
  H       -1.7971660    -1.9955960    -0.0000480
  H       -1.0703780     1.9806020    -0.0000270
  H        0.5071850    -2.5374850    -0.0000570
  H        3.0900470    -0.2640690    -0.8790850
  H        3.0900220    -0.2639380     0.8790930
  H        2.8593700    -1.7927480     0.0001130
units angstrom
no_reorient  #important for SAPT in psi4, default
symmetry c1  #important for SAPT in psi4, default
}

set PROPERTIES_ORIGIN ["COM"]
properties('MP2/aug-cc-pvtz', properties = ['dipole'])
--------------------------------------------------------------------------

    Molecular point group: c1
  Charge       = 0
  Multiplicity = 1
  Basis Set: AUG-CC-PVTZ
    Blend: AUG-CC-PVTZ
  Basis Set: (AUG-CC-PVTZ AUX)
    Blend: AUG-CC-PVTZ-JKFIT

    Orbital Energies [Eh]
    ---------------------

    Doubly Occupied:

       1A    -20.545805     2A    -20.545705     3A    -15.642270
       4A    -15.629957     5A    -11.419415     6A    -11.382485
       7A    -11.333504     8A    -11.253370     9A    -11.247142
      10A     -1.428876    11A     -1.394522    12A     -1.306878
      13A     -1.241749    14A     -1.143062    15A     -0.975946
      16A     -0.914688    17A     -0.892342    18A     -0.774368
      19A     -0.768958    20A     -0.709210    21A     -0.676667
      22A     -0.667931    23A     -0.650400    24A     -0.621871
      25A     -0.617156    26A     -0.586955    27A     -0.552844
      28A     -0.504732    29A     -0.500653    30A     -0.480926
      31A     -0.449925    32A     -0.435737    33A     -0.344260

  @DF-RHF Final Energy:  -451.61848460291782

   => Energetics <=

    Nuclear Repulsion Energy =            442.0845715538872014
    One-Electron Energy =               -1492.1254996314426080
    Two-Electron Energy =                 598.4224434746375891
    Total Energy =                       -451.6184846029178743
  Basis Set: (AUG-CC-PVTZ AUX)
    Blend: AUG-CC-PVTZ-RI
    Molecular point group: c1

    Geometry (in Angstrom), charge = 0, multiplicity = 1:

       Center              X                  Y                   Z               Mass
    ------------   -----------------  -----------------  -----------------  -----------------
         N           -1.055169751312    -1.277486806204     0.000006386840    14.003074004430
         C            0.302243248688    -1.528080806204    -0.000028613160    12.000000000000
         C            1.222663248688    -0.534623806204    -0.000014613160    12.000000000000
         C            0.751619248688     0.849838193796    -0.000138613160    12.000000000000
         N           -0.644533751312     0.986103193796    -0.000012613160    14.003074004430
         C           -1.610720751312    -0.008423806204     0.000149386840    12.000000000000
         C            2.503778048688    -0.734210006204     0.000026086840    12.000000000000
         O            1.479352248688     1.841645193796     0.000044386840    15.994914619570
         O           -2.817081751312     0.203178193796    -0.000033613160    15.994914619570
         H           -1.725790751312    -2.036796806204    -0.000047613160     1.007825032230
         H           -0.999002751312     1.939401193796    -0.000026613160     1.007825032230
         H            0.578560248688    -2.578685806204    -0.000056613160     1.007825032230
         H            3.161422248688    -0.305269806204    -0.879084613160     1.007825032230
         H            3.161397248688    -0.305138806204     0.879093386840     1.007825032230
         H            2.930745248688    -1.833948806204     0.000113386840     1.007825032230

  Basis Set: AUG-CC-PVTZ
    Blend: AUG-CC-PVTZ
  Basis Set: (AUG-CC-PVTZ AUX)
    Blend: AUG-CC-PVTZ-JKFIT
	 Reference Energy          =    -451.6184846029178175 [Eh]
	 Singles Energy            =      -0.0000000000000000 [Eh]
	 Same-Spin Energy          =      -0.4628091221210758 [Eh]
	 Opposite-Spin Energy      =      -1.3897558860139181 [Eh]
	 Correlation Energy        =      -1.8525650081349938 [Eh]
	 Total Energy              =    -453.4710496110528197 [Eh]

	 ================> DF-SCS-MP2 Energies <==================
	-----------------------------------------------------------
	 SCS Same-Spin Scale       =       0.3333333333333333 [-]
	 SCS Opposite-Spin Scale   =       1.2000000000000000 [-]
	 SCS Same-Spin Energy      =      -0.1542697073736919 [Eh]
	 SCS Opposite-Spin Energy  =      -1.6677070632167017 [Eh]
	 SCS Correlation Energy    =      -1.8219767705903935 [Eh]
	 SCS Total Energy          =    -453.4404613735081853 [Eh]
	-----------------------------------------------------------

  Dipole Moment: [D]
     X:     0.9934      Y:    -4.1230      Z:    -0.0001     Total:     4.2410

*** Psi4 exiting successfully. Buy a developer a beer!
