                               Psi4 1.3.2 release

  ==> Input File <==

--------------------------------------------------------------------------
#psi4
#
memory 32 gb

molecule  {
0 1
  N       -1.1265450    -1.2362860     0.0000060
  C        0.2308680    -1.4868800    -0.0000290
  C        1.1512880    -0.4934230    -0.0000150
  C        0.6868393     1.0377232    -0.0001497
  N       -0.7159090     1.0273040    -0.0000130
  C       -1.6820960     0.0327770     0.0001490
  C        2.6300190    -0.7237960     0.0000320
  O        1.4079770     1.8828460     0.0000440
  O       -2.8884570     0.2443790    -0.0000340
  H       -1.7971660    -1.9955960    -0.0000480
  H       -1.0703780     1.9806020    -0.0000270
  H        0.5071850    -2.5374850    -0.0000570
  H        3.0900470    -0.2640690    -0.8790850
  H        3.0900220    -0.2639380     0.8790930
  H        2.8593700    -1.7927480     0.0001130
units angstrom
no_reorient  #important for SAPT in psi4, default
symmetry c1  #important for SAPT in psi4, default
}

set PROPERTIES_ORIGIN ["COM"]
properties('MP2/aug-cc-pvtz', properties = ['dipole'])
--------------------------------------------------------------------------

    Molecular point group: c1
  Charge       = 0
  Multiplicity = 1
  Basis Set: AUG-CC-PVTZ
    Blend: AUG-CC-PVTZ
  Basis Set: (AUG-CC-PVTZ AUX)
    Blend: AUG-CC-PVTZ-JKFIT

    Orbital Energies [Eh]
    ---------------------

    Doubly Occupied:

       1A    -20.567092     2A    -20.541045     3A    -15.627700
       4A    -15.622422     5A    -11.416538     6A    -11.380965
       7A    -11.311754     8A    -11.256222     9A    -11.234227
      10A     -1.490348    11A     -1.417037    12A     -1.297538
      13A     -1.241454    14A     -1.084927    15A     -0.961688
      16A     -0.898745    17A     -0.886245    18A     -0.760143
      19A     -0.754432    20A     -0.707621    21A     -0.691967
      22A     -0.667759    23A     -0.643664    24A     -0.624999
      25A     -0.606402    26A     -0.576524    27A     -0.571325
      28A     -0.552068    29A     -0.503851    30A     -0.473003
      31A     -0.447494    32A     -0.437559    33A     -0.342006

  @DF-RHF Final Energy:  -451.64750981633074

   => Energetics <=

    Nuclear Repulsion Energy =            437.9297460726984355
    One-Electron Energy =               -1483.9609849027883683
    Two-Electron Energy =                 594.3837290137591935
    Total Energy =                       -451.6475098163307393
  Basis Set: (AUG-CC-PVTZ AUX)
    Blend: AUG-CC-PVTZ-RI
    Molecular point group: c1

    Geometry (in Angstrom), charge = 0, multiplicity = 1:

       Center              X                  Y                   Z               Mass
    ------------   -----------------  -----------------  -----------------  -----------------
         N           -1.074611841795    -1.288520894576     0.000006805745    14.003074004430
         C            0.282801158205    -1.539114894576    -0.000028194255    12.000000000000
         C            1.203221158205    -0.545657894576    -0.000014194255    12.000000000000
         C            0.738772458205     0.985488305424    -0.000148894255    12.000000000000
         N           -0.663975841795     0.975069105424    -0.000012194255    14.003074004430
         C           -1.630162841795    -0.019457894576     0.000149805745    12.000000000000
         C            2.681952158205    -0.776030894576     0.000032805745    12.000000000000
         O            1.459910158205     1.830611105424     0.000044805745    15.994914619570
         O           -2.836523841795     0.192144105424    -0.000033194255    15.994914619570
         H           -1.745232841795    -2.047830894576    -0.000047194255     1.007825032230
         H           -1.018444841795     1.928367105424    -0.000026194255     1.007825032230
         H            0.559118158205    -2.589719894576    -0.000056194255     1.007825032230
         H            3.141980158205    -0.316303894576    -0.879084194255     1.007825032230
         H            3.141955158205    -0.316172894576     0.879093805745     1.007825032230
         H            2.911303158205    -1.844982894576     0.000113805745     1.007825032230

  Basis Set: AUG-CC-PVTZ
    Blend: AUG-CC-PVTZ
  Basis Set: (AUG-CC-PVTZ AUX)
    Blend: AUG-CC-PVTZ-JKFIT
	 Reference Energy          =    -451.6475098163307393 [Eh]
	 Singles Energy            =      -0.0000000000000000 [Eh]
	 Same-Spin Energy          =      -0.4560487257161498 [Eh]
	 Opposite-Spin Energy      =      -1.3799166962641873 [Eh]
	 Correlation Energy        =      -1.8359654219803372 [Eh]
	 Total Energy              =    -453.4834752383110867 [Eh]

	 ================> DF-SCS-MP2 Energies <==================
	-----------------------------------------------------------
	 SCS Same-Spin Scale       =       0.3333333333333333 [-]
	 SCS Opposite-Spin Scale   =       1.2000000000000000 [-]
	 SCS Same-Spin Energy      =      -0.1520162419053833 [Eh]
	 SCS Opposite-Spin Energy  =      -1.6559000355170248 [Eh]
	 SCS Correlation Energy    =      -1.8079162774224080 [Eh]
	 SCS Total Energy          =    -453.4554260937531467 [Eh]
	-----------------------------------------------------------

  Dipole Moment: [D]
     X:     1.4052      Y:    -3.0927      Z:    -0.0001     Total:     3.3969

*** Psi4 exiting successfully. Buy a developer a beer!
