                               Psi4 1.3.2 release

  ==> Input File <==

--------------------------------------------------------------------------
#psi4
#
memory 32 gb

molecule  {
0 1
  N       -1.1265450    -1.2362860     0.0000060
  C        0.3024102    -1.5486652    -0.0000193
  C        1.1512880    -0.4934230    -0.0000150
  C        0.6802440     0.8910390    -0.0001390
  N       -0.7159090     1.0273040    -0.0000130
  C       -1.6820960     0.0327770     0.0001490
  C        2.6300190    -0.7237960     0.0000320
  O        1.4079770     1.8828460     0.0000440
  O       -2.8884570     0.2443790    -0.0000340
  H       -1.7971660    -1.9955960    -0.0000480
  H       -1.0703780     1.9806020    -0.0000270
  H        0.5071850    -2.5374850    -0.0000570
  H        3.0900470    -0.2640690    -0.8790850
  H        3.0900220    -0.2639380     0.8790930
  H        2.8593700    -1.7927480     0.0001130
units angstrom
no_reorient  #important for SAPT in psi4, default
symmetry c1  #important for SAPT in psi4, default
}

set PROPERTIES_ORIGIN ["COM"]
properties('MP2/aug-cc-pvtz', properties = ['dipole'])
--------------------------------------------------------------------------

    Molecular point group: c1
  Charge       = 0
  Multiplicity = 1
  Basis Set: AUG-CC-PVTZ
    Blend: AUG-CC-PVTZ
  Basis Set: (AUG-CC-PVTZ AUX)
    Blend: AUG-CC-PVTZ-JKFIT

    Orbital Energies [Eh]
    ---------------------

    Doubly Occupied:

       1A    -20.549473     2A    -20.540320     3A    -15.632029
       4A    -15.627973     5A    -11.414765     6A    -11.387437
       7A    -11.332156     8A    -11.271309     9A    -11.240880
      10A     -1.422752    11A     -1.395123    12A     -1.288058
      13A     -1.230857    14A     -1.112557    15A     -0.969639
      16A     -0.921191    17A     -0.887582    18A     -0.765458
      19A     -0.753840    20A     -0.721241    21A     -0.672781
      22A     -0.658753    23A     -0.640872    24A     -0.628036
      25A     -0.593030    26A     -0.564100    27A     -0.557327
      28A     -0.552516    29A     -0.498728    30A     -0.479150
      31A     -0.451990    32A     -0.434884    33A     -0.360519

  @DF-RHF Final Energy:  -451.66020675646894

   => Energetics <=

    Nuclear Repulsion Energy =            436.7118904824099559
    One-Electron Energy =               -1481.6295381220245417
    Two-Electron Energy =                 593.2574408831457049
    Total Energy =                       -451.6602067564689378
  Basis Set: (AUG-CC-PVTZ AUX)
    Blend: AUG-CC-PVTZ-RI
    Molecular point group: c1

    Geometry (in Angstrom), charge = 0, multiplicity = 1:

       Center              X                  Y                   Z               Mass
    ------------   -----------------  -----------------  -----------------  -----------------
         N           -1.080795154225    -1.268673427917     0.000004863549    14.003074004430
         C            0.348160045775    -1.581052627917    -0.000020436451    12.000000000000
         C            1.197037845775    -0.525810427917    -0.000016136451    12.000000000000
         C            0.725993845775     0.858651572083    -0.000140136451    12.000000000000
         N           -0.670159154225     0.994916572083    -0.000014136451    14.003074004430
         C           -1.636346154225     0.000389572083     0.000147863549    12.000000000000
         C            2.675768845775    -0.756183427917     0.000030863549    12.000000000000
         O            1.453726845775     1.850458572083     0.000042863549    15.994914619570
         O           -2.842707154225     0.211991572083    -0.000035136451    15.994914619570
         H           -1.751416154225    -2.027983427917    -0.000049136451     1.007825032230
         H           -1.024628154225     1.948214572083    -0.000028136451     1.007825032230
         H            0.552934845775    -2.569872427917    -0.000058136451     1.007825032230
         H            3.135796845775    -0.296456427917    -0.879086136451     1.007825032230
         H            3.135771845775    -0.296325427917     0.879091863549     1.007825032230
         H            2.905119845775    -1.825135427917     0.000111863549     1.007825032230

  Basis Set: AUG-CC-PVTZ
    Blend: AUG-CC-PVTZ
  Basis Set: (AUG-CC-PVTZ AUX)
    Blend: AUG-CC-PVTZ-JKFIT
	 Reference Energy          =    -451.6602067564689378 [Eh]
	 Singles Energy            =      -0.0000000000000000 [Eh]
	 Same-Spin Energy          =      -0.4586402564387324 [Eh]
	 Opposite-Spin Energy      =      -1.3859749980652967 [Eh]
	 Correlation Energy        =      -1.8446152545040291 [Eh]
	 Total Energy              =    -453.5048220109729868 [Eh]

	 ================> DF-SCS-MP2 Energies <==================
	-----------------------------------------------------------
	 SCS Same-Spin Scale       =       0.3333333333333333 [-]
	 SCS Opposite-Spin Scale   =       1.2000000000000000 [-]
	 SCS Same-Spin Energy      =      -0.1528800854795775 [Eh]
	 SCS Opposite-Spin Energy  =      -1.6631699976783560 [Eh]
	 SCS Correlation Energy    =      -1.8160500831579336 [Eh]
	 SCS Total Energy          =    -453.4762568396268989 [Eh]
	-----------------------------------------------------------

  Dipole Moment: [D]
     X:     1.4009      Y:    -4.1143      Z:    -0.0001     Total:     4.3463

*** Psi4 exiting successfully. Buy a developer a beer!
