                               Psi4 1.3.2 release

  ==> Input File <==

--------------------------------------------------------------------------
#psi4
#
memory 32 gb

molecule  {
0 1
  N       -1.1265450    -1.2362860     0.0000060
  C        0.2308680    -1.4868800    -0.0000290
  C        1.1512880    -0.4934230    -0.0000150
  C        0.6802440     0.8910390    -0.0001390
  N       -0.7159090     1.0273040    -0.0000130
  C       -1.6820960     0.0327770     0.0001490
  C        2.6300190    -0.7237960     0.0000320
  O        1.4079770     1.8828460     0.0000440
  O       -2.8884570     0.2443790    -0.0000340
  H       -1.7971660    -1.9955960    -0.0000480
  H       -1.0703780     1.9806020    -0.0000270
  H        0.5580565    -2.7309071    -0.0000622
  H        3.0900470    -0.2640690    -0.8790850
  H        3.0900220    -0.2639380     0.8790930
  H        2.8593700    -1.7927480     0.0001130
units angstrom
no_reorient  #important for SAPT in psi4, default
symmetry c1  #important for SAPT in psi4, default
}

set PROPERTIES_ORIGIN ["COM"]
properties('MP2/aug-cc-pvtz', properties = ['dipole'])
--------------------------------------------------------------------------

    Molecular point group: c1
  Charge       = 0
  Multiplicity = 1
  Basis Set: AUG-CC-PVTZ
    Blend: AUG-CC-PVTZ
  Basis Set: (AUG-CC-PVTZ AUX)
    Blend: AUG-CC-PVTZ-JKFIT

    Orbital Energies [Eh]
    ---------------------

    Doubly Occupied:

       1A    -20.545537     2A    -20.543963     3A    -15.642378
       4A    -15.629280     5A    -11.419491     6A    -11.382504
       7A    -11.351702     8A    -11.263986     9A    -11.239191
      10A     -1.428333    11A     -1.392887    12A     -1.305462
      13A     -1.240521    14A     -1.106801    15A     -0.966145
      16A     -0.906995    17A     -0.894222    18A     -0.771582
      19A     -0.765160    20A     -0.689416    21A     -0.669392
      22A     -0.666097    23A     -0.636405    24A     -0.596549
      25A     -0.591635    26A     -0.567643    27A     -0.558680
      28A     -0.551602    29A     -0.512022    30A     -0.478140
      31A     -0.448826    32A     -0.435548    33A     -0.355239

  @DF-RHF Final Energy:  -451.64968760809626

   => Energetics <=

    Nuclear Repulsion Energy =            437.2243883571264860
    One-Electron Energy =               -1482.6414779136853213
    Two-Electron Energy =                 593.7674019484626342
    Total Energy =                       -451.6496876080963148
  Basis Set: (AUG-CC-PVTZ AUX)
    Blend: AUG-CC-PVTZ-RI
    Molecular point group: c1

    Geometry (in Angstrom), charge = 0, multiplicity = 1:

       Center              X                  Y                   Z               Mass
    ------------   -----------------  -----------------  -----------------  -----------------
         N           -1.074390694687    -1.273009147317     0.000005828623    14.003074004430
         C            0.283022305313    -1.523603147317    -0.000029171377    12.000000000000
         C            1.203442305313    -0.530146147317    -0.000015171377    12.000000000000
         C            0.732398305313     0.854315852683    -0.000139171377    12.000000000000
         N           -0.663754694687     0.990580852683    -0.000013171377    14.003074004430
         C           -1.629941694687    -0.003946147317     0.000148828623    12.000000000000
         C            2.682173305313    -0.760519147317     0.000031828623    12.000000000000
         O            1.460131305313     1.846122852683     0.000043828623    15.994914619570
         O           -2.836302694687     0.207655852683    -0.000034171377    15.994914619570
         H           -1.745011694687    -2.032319147317    -0.000048171377     1.007825032230
         H           -1.018223694687     1.943878852683    -0.000027171377     1.007825032230
         H            0.610210805313    -2.767630247317    -0.000062371377     1.007825032230
         H            3.142201305313    -0.300792147317    -0.879085171377     1.007825032230
         H            3.142176305313    -0.300661147317     0.879092828623     1.007825032230
         H            2.911524305313    -1.829471147317     0.000112828623     1.007825032230

  Basis Set: AUG-CC-PVTZ
    Blend: AUG-CC-PVTZ
  Basis Set: (AUG-CC-PVTZ AUX)
    Blend: AUG-CC-PVTZ-JKFIT
	 Reference Energy          =    -451.6496876080962579 [Eh]
	 Singles Energy            =      -0.0000000000000000 [Eh]
	 Same-Spin Energy          =      -0.4597056431250569 [Eh]
	 Opposite-Spin Energy      =      -1.3870531995740993 [Eh]
	 Correlation Energy        =      -1.8467588426991561 [Eh]
	 Total Energy              =    -453.4964464507954176 [Eh]

	 ================> DF-SCS-MP2 Energies <==================
	-----------------------------------------------------------
	 SCS Same-Spin Scale       =       0.3333333333333333 [-]
	 SCS Opposite-Spin Scale   =       1.2000000000000000 [-]
	 SCS Same-Spin Energy      =      -0.1532352143750190 [Eh]
	 SCS Opposite-Spin Energy  =      -1.6644638394889191 [Eh]
	 SCS Correlation Energy    =      -1.8176990538639379 [Eh]
	 SCS Total Energy          =    -453.4673866619601768 [Eh]
	-----------------------------------------------------------

  Dipole Moment: [D]
     X:     1.0094      Y:    -4.1477      Z:    -0.0001     Total:     4.2688

*** Psi4 exiting successfully. Buy a developer a beer!
