                               Psi4 1.4a3.dev225

  ==> Input File <==

--------------------------------------------------------------------------
#psi4
#
memory 32 gb

molecule  {
0 1
  N       -1.1263310    -1.2364150    -0.0000030
  C        0.2309450    -1.4868440     0.0000000
  C        1.1514300    -0.4932890    -0.0000070
  C        0.6802680     0.8910870    -0.0000240
  N       -0.7160800     1.0272360    -0.0000150
  C       -1.6820330     0.0328590    -0.0000240
  C        2.6301110    -0.7238270     0.0000080
  O        1.4075700     1.8832080     0.0000170
  O       -2.8884930     0.2440480     0.0000250
  H       -1.7968290    -1.9958110     0.0000150
  H       -1.0704590     1.9805630     0.0000060
  H        0.5025480    -2.5180446     0.0000157
  H        3.0901790    -0.2641310    -0.8791000
  H        3.0901670    -0.2640930     0.8791020
  H        2.8592340    -1.7928420     0.0000320
units angstrom
no_reorient  #important for SAPT in psi4, default
symmetry c1  #important for SAPT in psi4, default
}

set PROPERTIES_ORIGIN ["COM"]
properties('MP2/aug-cc-pvtz', properties = ['dipole'])
--------------------------------------------------------------------------

    Molecular point group: c1
  Charge       = 0
  Multiplicity = 1
  Basis Set: AUG-CC-PVTZ
    Blend: AUG-CC-PVTZ
  Basis Set: (AUG-CC-PVTZ AUX)
    Blend: AUG-CC-PVTZ-JKFIT

    Orbital Energies [Eh]
    ---------------------

    Doubly Occupied:

       1A    -20.544500     2A    -20.543217     3A    -15.640470
       4A    -15.628581     5A    -11.418202     6A    -11.381061
       7A    -11.329913     8A    -11.262797     9A    -11.239591
      10A     -1.427353    11A     -1.392092    12A     -1.305035
      13A     -1.240233    14A     -1.108335    15A     -0.970823
      16A     -0.916577    17A     -0.893420    18A     -0.770811
      19A     -0.765571    20A     -0.710346    21A     -0.674775
      22A     -0.665077    23A     -0.640637    24A     -0.617637
      25A     -0.591530    26A     -0.568664    27A     -0.558067
      28A     -0.551900    29A     -0.511208    30A     -0.479549
      31A     -0.448494    32A     -0.434797    33A     -0.354426

  @DF-RHF Final Energy:  -451.67262441020540

   => Energetics <=

    Nuclear Repulsion Energy =            438.2969457713915631
    One-Electron Energy =               -1484.7677683064223402
    Two-Electron Energy =                 594.7981981248253760
    Total Energy =                       -451.6726244102053442
  Basis Set: (AUG-CC-PVTZ AUX)
    Blend: AUG-CC-PVTZ-RI
    Molecular point group: c1

    Geometry (in Angstrom), charge = 0, multiplicity = 1:

       Center              X                  Y                   Z               Mass
    ------------   -----------------  -----------------  -----------------  -----------------
         N           -1.073722481464    -1.274843312184    -0.000002420708    14.003074004430
         C            0.283553518536    -1.525272312184     0.000000579292    12.000000000000
         C            1.204038518536    -0.531717312184    -0.000006420708    12.000000000000
         C            0.732876518536     0.852658687816    -0.000023420708    12.000000000000
         N           -0.663471481464     0.988807687816    -0.000014420708    14.003074004430
         C           -1.629424481464    -0.005569312184    -0.000023420708    12.000000000000
         C            2.682719518536    -0.762255312184     0.000008579292    12.000000000000
         O            1.460178518536     1.844779687816     0.000017579292    15.994914619570
         O           -2.835884481464     0.205619687816     0.000025579292    15.994914619570
         H           -1.744220481464    -2.034239312184     0.000015579292     1.007825032230
         H           -1.017850481464     1.942134687816     0.000006579292     1.007825032230
         H            0.555156518536    -2.556472912184     0.000016279292     1.007825032230
         H            3.142787518536    -0.302559312184    -0.879099420708     1.007825032230
         H            3.142775518536    -0.302521312184     0.879102579292     1.007825032230
         H            2.911842518536    -1.831270312184     0.000032579292     1.007825032230

  Basis Set: AUG-CC-PVTZ
    Blend: AUG-CC-PVTZ
  Basis Set: (AUG-CC-PVTZ AUX)
    Blend: AUG-CC-PVTZ-JKFIT
	 Reference Energy          =    -451.6726244102054011 [Eh]
	 Singles Energy            =      -0.0000000000000000 [Eh]
	 Same-Spin Energy          =      -0.4589118095164261 [Eh]
	 Opposite-Spin Energy      =      -1.3846167118791861 [Eh]
	 Correlation Energy        =      -1.8435285213956121 [Eh]
	 Total Energy              =    -453.5161529316010274 [Eh]

	 ================> DF-SCS-MP2 Energies <==================
	-----------------------------------------------------------
	 SCS Same-Spin Scale       =       0.3333333333333333 [-]
	 SCS Opposite-Spin Scale   =       1.2000000000000000 [-]
	 SCS Same-Spin Energy      =      -0.1529706031721420 [Eh]
	 SCS Opposite-Spin Energy  =      -1.6615400542550234 [Eh]
	 SCS Correlation Energy    =      -1.8145106574271654 [Eh]
	 SCS Total Energy          =    -453.4871350676325505 [Eh]
	-----------------------------------------------------------

  Dipole Moment: [D]
     X:     1.0401      Y:    -4.1879      Z:    -0.0001     Total:     4.3152

*** Psi4 exiting successfully. Buy a developer a beer!
