                               Psi4 1.3.2 release

  ==> Input File <==

--------------------------------------------------------------------------
#psi4
#
memory 32 gb

molecule  {
0 1
  N       -1.1265450    -1.2362860     0.0000060
  C        0.2308680    -1.4868800    -0.0000290
  C        1.1512880    -0.4934230    -0.0000150
  C        0.6802440     0.8910390    -0.0001390
  N       -0.7159090     1.0273040    -0.0000130
  C       -1.6820960     0.0327770     0.0001490
  C        2.5312109    -0.7084026     0.0000289
  O        1.4079770     1.8828460     0.0000440
  O       -2.8884570     0.2443790    -0.0000340
  H       -1.7971660    -1.9955960    -0.0000480
  H       -1.0703780     1.9806020    -0.0000270
  H        0.5071850    -2.5374850    -0.0000570
  H        3.0900470    -0.2640690    -0.8790850
  H        3.0900220    -0.2639380     0.8790930
  H        2.8593700    -1.7927480     0.0001130
units angstrom
no_reorient  #important for SAPT in psi4, default
symmetry c1  #important for SAPT in psi4, default
}

set PROPERTIES_ORIGIN ["COM"]
properties('MP2/aug-cc-pvtz', properties = ['dipole'])
--------------------------------------------------------------------------

    Molecular point group: c1
  Charge       = 0
  Multiplicity = 1
  Basis Set: AUG-CC-PVTZ
    Blend: AUG-CC-PVTZ
  Basis Set: (AUG-CC-PVTZ AUX)
    Blend: AUG-CC-PVTZ-JKFIT

    Orbital Energies [Eh]
    ---------------------

    Doubly Occupied:

       1A    -20.545101     2A    -20.544422     3A    -15.641370
       4A    -15.629233     5A    -11.418828     6A    -11.381728
       7A    -11.332716     8A    -11.258925     9A    -11.242330
      10A     -1.428098    11A     -1.393235    12A     -1.305867
      13A     -1.240913    14A     -1.122858    15A     -0.972136
      16A     -0.914781    17A     -0.893034    18A     -0.771924
      19A     -0.768174    20A     -0.708224    21A     -0.675459
      22A     -0.666342    23A     -0.643280    24A     -0.617404
      25A     -0.598282    26A     -0.587110    27A     -0.554736
      28A     -0.528860    29A     -0.506761    30A     -0.480380
      31A     -0.449488    32A     -0.435266    33A     -0.350874

  @DF-RHF Final Energy:  -451.65960425283231

   => Energetics <=

    Nuclear Repulsion Energy =            440.0554155810345947
    One-Electron Energy =               -1488.2137646176381622
    Two-Electron Energy =                 596.4987447837712580
    Total Energy =                       -451.6596042528323096
  Basis Set: (AUG-CC-PVTZ AUX)
    Blend: AUG-CC-PVTZ-RI
    Molecular point group: c1

    Geometry (in Angstrom), charge = 0, multiplicity = 1:

       Center              X                  Y                   Z               Mass
    ------------   -----------------  -----------------  -----------------  -----------------
         N           -1.064576841611    -1.276021267409     0.000006082182    14.003074004430
         C            0.292836158389    -1.526615267409    -0.000028917818    12.000000000000
         C            1.213256158389    -0.533158267409    -0.000014917818    12.000000000000
         C            0.742212158389     0.851303732591    -0.000138917818    12.000000000000
         N           -0.653940841611     0.987568732591    -0.000012917818    14.003074004430
         C           -1.620127841611    -0.006958267409     0.000149082182    12.000000000000
         C            2.593179058389    -0.748137867409     0.000028982182    12.000000000000
         O            1.469945158389     1.843110732591     0.000044082182    15.994914619570
         O           -2.826488841611     0.204643732591    -0.000033917818    15.994914619570
         H           -1.735197841611    -2.035331267409    -0.000047917818     1.007825032230
         H           -1.008409841611     1.940866732591    -0.000026917818     1.007825032230
         H            0.569153158389    -2.577220267409    -0.000056917818     1.007825032230
         H            3.152015158389    -0.303804267409    -0.879084917818     1.007825032230
         H            3.151990158389    -0.303673267409     0.879093082182     1.007825032230
         H            2.921338158389    -1.832483267409     0.000113082182     1.007825032230

  Basis Set: AUG-CC-PVTZ
    Blend: AUG-CC-PVTZ
  Basis Set: (AUG-CC-PVTZ AUX)
    Blend: AUG-CC-PVTZ-JKFIT
	 Reference Energy          =    -451.6596042528323096 [Eh]
	 Singles Energy            =      -0.0000000000000000 [Eh]
	 Same-Spin Energy          =      -0.4603877806588846 [Eh]
	 Opposite-Spin Energy      =      -1.3864345749916693 [Eh]
	 Correlation Energy        =      -1.8468223556505539 [Eh]
	 Total Energy              =    -453.5064266084828546 [Eh]

	 ================> DF-SCS-MP2 Energies <==================
	-----------------------------------------------------------
	 SCS Same-Spin Scale       =       0.3333333333333333 [-]
	 SCS Opposite-Spin Scale   =       1.2000000000000000 [-]
	 SCS Same-Spin Energy      =      -0.1534625935529615 [Eh]
	 SCS Opposite-Spin Energy  =      -1.6637214899900032 [Eh]
	 SCS Correlation Energy    =      -1.8171840835429647 [Eh]
	 SCS Total Energy          =    -453.4767883363752503 [Eh]
	-----------------------------------------------------------

  Dipole Moment: [D]
     X:     1.0164      Y:    -4.1611      Z:    -0.0001     Total:     4.2834

*** Psi4 exiting successfully. Buy a developer a beer!
