                               Psi4 1.3.2 release

  ==> Input File <==

--------------------------------------------------------------------------
#psi4
#
memory 32 gb

molecule  {
0 1
  N       -1.1407190    -1.3315848     0.0000032
  C        0.2308680    -1.4868800    -0.0000290
  C        1.1512880    -0.4934230    -0.0000150
  C        0.6802440     0.8910390    -0.0001390
  N       -0.7159090     1.0273040    -0.0000130
  C       -1.6820960     0.0327770     0.0001490
  C        2.6300190    -0.7237960     0.0000320
  O        1.4079770     1.8828460     0.0000440
  O       -2.8884570     0.2443790    -0.0000340
  H       -1.7971660    -1.9955960    -0.0000480
  H       -1.0703780     1.9806020    -0.0000270
  H        0.5071850    -2.5374850    -0.0000570
  H        3.0900470    -0.2640690    -0.8790850
  H        3.0900220    -0.2639380     0.8790930
  H        2.8593700    -1.7927480     0.0001130
units angstrom
no_reorient  #important for SAPT in psi4, default
symmetry c1  #important for SAPT in psi4, default
}

set PROPERTIES_ORIGIN ["COM"]
properties('MP2/aug-cc-pvtz', properties = ['dipole'])
--------------------------------------------------------------------------

    Molecular point group: c1
  Charge       = 0
  Multiplicity = 1
  Basis Set: AUG-CC-PVTZ
    Blend: AUG-CC-PVTZ
  Basis Set: (AUG-CC-PVTZ AUX)
    Blend: AUG-CC-PVTZ-JKFIT

    Orbital Energies [Eh]
    ---------------------

    Doubly Occupied:

       1A    -20.553546     2A    -20.544551     3A    -15.635163
       4A    -15.634157     5A    -11.427885     6A    -11.381910
       7A    -11.331912     8A    -11.260604     9A    -11.238523
      10A     -1.426462    11A     -1.393758    12A     -1.299177
      13A     -1.245986    14A     -1.105713    15A     -0.963781
      16A     -0.913695    17A     -0.896450    18A     -0.785331
      19A     -0.757865    20A     -0.709537    21A     -0.683699
      22A     -0.659120    23A     -0.638258    24A     -0.615824
      25A     -0.589578    26A     -0.569288    27A     -0.557230
      28A     -0.551612    29A     -0.516111    30A     -0.478621
      31A     -0.450443    32A     -0.437641    33A     -0.352748

  @DF-RHF Final Energy:  -451.65946616843809

   => Energetics <=

    Nuclear Repulsion Energy =            436.2688449677733047
    One-Electron Energy =               -1480.6442616646411352
    Two-Electron Energy =                 592.7159505284298575
    Total Energy =                       -451.6594661684380299
  Basis Set: (AUG-CC-PVTZ AUX)
    Blend: AUG-CC-PVTZ-RI
    Molecular point group: c1

    Geometry (in Angstrom), charge = 0, multiplicity = 1:

       Center              X                  Y                   Z               Mass
    ------------   -----------------  -----------------  -----------------  -----------------
         N           -1.086583233710    -1.359267055155     0.000003298118    14.003074004430
         C            0.285003766290    -1.514562255155    -0.000028901882    12.000000000000
         C            1.205423766290    -0.521105255155    -0.000014901882    12.000000000000
         C            0.734379766290     0.863356744845    -0.000138901882    12.000000000000
         N           -0.661773233710     0.999621744845    -0.000012901882    14.003074004430
         C           -1.627960233710     0.005094744845     0.000149098118    12.000000000000
         C            2.684154766290    -0.751478255155     0.000032098118    12.000000000000
         O            1.462112766290     1.855163744845     0.000044098118    15.994914619570
         O           -2.834321233710     0.216696744845    -0.000033901882    15.994914619570
         H           -1.743030233710    -2.023278255155    -0.000047901882     1.007825032230
         H           -1.016242233710     1.952919744845    -0.000026901882     1.007825032230
         H            0.561320766290    -2.565167255155    -0.000056901882     1.007825032230
         H            3.144182766290    -0.291751255155    -0.879084901882     1.007825032230
         H            3.144157766290    -0.291620255155     0.879093098118     1.007825032230
         H            2.913505766290    -1.820430255155     0.000113098118     1.007825032230

  Basis Set: AUG-CC-PVTZ
    Blend: AUG-CC-PVTZ
  Basis Set: (AUG-CC-PVTZ AUX)
    Blend: AUG-CC-PVTZ-JKFIT
	 Reference Energy          =    -451.6594661684380867 [Eh]
	 Singles Energy            =      -0.0000000000000000 [Eh]
	 Same-Spin Energy          =      -0.4585010048498095 [Eh]
	 Opposite-Spin Energy      =      -1.3852119390249025 [Eh]
	 Correlation Energy        =      -1.8437129438747120 [Eh]
	 Total Energy              =    -453.5031791123128073 [Eh]

	 ================> DF-SCS-MP2 Energies <==================
	-----------------------------------------------------------
	 SCS Same-Spin Scale       =       0.3333333333333333 [-]
	 SCS Opposite-Spin Scale   =       1.2000000000000000 [-]
	 SCS Same-Spin Energy      =      -0.1528336682832698 [Eh]
	 SCS Opposite-Spin Energy  =      -1.6622543268298828 [Eh]
	 SCS Correlation Energy    =      -1.8150879951131527 [Eh]
	 SCS Total Energy          =    -453.4745541635512609 [Eh]
	-----------------------------------------------------------

  Dipole Moment: [D]
     X:     0.8085      Y:    -3.8565      Z:    -0.0001     Total:     3.9404

*** Psi4 exiting successfully. Buy a developer a beer!
