                               Psi4 1.3.2 release

  ==> Input File <==

--------------------------------------------------------------------------
#psi4
#
memory 32 gb

molecule  {
0 1
  N       -1.1265450    -1.2362860     0.0000060
  C        0.2308680    -1.4868800    -0.0000290
  C        1.1512880    -0.4934230    -0.0000150
  C        0.6802440     0.8910390    -0.0001390
  N       -0.7159090     1.0273040    -0.0000130
  C       -1.6820960     0.0327770     0.0001490
  C        2.6300190    -0.7237960     0.0000320
  O        1.4671349     1.9634707     0.0000589
  O       -2.8884570     0.2443790    -0.0000340
  H       -1.7971660    -1.9955960    -0.0000480
  H       -1.0703780     1.9806020    -0.0000270
  H        0.5071850    -2.5374850    -0.0000570
  H        3.0900470    -0.2640690    -0.8790850
  H        3.0900220    -0.2639380     0.8790930
  H        2.8593700    -1.7927480     0.0001130
units angstrom
no_reorient  #important for SAPT in psi4, default
symmetry c1  #important for SAPT in psi4, default
}

set PROPERTIES_ORIGIN ["COM"]
properties('MP2/aug-cc-pvtz', properties = ['dipole'])
--------------------------------------------------------------------------

    Molecular point group: c1
  Charge       = 0
  Multiplicity = 1
  Basis Set: AUG-CC-PVTZ
    Blend: AUG-CC-PVTZ
  Basis Set: (AUG-CC-PVTZ AUX)
    Blend: AUG-CC-PVTZ-JKFIT

    Orbital Energies [Eh]
    ---------------------

    Doubly Occupied:

       1A    -20.550561     2A    -20.539595     3A    -15.648166
       4A    -15.640342     5A    -11.425001     6A    -11.396438
       7A    -11.339791     8A    -11.270435     9A    -11.240746
      10A     -1.431191    11A     -1.345430    12A     -1.303623
      13A     -1.241104    14A     -1.113368    15A     -0.973721
      16A     -0.923341    17A     -0.900673    18A     -0.776897
      19A     -0.764812    20A     -0.713954    21A     -0.672203
      22A     -0.668111    23A     -0.641142    24A     -0.597525
      25A     -0.590587    26A     -0.568529    27A     -0.549265
      28A     -0.543730    29A     -0.514496    30A     -0.481976
      31A     -0.443933    32A     -0.428303    33A     -0.358593

  @DF-RHF Final Energy:  -451.64944679205905

   => Energetics <=

    Nuclear Repulsion Energy =            434.8634711022758665
    One-Electron Energy =               -1477.8306779358870244
    Two-Electron Energy =                 591.3177600415522193
    Total Energy =                       -451.6494467920590523
  Basis Set: (AUG-CC-PVTZ AUX)
    Blend: AUG-CC-PVTZ-RI
    Molecular point group: c1

    Geometry (in Angstrom), charge = 0, multiplicity = 1:

       Center              X                  Y                   Z               Mass
    ------------   -----------------  -----------------  -----------------  -----------------
         N           -1.081491100926    -1.284787045983     0.000003896226    14.003074004430
         C            0.275921899074    -1.535381045983    -0.000031103774    12.000000000000
         C            1.196341899074    -0.541924045983    -0.000017103774    12.000000000000
         C            0.725297899074     0.842537954017    -0.000141103774    12.000000000000
         N           -0.670855100926     0.978802954017    -0.000015103774    14.003074004430
         C           -1.637042100926    -0.015724045983     0.000146896226    12.000000000000
         C            2.675072899074    -0.772297045983     0.000029896226    12.000000000000
         O            1.512188799074     1.914969654017     0.000056796226    15.994914619570
         O           -2.843403100926     0.195877954017    -0.000036103774    15.994914619570
         H           -1.752112100926    -2.044097045983    -0.000050103774     1.007825032230
         H           -1.025324100926     1.932100954017    -0.000029103774     1.007825032230
         H            0.552238899074    -2.585986045983    -0.000059103774     1.007825032230
         H            3.135100899074    -0.312570045983    -0.879087103774     1.007825032230
         H            3.135075899074    -0.312439045983     0.879090896226     1.007825032230
         H            2.904423899074    -1.841249045983     0.000110896226     1.007825032230

  Basis Set: AUG-CC-PVTZ
    Blend: AUG-CC-PVTZ
  Basis Set: (AUG-CC-PVTZ AUX)
    Blend: AUG-CC-PVTZ-JKFIT
	 Reference Energy          =    -451.6494467920590523 [Eh]
	 Singles Energy            =      -0.0000000000000000 [Eh]
	 Same-Spin Energy          =      -0.4617452744974696 [Eh]
	 Opposite-Spin Energy      =      -1.3910244479935789 [Eh]
	 Correlation Energy        =      -1.8527697224910487 [Eh]
	 Total Energy              =    -453.5022165145501276 [Eh]

	 ================> DF-SCS-MP2 Energies <==================
	-----------------------------------------------------------
	 SCS Same-Spin Scale       =       0.3333333333333333 [-]
	 SCS Opposite-Spin Scale   =       1.2000000000000000 [-]
	 SCS Same-Spin Energy      =      -0.1539150914991565 [Eh]
	 SCS Opposite-Spin Energy  =      -1.6692293375922946 [Eh]
	 SCS Correlation Energy    =      -1.8231444290914511 [Eh]
	 SCS Total Energy          =    -453.4725912211504806 [Eh]
	-----------------------------------------------------------

  Dipole Moment: [D]
     X:     0.6450      Y:    -4.6454      Z:    -0.0001     Total:     4.6899

*** Psi4 exiting successfully. Buy a developer a beer!
