                               Psi4 1.3.2 release

  ==> Input File <==

--------------------------------------------------------------------------
#psi4
#
memory 32 gb

molecule  {
0 1
  N       -1.1265450    -1.2362860     0.0000060
  C        0.2308680    -1.4868800    -0.0000290
  C        1.1512880    -0.4934230    -0.0000150
  C        0.6802440     0.8910390    -0.0001390
  N       -0.7159090     1.0273040    -0.0000130
  C       -1.6820960     0.0327770     0.0001490
  C        2.6300190    -0.7237960     0.0000320
  O        1.4079770     1.8828460     0.0000440
  O       -2.8884570     0.2443790    -0.0000340
  H       -1.7971660    -1.9955960    -0.0000480
  H       -1.1052301     2.0743321    -0.0000284
  H        0.5071850    -2.5374850    -0.0000570
  H        3.0900470    -0.2640690    -0.8790850
  H        3.0900220    -0.2639380     0.8790930
  H        2.8593700    -1.7927480     0.0001130
units angstrom
no_reorient  #important for SAPT in psi4, default
symmetry c1  #important for SAPT in psi4, default
}

set PROPERTIES_ORIGIN ["COM"]
properties('MP2/aug-cc-pvtz', properties = ['dipole'])
--------------------------------------------------------------------------

    Molecular point group: c1
  Charge       = 0
  Multiplicity = 1
  Basis Set: AUG-CC-PVTZ
    Blend: AUG-CC-PVTZ
  Basis Set: (AUG-CC-PVTZ AUX)
    Blend: AUG-CC-PVTZ-JKFIT

    Orbital Energies [Eh]
    ---------------------

    Doubly Occupied:

       1A    -20.543306     2A    -20.542044     3A    -15.640126
       4A    -15.635170     5A    -11.417284     6A    -11.380278
       7A    -11.331427     8A    -11.262520     9A    -11.239182
      10A     -1.425139    11A     -1.390705    12A     -1.303831
      13A     -1.230877    14A     -1.107209    15A     -0.969475
      16A     -0.909180    17A     -0.889550    18A     -0.765191
      19A     -0.763197    20A     -0.694098    21A     -0.668909
      22A     -0.663853    23A     -0.638877    24A     -0.613452
      25A     -0.590941    26A     -0.566910    27A     -0.556938
      28A     -0.550553    29A     -0.510337    30A     -0.478624
      31A     -0.447388    32A     -0.432594    33A     -0.353941

  @DF-RHF Final Energy:  -451.66200070163160

   => Energetics <=

    Nuclear Repulsion Energy =            437.5933453872277710
    One-Electron Energy =               -1483.4844825959671653
    Two-Electron Energy =                 594.2291365071077962
    Total Energy =                       -451.6620007016315412
  Basis Set: (AUG-CC-PVTZ AUX)
    Blend: AUG-CC-PVTZ-RI
    Molecular point group: c1

    Geometry (in Angstrom), charge = 0, multiplicity = 1:

       Center              X                  Y                   Z               Mass
    ------------   -----------------  -----------------  -----------------  -----------------
         N           -1.073705258449    -1.275305183922     0.000005798239    14.003074004430
         C            0.283707741551    -1.525899183922    -0.000029201761    12.000000000000
         C            1.204127741551    -0.532442183922    -0.000015201761    12.000000000000
         C            0.733083741551     0.852019816078    -0.000139201761    12.000000000000
         N           -0.663069258449     0.988284816078    -0.000013201761    14.003074004430
         C           -1.629256258449    -0.006242183922     0.000148798239    12.000000000000
         C            2.682858741551    -0.762815183922     0.000031798239    12.000000000000
         O            1.460816741551     1.843826816078     0.000043798239    15.994914619570
         O           -2.835617258449     0.205359816078    -0.000034201761    15.994914619570
         H           -1.744326258449    -2.034615183922    -0.000048201761     1.007825032230
         H           -1.052390358449     2.035312916078    -0.000028601761     1.007825032230
         H            0.560024741551    -2.576504183922    -0.000057201761     1.007825032230
         H            3.142886741551    -0.303088183922    -0.879085201761     1.007825032230
         H            3.142861741551    -0.302957183922     0.879092798239     1.007825032230
         H            2.912209741551    -1.831767183922     0.000112798239     1.007825032230

  Basis Set: AUG-CC-PVTZ
    Blend: AUG-CC-PVTZ
  Basis Set: (AUG-CC-PVTZ AUX)
    Blend: AUG-CC-PVTZ-JKFIT
	 Reference Energy          =    -451.6620007016315981 [Eh]
	 Singles Energy            =      -0.0000000000000000 [Eh]
	 Same-Spin Energy          =      -0.4598480396940842 [Eh]
	 Opposite-Spin Energy      =      -1.3866773322583412 [Eh]
	 Correlation Energy        =      -1.8465253719524255 [Eh]
	 Total Energy              =    -453.5085260735840507 [Eh]

	 ================> DF-SCS-MP2 Energies <==================
	-----------------------------------------------------------
	 SCS Same-Spin Scale       =       0.3333333333333333 [-]
	 SCS Opposite-Spin Scale   =       1.2000000000000000 [-]
	 SCS Same-Spin Energy      =      -0.1532826798980280 [Eh]
	 SCS Opposite-Spin Energy  =      -1.6640127987100095 [Eh]
	 SCS Correlation Energy    =      -1.8172954786080375 [Eh]
	 SCS Total Energy          =    -453.4792961802396576 [Eh]
	-----------------------------------------------------------

  Dipole Moment: [D]
     X:     0.9943      Y:    -4.0670      Z:    -0.0001     Total:     4.1867

*** Psi4 exiting successfully. Buy a developer a beer!
