                               Psi4 1.3.2 release

  ==> Input File <==

--------------------------------------------------------------------------
#psi4
#
memory 32 gb

molecule  {
0 1
  N       -1.1265450    -1.2362860     0.0000060
  C        0.2308680    -1.4868800    -0.0000290
  C        1.1512880    -0.4934230    -0.0000150
  C        0.6802440     0.8910390    -0.0001390
  N       -0.7159090     1.0273040    -0.0000130
  C       -1.6820960     0.0327770     0.0001490
  C        2.7288271    -0.7391894     0.0000351
  O        1.4079770     1.8828460     0.0000440
  O       -2.8884570     0.2443790    -0.0000340
  H       -1.7971660    -1.9955960    -0.0000480
  H       -1.0703780     1.9806020    -0.0000270
  H        0.5071850    -2.5374850    -0.0000570
  H        3.0900470    -0.2640690    -0.8790850
  H        3.0900220    -0.2639380     0.8790930
  H        2.8593700    -1.7927480     0.0001130
units angstrom
no_reorient  #important for SAPT in psi4, default
symmetry c1  #important for SAPT in psi4, default
}

set PROPERTIES_ORIGIN ["COM"]
properties('MP2/aug-cc-pvtz', properties = ['dipole'])
--------------------------------------------------------------------------

    Molecular point group: c1
  Charge       = 0
  Multiplicity = 1
  Basis Set: AUG-CC-PVTZ
    Blend: AUG-CC-PVTZ
  Basis Set: (AUG-CC-PVTZ AUX)
    Blend: AUG-CC-PVTZ-JKFIT

    Orbital Energies [Eh]
    ---------------------

    Doubly Occupied:

       1A    -20.544009     2A    -20.542087     3A    -15.639816
       4A    -15.627940     5A    -11.417679     6A    -11.380506
       7A    -11.331322     8A    -11.265030     9A    -11.239805
      10A     -1.426724    11A     -1.391072    12A     -1.304163
      13A     -1.239423    14A     -1.097371    15A     -0.969940
      16A     -0.916002    17A     -0.893451    18A     -0.769505
      19A     -0.762824    20A     -0.706533    21A     -0.673467
      22A     -0.664102    23A     -0.638470    24A     -0.617248
      25A     -0.600305    26A     -0.571866    27A     -0.560683
      28A     -0.535816    29A     -0.513517    30A     -0.478094
      31A     -0.447088    32A     -0.434319    33A     -0.356077

  @DF-RHF Final Energy:  -451.66551401811807

   => Energetics <=

    Nuclear Repulsion Energy =            436.4527631929360041
    One-Electron Energy =               -1481.1240516260509139
    Two-Electron Energy =                 593.0057744149969494
    Total Energy =                       -451.6655140181180741
  Basis Set: (AUG-CC-PVTZ AUX)
    Blend: AUG-CC-PVTZ-RI
    Molecular point group: c1

    Geometry (in Angstrom), charge = 0, multiplicity = 1:

       Center              X                  Y                   Z               Mass
    ------------   -----------------  -----------------  -----------------  -----------------
         N           -1.083391022209    -1.273090189819     0.000005491907    14.003074004430
         C            0.274021977791    -1.523684189819    -0.000029508093    12.000000000000
         C            1.194441977791    -0.530227189819    -0.000015508093    12.000000000000
         C            0.723397977791     0.854234810181    -0.000139508093    12.000000000000
         N           -0.672755022209     0.990499810181    -0.000013508093    14.003074004430
         C           -1.638942022209    -0.004027189819     0.000148491907    12.000000000000
         C            2.771981077791    -0.775993589819     0.000034591907    12.000000000000
         O            1.451130977791     1.846041810181     0.000043491907    15.994914619570
         O           -2.845303022209     0.207574810181    -0.000034508093    15.994914619570
         H           -1.754012022209    -2.032400189819    -0.000048508093     1.007825032230
         H           -1.027224022209     1.943797810181    -0.000027508093     1.007825032230
         H            0.550338977791    -2.574289189819    -0.000057508093     1.007825032230
         H            3.133200977791    -0.300873189819    -0.879085508093     1.007825032230
         H            3.133175977791    -0.300742189819     0.879092491907     1.007825032230
         H            2.902523977791    -1.829552189819     0.000112491907     1.007825032230

  Basis Set: AUG-CC-PVTZ
    Blend: AUG-CC-PVTZ
  Basis Set: (AUG-CC-PVTZ AUX)
    Blend: AUG-CC-PVTZ-JKFIT
	 Reference Energy          =    -451.6655140181180741 [Eh]
	 Singles Energy            =      -0.0000000000000000 [Eh]
	 Same-Spin Energy          =      -0.4583648559835786 [Eh]
	 Opposite-Spin Energy      =      -1.3844619474771283 [Eh]
	 Correlation Energy        =      -1.8428268034607069 [Eh]
	 Total Energy              =    -453.5083408215787699 [Eh]

	 ================> DF-SCS-MP2 Energies <==================
	-----------------------------------------------------------
	 SCS Same-Spin Scale       =       0.3333333333333333 [-]
	 SCS Opposite-Spin Scale   =       1.2000000000000000 [-]
	 SCS Same-Spin Energy      =      -0.1527882853278595 [Eh]
	 SCS Opposite-Spin Energy  =      -1.6613543369725539 [Eh]
	 SCS Correlation Energy    =      -1.8141426223004133 [Eh]
	 SCS Total Energy          =    -453.4796566404185114 [Eh]
	-----------------------------------------------------------

  Dipole Moment: [D]
     X:     1.0636      Y:    -4.2080      Z:    -0.0001     Total:     4.3404

*** Psi4 exiting successfully. Buy a developer a beer!
