                               Psi4 1.3.2 release

  ==> Input File <==

--------------------------------------------------------------------------
#psi4
#
memory 32 gb

molecule  {
0 1
  N       -1.1219648    -1.2126340     0.0000067
  C        0.2308680    -1.4868800    -0.0000290
  C        1.1512880    -0.4934230    -0.0000150
  C        0.6802440     0.8910390    -0.0001390
  N       -0.7159090     1.0273040    -0.0000130
  C       -1.6820960     0.0327770     0.0001490
  C        2.6300190    -0.7237960     0.0000320
  O        1.4079770     1.8828460     0.0000440
  O       -2.8884570     0.2443790    -0.0000340
  H       -1.7971660    -1.9955960    -0.0000480
  H       -1.0703780     1.9806020    -0.0000270
  H        0.5071850    -2.5374850    -0.0000570
  H        3.0900470    -0.2640690    -0.8790850
  H        3.0900220    -0.2639380     0.8790930
  H        2.8593700    -1.7927480     0.0001130
units angstrom
no_reorient  #important for SAPT in psi4, default
symmetry c1  #important for SAPT in psi4, default
}

set PROPERTIES_ORIGIN ["COM"]
properties('MP2/aug-cc-pvtz', properties = ['dipole'])
--------------------------------------------------------------------------

    Molecular point group: c1
  Charge       = 0
  Multiplicity = 1
  Basis Set: AUG-CC-PVTZ
    Blend: AUG-CC-PVTZ
  Basis Set: (AUG-CC-PVTZ AUX)
    Blend: AUG-CC-PVTZ-JKFIT

    Orbital Energies [Eh]
    ---------------------

    Doubly Occupied:

       1A    -20.542945     2A    -20.542264     3A    -15.641919
       4A    -15.627127     5A    -11.415658     6A    -11.380977
       7A    -11.332378     8A    -11.263645     9A    -11.239881
      10A     -1.428027    11A     -1.391766    12A     -1.306782
      13A     -1.238728    14A     -1.109205    15A     -0.972695
      16A     -0.916469    17A     -0.891676    18A     -0.770241
      19A     -0.764749    20A     -0.707239    21A     -0.671202
      22A     -0.667034    23A     -0.640555    24A     -0.616014
      25A     -0.592130    26A     -0.568373    27A     -0.558303
      28A     -0.551881    29A     -0.509980    30A     -0.479262
      31A     -0.447970    32A     -0.434115    33A     -0.355105

  @DF-RHF Final Energy:  -451.67138076495229

   => Energetics <=

    Nuclear Repulsion Energy =            438.6956252333014845
    One-Electron Energy =               -1485.5814231077104068
    Two-Electron Energy =                 595.2144171094566900
    Total Energy =                       -451.6713807649523460
  Basis Set: (AUG-CC-PVTZ AUX)
    Blend: AUG-CC-PVTZ-RI
    Molecular point group: c1

    Geometry (in Angstrom), charge = 0, multiplicity = 1:

       Center              X                  Y                   Z               Mass
    ------------   -----------------  -----------------  -----------------  -----------------
         N           -1.069912581402    -1.253531410413     0.000006409276    14.003074004430
         C            0.282920218598    -1.527777410413    -0.000029290724    12.000000000000
         C            1.203340218598    -0.534320410413    -0.000015290724    12.000000000000
         C            0.732296218598     0.850141589587    -0.000139290724    12.000000000000
         N           -0.663856781402     0.986406589587    -0.000013290724    14.003074004430
         C           -1.630043781402    -0.008120410413     0.000148709276    12.000000000000
         C            2.682071218598    -0.764693410413     0.000031709276    12.000000000000
         O            1.460029218598     1.841948589587     0.000043709276    15.994914619570
         O           -2.836404781402     0.203481589587    -0.000034290724    15.994914619570
         H           -1.745113781402    -2.036493410413    -0.000048290724     1.007825032230
         H           -1.018325781402     1.939704589587    -0.000027290724     1.007825032230
         H            0.559237218598    -2.578382410413    -0.000057290724     1.007825032230
         H            3.142099218598    -0.304966410413    -0.879085290724     1.007825032230
         H            3.142074218598    -0.304835410413     0.879092709276     1.007825032230
         H            2.911422218598    -1.833645410413     0.000112709276     1.007825032230

  Basis Set: AUG-CC-PVTZ
    Blend: AUG-CC-PVTZ
  Basis Set: (AUG-CC-PVTZ AUX)
    Blend: AUG-CC-PVTZ-JKFIT
	 Reference Energy          =    -451.6713807649522892 [Eh]
	 Singles Energy            =      -0.0000000000000000 [Eh]
	 Same-Spin Energy          =      -0.4591794053907047 [Eh]
	 Opposite-Spin Energy      =      -1.3849243178668029 [Eh]
	 Correlation Energy        =      -1.8441037232575077 [Eh]
	 Total Energy              =    -453.5154844882097791 [Eh]

	 ================> DF-SCS-MP2 Energies <==================
	-----------------------------------------------------------
	 SCS Same-Spin Scale       =       0.3333333333333333 [-]
	 SCS Opposite-Spin Scale   =       1.2000000000000000 [-]
	 SCS Same-Spin Energy      =      -0.1530598017969016 [Eh]
	 SCS Opposite-Spin Energy  =      -1.6619091814401634 [Eh]
	 SCS Correlation Energy    =      -1.8149689832370650 [Eh]
	 SCS Total Energy          =    -453.4863497481893546 [Eh]
	-----------------------------------------------------------

  Dipole Moment: [D]
     X:     1.0979      Y:    -4.2688      Z:    -0.0001     Total:     4.4077

*** Psi4 exiting successfully. Buy a developer a beer!
