                               Psi4 1.3.2 release

  ==> Input File <==

--------------------------------------------------------------------------
#psi4
#
memory 32 gb

molecule  {
0 1
  N       -1.1265450    -1.2362860     0.0000060
  C        0.2308680    -1.4868800    -0.0000290
  C        1.1512880    -0.4934230    -0.0000150
  C        0.6802440     0.8910390    -0.0001390
  N       -0.7159090     1.0273040    -0.0000130
  C       -1.6820960     0.0327770     0.0001490
  C        2.6300190    -0.7237960     0.0000320
  O        1.4079770     1.8828460     0.0000440
  O       -2.8884570     0.2443790    -0.0000340
  H       -1.7309682    -1.9206436    -0.0000427
  H       -1.0703780     1.9806020    -0.0000270
  H        0.5071850    -2.5374850    -0.0000570
  H        3.0900470    -0.2640690    -0.8790850
  H        3.0900220    -0.2639380     0.8790930
  H        2.8593700    -1.7927480     0.0001130
units angstrom
no_reorient  #important for SAPT in psi4, default
symmetry c1  #important for SAPT in psi4, default
}

set PROPERTIES_ORIGIN ["COM"]
properties('MP2/aug-cc-pvtz', properties = ['dipole'])
--------------------------------------------------------------------------

    Molecular point group: c1
  Charge       = 0
  Multiplicity = 1
  Basis Set: AUG-CC-PVTZ
    Blend: AUG-CC-PVTZ
  Basis Set: (AUG-CC-PVTZ AUX)
    Blend: AUG-CC-PVTZ-JKFIT

    Orbital Energies [Eh]
    ---------------------

    Doubly Occupied:

       1A    -20.545665     2A    -20.544103     3A    -15.631765
       4A    -15.629064     5A    -11.419062     6A    -11.381926
       7A    -11.332606     8A    -11.263855     9A    -11.240090
      10A     -1.429819    11A     -1.393132    12A     -1.312528
      13A     -1.245604    14A     -1.111389    15A     -0.971913
      16A     -0.916396    17A     -0.906627    18A     -0.784143
      19A     -0.767820    20A     -0.710014    21A     -0.680055
      22A     -0.666361    23A     -0.641199    24A     -0.619163
      25A     -0.592277    26A     -0.569812    27A     -0.559192
      28A     -0.552765    29A     -0.512732    30A     -0.480246
      31A     -0.449295    32A     -0.435447    33A     -0.356020

  @DF-RHF Final Energy:  -451.66596787817690

   => Energetics <=

    Nuclear Repulsion Energy =            438.8694238152224329
    One-Electron Energy =               -1485.7666121721558738
    Two-Electron Energy =                 595.2312204787565406
    Total Energy =                       -451.6659678781768434
  Basis Set: (AUG-CC-PVTZ AUX)
    Blend: AUG-CC-PVTZ-RI
    Molecular point group: c1

    Geometry (in Angstrom), charge = 0, multiplicity = 1:

       Center              X                  Y                   Z               Mass
    ------------   -----------------  -----------------  -----------------  -----------------
         N           -1.074513242053    -1.275155039551     0.000005744666    14.003074004430
         C            0.282899757947    -1.525749039551    -0.000029255334    12.000000000000
         C            1.203319757947    -0.532292039551    -0.000015255334    12.000000000000
         C            0.732275757947     0.852169960449    -0.000139255334    12.000000000000
         N           -0.663877242053     0.988434960449    -0.000013255334    14.003074004430
         C           -1.630064242053    -0.006092039551     0.000148744666    12.000000000000
         C            2.682050757947    -0.762665039551     0.000031744666    12.000000000000
         O            1.460008757947     1.843976960449     0.000043744666    15.994914619570
         O           -2.836425242053     0.205509960449    -0.000034255334    15.994914619570
         H           -1.678936442053    -1.959512639551    -0.000042955334     1.007825032230
         H           -1.018346242053     1.941732960449    -0.000027255334     1.007825032230
         H            0.559216757947    -2.576354039551    -0.000057255334     1.007825032230
         H            3.142078757947    -0.302938039551    -0.879085255334     1.007825032230
         H            3.142053757947    -0.302807039551     0.879092744666     1.007825032230
         H            2.911401757947    -1.831617039551     0.000112744666     1.007825032230

  Basis Set: AUG-CC-PVTZ
    Blend: AUG-CC-PVTZ
  Basis Set: (AUG-CC-PVTZ AUX)
    Blend: AUG-CC-PVTZ-JKFIT
	 Reference Energy          =    -451.6659678781769003 [Eh]
	 Singles Energy            =      -0.0000000000000000 [Eh]
	 Same-Spin Energy          =      -0.4582290805169568 [Eh]
	 Opposite-Spin Energy      =      -1.3832853521437469 [Eh]
	 Correlation Energy        =      -1.8415144326607038 [Eh]
	 Total Energy              =    -453.5074823108375881 [Eh]

	 ================> DF-SCS-MP2 Energies <==================
	-----------------------------------------------------------
	 SCS Same-Spin Scale       =       0.3333333333333333 [-]
	 SCS Opposite-Spin Scale   =       1.2000000000000000 [-]
	 SCS Same-Spin Energy      =      -0.1527430268389856 [Eh]
	 SCS Opposite-Spin Energy  =      -1.6599424225724964 [Eh]
	 SCS Correlation Energy    =      -1.8126854494114819 [Eh]
	 SCS Total Energy          =    -453.4786533275884040 [Eh]
	-----------------------------------------------------------

  Dipole Moment: [D]
     X:     1.1321      Y:    -4.0736      Z:    -0.0001     Total:     4.2280

*** Psi4 exiting successfully. Buy a developer a beer!
