                               Psi4 1.3.2 release

  ==> Input File <==

--------------------------------------------------------------------------
#psi4
#
memory 32 gb

molecule  {
0 1
  N       -1.1265450    -1.2362860     0.0000060
  C        0.2496262    -1.3436189    -0.0000133
  C        1.1512880    -0.4934230    -0.0000150
  C        0.6802440     0.8910390    -0.0001390
  N       -0.7159090     1.0273040    -0.0000130
  C       -1.6820960     0.0327770     0.0001490
  C        2.6300190    -0.7237960     0.0000320
  O        1.4079770     1.8828460     0.0000440
  O       -2.8884570     0.2443790    -0.0000340
  H       -1.7971660    -1.9955960    -0.0000480
  H       -1.0703780     1.9806020    -0.0000270
  H        0.5071850    -2.5374850    -0.0000570
  H        3.0900470    -0.2640690    -0.8790850
  H        3.0900220    -0.2639380     0.8790930
  H        2.8593700    -1.7927480     0.0001130
units angstrom
no_reorient  #important for SAPT in psi4, default
symmetry c1  #important for SAPT in psi4, default
}

set PROPERTIES_ORIGIN ["COM"]
properties('MP2/aug-cc-pvtz', properties = ['dipole'])
--------------------------------------------------------------------------

    Molecular point group: c1
  Charge       = 0
  Multiplicity = 1
  Basis Set: AUG-CC-PVTZ
    Blend: AUG-CC-PVTZ
  Basis Set: (AUG-CC-PVTZ AUX)
    Blend: AUG-CC-PVTZ-JKFIT

    Orbital Energies [Eh]
    ---------------------

    Doubly Occupied:

       1A    -20.546077     2A    -20.543198     3A    -15.638384
       4A    -15.628996     5A    -11.414765     6A    -11.382469
       7A    -11.322804     8A    -11.250644     9A    -11.243306
      10A     -1.428144    11A     -1.393975    12A     -1.307857
      13A     -1.239003    14A     -1.134300    15A     -0.973125
      16A     -0.905083    17A     -0.897111    18A     -0.789812
      19A     -0.765299    20A     -0.690640    21A     -0.671579
      22A     -0.669568    23A     -0.637417    24A     -0.605470
      25A     -0.595487    26A     -0.567119    27A     -0.559832
      28A     -0.553033    29A     -0.515978    30A     -0.470557
      31A     -0.448547    32A     -0.435892    33A     -0.376457

  @DF-RHF Final Energy:  -451.64564858171298

   => Energetics <=

    Nuclear Repulsion Energy =            440.9226076025361749
    One-Electron Energy =               -1489.9326520235472344
    Two-Electron Energy =                 597.3643958392981403
    Total Energy =                       -451.6456485817129760
  Basis Set: (AUG-CC-PVTZ AUX)
    Blend: AUG-CC-PVTZ-RI
    Molecular point group: c1

    Geometry (in Angstrom), charge = 0, multiplicity = 1:

       Center              X                  Y                   Z               Mass
    ------------   -----------------  -----------------  -----------------  -----------------
         N           -1.075769818708    -1.288194996083     0.000004292316    14.003074004430
         C            0.300401381292    -1.395527896083    -0.000015007684    12.000000000000
         C            1.202063181292    -0.545331996083    -0.000016707684    12.000000000000
         C            0.731019181292     0.839130003917    -0.000140707684    12.000000000000
         N           -0.665133818708     0.975395003917    -0.000014707684    14.003074004430
         C           -1.631320818708    -0.019131996083     0.000147292316    12.000000000000
         C            2.680794181292    -0.775704996083     0.000030292316    12.000000000000
         O            1.458752181292     1.830937003917     0.000042292316    15.994914619570
         O           -2.837681818708     0.192470003917    -0.000035707684    15.994914619570
         H           -1.746390818708    -2.047504996083    -0.000049707684     1.007825032230
         H           -1.019602818708     1.928693003917    -0.000028707684     1.007825032230
         H            0.557960181292    -2.589393996083    -0.000058707684     1.007825032230
         H            3.140822181292    -0.315977996083    -0.879086707684     1.007825032230
         H            3.140797181292    -0.315846996083     0.879091292316     1.007825032230
         H            2.910145181292    -1.844656996083     0.000111292316     1.007825032230

  Basis Set: AUG-CC-PVTZ
    Blend: AUG-CC-PVTZ
  Basis Set: (AUG-CC-PVTZ AUX)
    Blend: AUG-CC-PVTZ-JKFIT
	 Reference Energy          =    -451.6456485817129760 [Eh]
	 Singles Energy            =      -0.0000000000000000 [Eh]
	 Same-Spin Energy          =      -0.4583242720307495 [Eh]
	 Opposite-Spin Energy      =      -1.3835229249459422 [Eh]
	 Correlation Energy        =      -1.8418471969766919 [Eh]
	 Total Energy              =    -453.4874957786896630 [Eh]

	 ================> DF-SCS-MP2 Energies <==================
	-----------------------------------------------------------
	 SCS Same-Spin Scale       =       0.3333333333333333 [-]
	 SCS Opposite-Spin Scale   =       1.2000000000000000 [-]
	 SCS Same-Spin Energy      =      -0.1527747573435832 [Eh]
	 SCS Opposite-Spin Energy  =      -1.6602275099351307 [Eh]
	 SCS Correlation Energy    =      -1.8130022672787138 [Eh]
	 SCS Total Energy          =    -453.4586508489916810 [Eh]
	-----------------------------------------------------------

  Dipole Moment: [D]
     X:     1.1230      Y:    -3.9209      Z:    -0.0001     Total:     4.0786

*** Psi4 exiting successfully. Buy a developer a beer!
