                               Psi4 1.3.2 release

  ==> Input File <==

--------------------------------------------------------------------------
#psi4
#
memory 32 gb

molecule  {
0 1
  N       -1.1711731    -1.2549014     0.0000142
  C        0.2308680    -1.4868800    -0.0000290
  C        1.1512880    -0.4934230    -0.0000150
  C        0.6802440     0.8910390    -0.0001390
  N       -0.7159090     1.0273040    -0.0000130
  C       -1.6820960     0.0327770     0.0001490
  C        2.6300190    -0.7237960     0.0000320
  O        1.4079770     1.8828460     0.0000440
  O       -2.8884570     0.2443790    -0.0000340
  H       -1.7971660    -1.9955960    -0.0000480
  H       -1.0703780     1.9806020    -0.0000270
  H        0.5071850    -2.5374850    -0.0000570
  H        3.0900470    -0.2640690    -0.8790850
  H        3.0900220    -0.2639380     0.8790930
  H        2.8593700    -1.7927480     0.0001130
units angstrom
no_reorient  #important for SAPT in psi4, default
symmetry c1  #important for SAPT in psi4, default
}

set PROPERTIES_ORIGIN ["COM"]
properties('MP2/aug-cc-pvtz', properties = ['dipole'])
--------------------------------------------------------------------------

    Molecular point group: c1
  Charge       = 0
  Multiplicity = 1
  Basis Set: AUG-CC-PVTZ
    Blend: AUG-CC-PVTZ
  Basis Set: (AUG-CC-PVTZ AUX)
    Blend: AUG-CC-PVTZ-JKFIT

    Orbital Energies [Eh]
    ---------------------

    Doubly Occupied:

       1A    -20.546089     2A    -20.540778     3A    -15.635907
       4A    -15.629911     5A    -11.416481     6A    -11.383324
       7A    -11.334390     8A    -11.267220     9A    -11.241754
      10A     -1.425748    11A     -1.393809    12A     -1.296687
      13A     -1.240323    14A     -1.110656    15A     -0.967851
      16A     -0.914045    17A     -0.898077    18A     -0.775002
      19A     -0.762532    20A     -0.704349    21A     -0.680384
      22A     -0.662474    23A     -0.636762    24A     -0.620222
      25A     -0.593018    26A     -0.570337    27A     -0.558363
      28A     -0.554159    29A     -0.505217    30A     -0.476669
      31A     -0.449779    32A     -0.435311    33A     -0.359048

  @DF-RHF Final Energy:  -451.67043026929252

   => Energetics <=

    Nuclear Repulsion Energy =            437.3816163520650093
    One-Electron Energy =               -1482.9307432327073002
    Two-Electron Energy =                 593.8786966113497101
    Total Energy =                       -451.6704302692925239
  Basis Set: (AUG-CC-PVTZ AUX)
    Blend: AUG-CC-PVTZ-RI
    Molecular point group: c1

    Geometry (in Angstrom), charge = 0, multiplicity = 1:

       Center              X                  Y                   Z               Mass
    ------------   -----------------  -----------------  -----------------  -----------------
         N           -1.113653954534    -1.291103001278     0.000013076044    14.003074004430
         C            0.288387145466    -1.523081601278    -0.000030123956    12.000000000000
         C            1.208807145466    -0.529624601278    -0.000016123956    12.000000000000
         C            0.737763145466     0.854837398722    -0.000140123956    12.000000000000
         N           -0.658389854534     0.991102398722    -0.000014123956    14.003074004430
         C           -1.624576854534    -0.003424601278     0.000147876044    12.000000000000
         C            2.687538145466    -0.759997601278     0.000030876044    12.000000000000
         O            1.465496145466     1.846644398722     0.000042876044    15.994914619570
         O           -2.830937854534     0.208177398722    -0.000035123956    15.994914619570
         H           -1.739646854534    -2.031797601278    -0.000049123956     1.007825032230
         H           -1.012858854534     1.944400398722    -0.000028123956     1.007825032230
         H            0.564704145466    -2.573686601278    -0.000058123956     1.007825032230
         H            3.147566145466    -0.300270601278    -0.879086123956     1.007825032230
         H            3.147541145466    -0.300139601278     0.879091876044     1.007825032230
         H            2.916889145466    -1.828949601278     0.000111876044     1.007825032230

  Basis Set: AUG-CC-PVTZ
    Blend: AUG-CC-PVTZ
  Basis Set: (AUG-CC-PVTZ AUX)
    Blend: AUG-CC-PVTZ-JKFIT
	 Reference Energy          =    -451.6704302692925239 [Eh]
	 Singles Energy            =      -0.0000000000000000 [Eh]
	 Same-Spin Energy          =      -0.4580953098125443 [Eh]
	 Opposite-Spin Energy      =      -1.3841362015979515 [Eh]
	 Correlation Energy        =      -1.8422315114104957 [Eh]
	 Total Energy              =    -453.5126617807030129 [Eh]

	 ================> DF-SCS-MP2 Energies <==================
	-----------------------------------------------------------
	 SCS Same-Spin Scale       =       0.3333333333333333 [-]
	 SCS Opposite-Spin Scale   =       1.2000000000000000 [-]
	 SCS Same-Spin Energy      =      -0.1526984366041814 [Eh]
	 SCS Opposite-Spin Energy  =      -1.6609634419175416 [Eh]
	 SCS Correlation Energy    =      -1.8136618785217231 [Eh]
	 SCS Total Energy          =    -453.4840921478142377 [Eh]
	-----------------------------------------------------------

  Dipole Moment: [D]
     X:     1.2399      Y:    -4.0921      Z:    -0.0001     Total:     4.2758

*** Psi4 exiting successfully. Buy a developer a beer!
