                               Psi4 1.3.2 release

  ==> Input File <==

--------------------------------------------------------------------------
#psi4
#
memory 32 gb

molecule  {
0 1
  N       -1.1265450    -1.2362860     0.0000060
  C        0.2308680    -1.4868800    -0.0000290
  C        1.1512880    -0.4934230    -0.0000150
  C        0.6802440     0.8910390    -0.0001390
  N       -0.7159090     1.0273040    -0.0000130
  C       -1.6820960     0.0327770     0.0001490
  C        2.6300190    -0.7237960     0.0000320
  O        1.4079770     1.8828460     0.0000440
  O       -2.8884570     0.2443790    -0.0000340
  H       -1.7971660    -1.9955960    -0.0000480
  H       -1.0355259     1.8868719    -0.0000256
  H        0.5071850    -2.5374850    -0.0000570
  H        3.0900470    -0.2640690    -0.8790850
  H        3.0900220    -0.2639380     0.8790930
  H        2.8593700    -1.7927480     0.0001130
units angstrom
no_reorient  #important for SAPT in psi4, default
symmetry c1  #important for SAPT in psi4, default
}

set PROPERTIES_ORIGIN ["COM"]
properties('MP2/aug-cc-pvtz', properties = ['dipole'])
--------------------------------------------------------------------------

    Molecular point group: c1
  Charge       = 0
  Multiplicity = 1
  Basis Set: AUG-CC-PVTZ
    Blend: AUG-CC-PVTZ
  Basis Set: (AUG-CC-PVTZ AUX)
    Blend: AUG-CC-PVTZ-JKFIT

    Orbital Energies [Eh]
    ---------------------

    Doubly Occupied:

       1A    -20.545832     2A    -20.544412     3A    -15.641125
       4A    -15.620299     5A    -11.419302     6A    -11.381992
       7A    -11.332713     8A    -11.263235     9A    -11.239903
      10A     -1.430288    11A     -1.393619    12A     -1.306575
      13A     -1.252487    14A     -1.109061    15A     -0.970879
      16A     -0.925425    17A     -0.896887    18A     -0.780546
      19A     -0.766764    20A     -0.720429    21A     -0.677201
      22A     -0.666478    23A     -0.641348    24A     -0.618700
      25A     -0.592097    26A     -0.570019    27A     -0.559278
      28A     -0.552848    29A     -0.512106    30A     -0.480180
      31A     -0.449565    32A     -0.437194    33A     -0.355068

  @DF-RHF Final Energy:  -451.66618377023428

   => Energetics <=

    Nuclear Repulsion Energy =            438.8726935999245029
    One-Electron Energy =               -1485.7700488218974897
    Two-Electron Energy =                 595.2311714517386463
    Total Energy =                       -451.6661837702342837
  Basis Set: (AUG-CC-PVTZ AUX)
    Blend: AUG-CC-PVTZ-RI
    Molecular point group: c1

    Geometry (in Angstrom), charge = 0, multiplicity = 1:

       Center              X                  Y                   Z               Mass
    ------------   -----------------  -----------------  -----------------  -----------------
         N           -1.074262605371    -1.273806273306     0.000005775850    14.003074004430
         C            0.283150394629    -1.524400273306    -0.000029224150    12.000000000000
         C            1.203570394629    -0.530943273306    -0.000015224150    12.000000000000
         C            0.732526394629     0.853518726694    -0.000139224150    12.000000000000
         N           -0.663626605371     0.989783726694    -0.000013224150    14.003074004430
         C           -1.629813605371    -0.004743273306     0.000148775850    12.000000000000
         C            2.682301394629    -0.761316273306     0.000031775850    12.000000000000
         O            1.460259394629     1.845325726694     0.000043775850    15.994914619570
         O           -2.836174605371     0.206858726694    -0.000034224150    15.994914619570
         H           -1.744883605371    -2.033116273306    -0.000048224150     1.007825032230
         H           -0.983243505371     1.849351626694    -0.000025824150     1.007825032230
         H            0.559467394629    -2.575005273306    -0.000057224150     1.007825032230
         H            3.142329394629    -0.301589273306    -0.879085224150     1.007825032230
         H            3.142304394629    -0.301458273306     0.879092775850     1.007825032230
         H            2.911652394629    -1.830268273306     0.000112775850     1.007825032230

  Basis Set: AUG-CC-PVTZ
    Blend: AUG-CC-PVTZ
  Basis Set: (AUG-CC-PVTZ AUX)
    Blend: AUG-CC-PVTZ-JKFIT
	 Reference Energy          =    -451.6661837702342837 [Eh]
	 Singles Energy            =      -0.0000000000000000 [Eh]
	 Same-Spin Energy          =      -0.4581683655131639 [Eh]
	 Opposite-Spin Energy      =      -1.3832649745750421 [Eh]
	 Correlation Energy        =      -1.8414333400882059 [Eh]
	 Total Energy              =    -453.5076171103224851 [Eh]

	 ================> DF-SCS-MP2 Energies <==================
	-----------------------------------------------------------
	 SCS Same-Spin Scale       =       0.3333333333333333 [-]
	 SCS Opposite-Spin Scale   =       1.2000000000000000 [-]
	 SCS Same-Spin Energy      =      -0.1527227885043879 [Eh]
	 SCS Opposite-Spin Energy  =      -1.6599179694900503 [Eh]
	 SCS Correlation Energy    =      -1.8126407579944384 [Eh]
	 SCS Total Energy          =    -453.4788245282286994 [Eh]
	-----------------------------------------------------------

  Dipole Moment: [D]
     X:     1.0783      Y:    -4.3051      Z:    -0.0001     Total:     4.4381

*** Psi4 exiting successfully. Buy a developer a beer!
