                               Psi4 1.3.2 release

  ==> Input File <==

--------------------------------------------------------------------------
#psi4
#
memory 32 gb

molecule  {
0 1
  N       -1.1265450    -1.2362860     0.0000060
  C        0.2308680    -1.4868800    -0.0000290
  C        1.1512880    -0.4934230    -0.0000150
  C        0.6776532     0.8666935    -0.0001371
  N       -0.7159090     1.0273040    -0.0000130
  C       -1.6820960     0.0327770     0.0001490
  C        2.6300190    -0.7237960     0.0000320
  O        1.4079770     1.8828460     0.0000440
  O       -2.8884570     0.2443790    -0.0000340
  H       -1.7971660    -1.9955960    -0.0000480
  H       -1.0703780     1.9806020    -0.0000270
  H        0.5071850    -2.5374850    -0.0000570
  H        3.0900470    -0.2640690    -0.8790850
  H        3.0900220    -0.2639380     0.8790930
  H        2.8593700    -1.7927480     0.0001130
units angstrom
no_reorient  #important for SAPT in psi4, default
symmetry c1  #important for SAPT in psi4, default
}

set PROPERTIES_ORIGIN ["COM"]
properties('MP2/aug-cc-pvtz', properties = ['dipole'])
--------------------------------------------------------------------------

    Molecular point group: c1
  Charge       = 0
  Multiplicity = 1
  Basis Set: AUG-CC-PVTZ
    Blend: AUG-CC-PVTZ
  Basis Set: (AUG-CC-PVTZ AUX)
    Blend: AUG-CC-PVTZ-JKFIT

    Orbital Energies [Eh]
    ---------------------

    Doubly Occupied:

       1A    -20.545287     2A    -20.538953     3A    -15.643077
       4A    -15.629957     5A    -11.418735     6A    -11.380941
       7A    -11.335652     8A    -11.263093     9A    -11.240318
      10A     -1.427498    11A     -1.379790    12A     -1.305857
      13A     -1.239351    14A     -1.112346    15A     -0.971553
      16A     -0.920331    17A     -0.892829    18A     -0.773132
      19A     -0.767837    20A     -0.709636    21A     -0.672438
      22A     -0.665995    23A     -0.640125    24A     -0.611893
      25A     -0.591757    26A     -0.569160    27A     -0.553519
      28A     -0.552165    29A     -0.512496    30A     -0.479831
      31A     -0.446852    32A     -0.431982    33A     -0.356247

  @DF-RHF Final Energy:  -451.66954181762276

   => Energetics <=

    Nuclear Repulsion Energy =            438.2813321477406703
    One-Electron Energy =               -1484.7404810227890266
    Two-Electron Energy =                 594.7896070574256555
    Total Energy =                       -451.6695418176227577
  Basis Set: (AUG-CC-PVTZ AUX)
    Blend: AUG-CC-PVTZ-RI
    Molecular point group: c1

    Geometry (in Angstrom), charge = 0, multiplicity = 1:

       Center              X                  Y                   Z               Mass
    ------------   -----------------  -----------------  -----------------  -----------------
         N           -1.073737273088    -1.272237899237     0.000005606154    14.003074004430
         C            0.283675726912    -1.522831899237    -0.000029393846    12.000000000000
         C            1.204095726912    -0.529374899237    -0.000015393846    12.000000000000
         C            0.730460926912     0.830741600763    -0.000137493846    12.000000000000
         N           -0.663101273088     0.991352100763    -0.000013393846    14.003074004430
         C           -1.629288273088    -0.003174899237     0.000148606154    12.000000000000
         C            2.682826726912    -0.759747899237     0.000031606154    12.000000000000
         O            1.460784726912     1.846894100763     0.000043606154    15.994914619570
         O           -2.835649273088     0.208427100763    -0.000034393846    15.994914619570
         H           -1.744358273088    -2.031547899237    -0.000048393846     1.007825032230
         H           -1.017570273088     1.944650100763    -0.000027393846     1.007825032230
         H            0.559992726912    -2.573436899237    -0.000057393846     1.007825032230
         H            3.142854726912    -0.300020899237    -0.879085393846     1.007825032230
         H            3.142829726912    -0.299889899237     0.879092606154     1.007825032230
         H            2.912177726912    -1.828699899237     0.000112606154     1.007825032230

  Basis Set: AUG-CC-PVTZ
    Blend: AUG-CC-PVTZ
  Basis Set: (AUG-CC-PVTZ AUX)
    Blend: AUG-CC-PVTZ-JKFIT
	 Reference Energy          =    -451.6695418176227577 [Eh]
	 Singles Energy            =      -0.0000000000000000 [Eh]
	 Same-Spin Energy          =      -0.4596483653375247 [Eh]
	 Opposite-Spin Energy      =      -1.3858988935843792 [Eh]
	 Correlation Energy        =      -1.8455472589219040 [Eh]
	 Total Energy              =    -453.5150890765446547 [Eh]

	 ================> DF-SCS-MP2 Energies <==================
	-----------------------------------------------------------
	 SCS Same-Spin Scale       =       0.3333333333333333 [-]
	 SCS Opposite-Spin Scale   =       1.2000000000000000 [-]
	 SCS Same-Spin Energy      =      -0.1532161217791749 [Eh]
	 SCS Opposite-Spin Energy  =      -1.6630786723012549 [Eh]
	 SCS Correlation Energy    =      -1.8162947940804299 [Eh]
	 SCS Total Energy          =    -453.4858366117031778 [Eh]
	-----------------------------------------------------------

  Dipole Moment: [D]
     X:     0.9703      Y:    -4.3529      Z:    -0.0001     Total:     4.4597

*** Psi4 exiting successfully. Buy a developer a beer!
