                               Psi4 1.3.2 release

  ==> Input File <==

--------------------------------------------------------------------------
#psi4
#
memory 32 gb

molecule  {
0 1
  N       -1.1265450    -1.2362860     0.0000060
  C        0.2308680    -1.4868800    -0.0000290
  C        1.1512880    -0.4934230    -0.0000150
  C        0.6802440     0.8910390    -0.0001390
  N       -0.7159090     1.0273040    -0.0000130
  C       -1.6820960     0.0327770     0.0001490
  C        2.6300190    -0.7237960     0.0000320
  O        1.4079770     1.8828460     0.0000440
  O       -2.9869533     0.2616558    -0.0000489
  H       -1.7971660    -1.9955960    -0.0000480
  H       -1.0703780     1.9806020    -0.0000270
  H        0.5071850    -2.5374850    -0.0000570
  H        3.0900470    -0.2640690    -0.8790850
  H        3.0900220    -0.2639380     0.8790930
  H        2.8593700    -1.7927480     0.0001130
units angstrom
no_reorient  #important for SAPT in psi4, default
symmetry c1  #important for SAPT in psi4, default
}

set PROPERTIES_ORIGIN ["COM"]
properties('MP2/aug-cc-pvtz', properties = ['dipole'])
--------------------------------------------------------------------------

    Molecular point group: c1
  Charge       = 0
  Multiplicity = 1
  Basis Set: AUG-CC-PVTZ
    Blend: AUG-CC-PVTZ
  Basis Set: (AUG-CC-PVTZ AUX)
    Blend: AUG-CC-PVTZ-JKFIT

    Orbital Energies [Eh]
    ---------------------

    Doubly Occupied:

       1A    -20.549313     2A    -20.540482     3A    -15.651926
       4A    -15.640021     5A    -11.433269     6A    -11.387690
       7A    -11.337766     8A    -11.270180     9A    -11.244107
      10A     -1.412596    11A     -1.374686    12A     -1.287144
      13A     -1.245725    14A     -1.114264    15A     -0.976731
      16A     -0.920340    17A     -0.901484    18A     -0.777654
      19A     -0.767161    20A     -0.713202    21A     -0.676279
      22A     -0.662500    23A     -0.618700    24A     -0.615252
      25A     -0.591130    26A     -0.572194    27A     -0.562178
      28A     -0.556377    29A     -0.500987    30A     -0.470113
      31A     -0.449110    32A     -0.432261    33A     -0.359828

  @DF-RHF Final Energy:  -451.65020261220150

   => Energetics <=

    Nuclear Repulsion Energy =            434.8362547517793928
    One-Electron Energy =               -1477.7476135629310647
    Two-Electron Energy =                 591.2611561989502889
    Total Energy =                       -451.6502026122014968
  Basis Set: (AUG-CC-PVTZ AUX)
    Blend: AUG-CC-PVTZ-RI
    Molecular point group: c1

    Geometry (in Angstrom), charge = 0, multiplicity = 1:

       Center              X                  Y                   Z               Mass
    ------------   -----------------  -----------------  -----------------  -----------------
         N           -1.061484698984    -1.276748163735     0.000007677862    14.003074004430
         C            0.295928301016    -1.527342163735    -0.000027322138    12.000000000000
         C            1.216348301016    -0.533885163735    -0.000013322138    12.000000000000
         C            0.745304301016     0.850576836265    -0.000137322138    12.000000000000
         N           -0.650848698984     0.986841836265    -0.000011322138    14.003074004430
         C           -1.617035698984    -0.007685163735     0.000150677862    12.000000000000
         C            2.695079301016    -0.764258163735     0.000033677862    12.000000000000
         O            1.473037301016     1.842383836265     0.000045677862    15.994914619570
         O           -2.921892998984     0.221193636265    -0.000047222138    15.994914619570
         H           -1.732105698984    -2.036058163735    -0.000046322138     1.007825032230
         H           -1.005317698984     1.940139836265    -0.000025322138     1.007825032230
         H            0.572245301016    -2.577947163735    -0.000055322138     1.007825032230
         H            3.155107301016    -0.304531163735    -0.879083322138     1.007825032230
         H            3.155082301016    -0.304400163735     0.879094677862     1.007825032230
         H            2.924430301016    -1.833210163735     0.000114677862     1.007825032230

  Basis Set: AUG-CC-PVTZ
    Blend: AUG-CC-PVTZ
  Basis Set: (AUG-CC-PVTZ AUX)
    Blend: AUG-CC-PVTZ-JKFIT
	 Reference Energy          =    -451.6502026122014968 [Eh]
	 Singles Energy            =      -0.0000000000000000 [Eh]
	 Same-Spin Energy          =      -0.4613267933361628 [Eh]
	 Opposite-Spin Energy      =      -1.3904129049736709 [Eh]
	 Correlation Energy        =      -1.8517396983098338 [Eh]
	 Total Energy              =    -453.5019423105113106 [Eh]

	 ================> DF-SCS-MP2 Energies <==================
	-----------------------------------------------------------
	 SCS Same-Spin Scale       =       0.3333333333333333 [-]
	 SCS Opposite-Spin Scale   =       1.2000000000000000 [-]
	 SCS Same-Spin Energy      =      -0.1537755977787209 [Eh]
	 SCS Opposite-Spin Energy  =      -1.6684954859684049 [Eh]
	 SCS Correlation Energy    =      -1.8222710837471259 [Eh]
	 SCS Total Energy          =    -453.4724736959486222 [Eh]
	-----------------------------------------------------------

  Dipole Moment: [D]
     X:     1.8071      Y:    -4.3029      Z:    -0.0001     Total:     4.6670

*** Psi4 exiting successfully. Buy a developer a beer!
