                               Psi4 1.4a3.dev225

  ==> Input File <==

--------------------------------------------------------------------------
#psi4
#
memory 32 gb

molecule  {
0 1
  N       -1.1263310    -1.2364150    -0.0000030
  C        0.2309450    -1.4868440     0.0000000
  C        1.1514300    -0.4932890    -0.0000070
  C        0.6802680     0.8910870    -0.0000240
  N       -0.7160800     1.0272360    -0.0000150
  C       -1.6820330     0.0328590    -0.0000240
  C        2.6301110    -0.7238270     0.0000080
  O        1.4075700     1.8832080     0.0000170
  O       -2.8884930     0.2440480     0.0000250
  H       -1.8299224    -2.0332921     0.0000159
  H       -1.0704590     1.9805630     0.0000060
  H        0.5076420    -2.5373850     0.0000160
  H        3.0901790    -0.2641310    -0.8791000
  H        3.0901670    -0.2640930     0.8791020
  H        2.8592340    -1.7928420     0.0000320
units angstrom
no_reorient  #important for SAPT in psi4, default
symmetry c1  #important for SAPT in psi4, default
}

set PROPERTIES_ORIGIN ["COM"]
properties('MP2/aug-cc-pvtz', properties = ['dipole'])
--------------------------------------------------------------------------

    Molecular point group: c1
  Charge       = 0
  Multiplicity = 1
  Basis Set: AUG-CC-PVTZ
    Blend: AUG-CC-PVTZ
  Basis Set: (AUG-CC-PVTZ AUX)
    Blend: AUG-CC-PVTZ-JKFIT

    Orbital Energies [Eh]
    ---------------------

    Doubly Occupied:

       1A    -20.544031     2A    -20.542828     3A    -15.644406
       4A    -15.628408     5A    -11.417925     6A    -11.380767
       7A    -11.331834     8A    -11.262367     9A    -11.239273
      10A     -1.426435    11A     -1.391662    12A     -1.302272
      13A     -1.237798    14A     -1.106665    15A     -0.969379
      16A     -0.914953    17A     -0.888271    18A     -0.767409
      19A     -0.761399    20A     -0.705949    21A     -0.670914
      22A     -0.664563    23A     -0.639640    24A     -0.614774
      25A     -0.591153    26A     -0.567957    27A     -0.557578
      28A     -0.551379    29A     -0.510530    30A     -0.479057
      31A     -0.448107    32A     -0.434539    33A     -0.353740

  @DF-RHF Final Energy:  -451.66867318214639

   => Energetics <=

    Nuclear Repulsion Energy =            437.8824299801255506
    One-Electron Energy =               -1484.0062856845054284
    Two-Electron Energy =                 594.4551825222334855
    Total Energy =                       -451.6686731821463354
  Basis Set: (AUG-CC-PVTZ AUX)
    Blend: AUG-CC-PVTZ-RI
    Molecular point group: c1

    Geometry (in Angstrom), charge = 0, multiplicity = 1:

       Center              X                  Y                   Z               Mass
    ------------   -----------------  -----------------  -----------------  -----------------
         N           -1.073498601420    -1.274388973878    -0.000002430303    14.003074004430
         C            0.283777398580    -1.524817973878     0.000000569697    12.000000000000
         C            1.204262398580    -0.531262973878    -0.000006430303    12.000000000000
         C            0.733100398580     0.853113026122    -0.000023430303    12.000000000000
         N           -0.663247601420     0.989262026122    -0.000014430303    14.003074004430
         C           -1.629200601420    -0.005114973878    -0.000023430303    12.000000000000
         C            2.682943398580    -0.761800973878     0.000008569697    12.000000000000
         O            1.460402398580     1.845234026122     0.000017569697    15.994914619570
         O           -2.835660601420     0.206074026122     0.000025569697    15.994914619570
         H           -1.777090001420    -2.071266073878     0.000016469697     1.007825032230
         H           -1.017626601420     1.942589026122     0.000006569697     1.007825032230
         H            0.560474398580    -2.575358973878     0.000016569697     1.007825032230
         H            3.143011398580    -0.302104973878    -0.879099430303     1.007825032230
         H            3.142999398580    -0.302066973878     0.879102569697     1.007825032230
         H            2.912066398580    -1.830815973878     0.000032569697     1.007825032230

  Basis Set: AUG-CC-PVTZ
    Blend: AUG-CC-PVTZ
  Basis Set: (AUG-CC-PVTZ AUX)
    Blend: AUG-CC-PVTZ-JKFIT
	 Reference Energy          =    -451.6686731821463923 [Eh]
	 Singles Energy            =      -0.0000000000000000 [Eh]
	 Same-Spin Energy          =      -0.4593675630110744 [Eh]
	 Opposite-Spin Energy      =      -1.3856575534247422 [Eh]
	 Correlation Energy        =      -1.8450251164358167 [Eh]
	 Total Energy              =    -453.5136982985821987 [Eh]

	 ================> DF-SCS-MP2 Energies <==================
	-----------------------------------------------------------
	 SCS Same-Spin Scale       =       0.3333333333333333 [-]
	 SCS Opposite-Spin Scale   =       1.2000000000000000 [-]
	 SCS Same-Spin Energy      =      -0.1531225210036914 [Eh]
	 SCS Opposite-Spin Energy  =      -1.6627890641096905 [Eh]
	 SCS Correlation Energy    =      -1.8159115851133820 [Eh]
	 SCS Total Energy          =    -453.4845847672597756 [Eh]
	-----------------------------------------------------------

  Dipole Moment: [D]
     X:     0.9889      Y:    -4.2445      Z:    -0.0001     Total:     4.3582

*** Psi4 exiting successfully. Buy a developer a beer!
