                               Psi4 1.3.2 release

  ==> Input File <==

--------------------------------------------------------------------------
#psi4
#
memory 32 gb

molecule  {
0 1
  N       -1.1307117    -1.2600143     0.0000053
  C        0.2308680    -1.4868800    -0.0000290
  C        1.1512880    -0.4934230    -0.0000150
  C        0.6802440     0.8910390    -0.0001390
  N       -0.7159090     1.0273040    -0.0000130
  C       -1.6820960     0.0327770     0.0001490
  C        2.6300190    -0.7237960     0.0000320
  O        1.4079770     1.8828460     0.0000440
  O       -2.8884570     0.2443790    -0.0000340
  H       -1.7971660    -1.9955960    -0.0000480
  H       -1.0703780     1.9806020    -0.0000270
  H        0.5071850    -2.5374850    -0.0000570
  H        3.0900470    -0.2640690    -0.8790850
  H        3.0900220    -0.2639380     0.8790930
  H        2.8593700    -1.7927480     0.0001130
units angstrom
no_reorient  #important for SAPT in psi4, default
symmetry c1  #important for SAPT in psi4, default
}

set PROPERTIES_ORIGIN ["COM"]
properties('MP2/aug-cc-pvtz', properties = ['dipole'])
--------------------------------------------------------------------------

    Molecular point group: c1
  Charge       = 0
  Multiplicity = 1
  Basis Set: AUG-CC-PVTZ
    Blend: AUG-CC-PVTZ
  Basis Set: (AUG-CC-PVTZ AUX)
    Blend: AUG-CC-PVTZ-JKFIT

    Orbital Energies [Eh]
    ---------------------

    Doubly Occupied:

       1A    -20.546878     2A    -20.543541     3A    -15.639289
       4A    -15.630060     5A    -11.420848     6A    -11.381306
       7A    -11.331867     8A    -11.262170     9A    -11.239233
      10A     -1.426996    11A     -1.392520    12A     -1.303376
      13A     -1.241649    14A     -1.107198    15A     -0.967923
      16A     -0.914418    17A     -0.895029    18A     -0.773784
      19A     -0.763991    20A     -0.707718    21A     -0.677337
      22A     -0.663424    23A     -0.639776    24A     -0.616667
      25A     -0.590965    26A     -0.568824    27A     -0.557899
      28A     -0.551814    29A     -0.512472    30A     -0.479526
      31A     -0.449005    32A     -0.435552    33A     -0.353974

  @DF-RHF Final Energy:  -451.67184036936925

   => Energetics <=

    Nuclear Repulsion Energy =            437.6990746519511504
    One-Electron Energy =               -1483.5677757928604024
    Two-Electron Energy =                 594.1968607715400594
    Total Energy =                       -451.6718403693691926
  Basis Set: (AUG-CC-PVTZ AUX)
    Blend: AUG-CC-PVTZ-RI
    Molecular point group: c1

    Geometry (in Angstrom), charge = 0, multiplicity = 1:

       Center              X                  Y                   Z               Mass
    ------------   -----------------  -----------------  -----------------  -----------------
         N           -1.077687721300    -1.295647870064     0.000005164813    14.003074004430
         C            0.283891978700    -1.522513570064    -0.000029135187    12.000000000000
         C            1.204311978700    -0.529056570064    -0.000015135187    12.000000000000
         C            0.733267978700     0.855405429936    -0.000139135187    12.000000000000
         N           -0.662885021300     0.991670429936    -0.000013135187    14.003074004430
         C           -1.629072021300    -0.002856570064     0.000148864813    12.000000000000
         C            2.683042978700    -0.759429570064     0.000031864813    12.000000000000
         O            1.461000978700     1.847212429936     0.000043864813    15.994914619570
         O           -2.835433021300     0.208745429936    -0.000034135187    15.994914619570
         H           -1.744142021300    -2.031229570064    -0.000048135187     1.007825032230
         H           -1.017354021300     1.944968429936    -0.000027135187     1.007825032230
         H            0.560208978700    -2.573118570064    -0.000057135187     1.007825032230
         H            3.143070978700    -0.299702570064    -0.879085135187     1.007825032230
         H            3.143045978700    -0.299571570064     0.879092864813     1.007825032230
         H            2.912393978700    -1.828381570064     0.000112864813     1.007825032230

  Basis Set: AUG-CC-PVTZ
    Blend: AUG-CC-PVTZ
  Basis Set: (AUG-CC-PVTZ AUX)
    Blend: AUG-CC-PVTZ-JKFIT
	 Reference Energy          =    -451.6718403693692494 [Eh]
	 Singles Energy            =      -0.0000000000000000 [Eh]
	 Same-Spin Energy          =      -0.4587879499117663 [Eh]
	 Opposite-Spin Energy      =      -1.3847050267398067 [Eh]
	 Correlation Energy        =      -1.8434929766515729 [Eh]
	 Total Energy              =    -453.5153333460208387 [Eh]

	 ================> DF-SCS-MP2 Energies <==================
	-----------------------------------------------------------
	 SCS Same-Spin Scale       =       0.3333333333333333 [-]
	 SCS Opposite-Spin Scale   =       1.2000000000000000 [-]
	 SCS Same-Spin Energy      =      -0.1529293166372554 [Eh]
	 SCS Opposite-Spin Energy  =      -1.6616460320877680 [Eh]
	 SCS Correlation Energy    =      -1.8145753487250234 [Eh]
	 SCS Total Energy          =    -453.4864157180942925 [Eh]
	-----------------------------------------------------------

  Dipole Moment: [D]
     X:     0.9766      Y:    -4.1055      Z:    -0.0001     Total:     4.2200

*** Psi4 exiting successfully. Buy a developer a beer!
