                               Psi4 1.3.2 release

  ==> Input File <==

--------------------------------------------------------------------------
#psi4
#
memory 32 gb

molecule  {
0 1
  N       -1.1265450    -1.2362860     0.0000060
  C        0.2308680    -1.4868800    -0.0000290
  C        1.1512880    -0.4934230    -0.0000150
  C        0.6863484     0.9887616    -0.0001463
  N       -0.7159090     1.0273040    -0.0000130
  C       -1.6820960     0.0327770     0.0001490
  C        2.6300190    -0.7237960     0.0000320
  O        1.4079770     1.8828460     0.0000440
  O       -2.8884570     0.2443790    -0.0000340
  H       -1.7971660    -1.9955960    -0.0000480
  H       -1.0703780     1.9806020    -0.0000270
  H        0.5071850    -2.5374850    -0.0000570
  H        3.0900470    -0.2640690    -0.8790850
  H        3.0900220    -0.2639380     0.8790930
  H        2.8593700    -1.7927480     0.0001130
units angstrom
no_reorient  #important for SAPT in psi4, default
symmetry c1  #important for SAPT in psi4, default
}

set PROPERTIES_ORIGIN ["COM"]
properties('MP2/aug-cc-pvtz', properties = ['dipole'])
--------------------------------------------------------------------------

    Molecular point group: c1
  Charge       = 0
  Multiplicity = 1
  Basis Set: AUG-CC-PVTZ
    Blend: AUG-CC-PVTZ
  Basis Set: (AUG-CC-PVTZ AUX)
    Blend: AUG-CC-PVTZ-JKFIT

    Orbital Energies [Eh]
    ---------------------

    Doubly Occupied:

       1A    -20.559230     2A    -20.542067     3A    -15.631705
       4A    -15.623965     5A    -11.416921     6A    -11.380879
       7A    -11.318425     8A    -11.259609     9A    -11.236173
      10A     -1.458963    11A     -1.417346    12A     -1.300144
      13A     -1.241390    14A     -1.092259    15A     -0.964509
      16A     -0.898119    17A     -0.894322    18A     -0.763083
      19A     -0.757179    20A     -0.700304    21A     -0.690626
      22A     -0.664701    23A     -0.642968    24A     -0.623638
      25A     -0.597016    26A     -0.574380    27A     -0.569084
      28A     -0.552305    29A     -0.506269    30A     -0.475375
      31A     -0.445475    32A     -0.444067    33A     -0.346513

  @DF-RHF Final Energy:  -451.66439799229272

   => Energetics <=

    Nuclear Repulsion Energy =            437.9706661763037800
    One-Electron Energy =               -1484.0921052044943735
    Two-Electron Energy =                 594.4570410358979871
    Total Energy =                       -451.6643979922927201
  Basis Set: (AUG-CC-PVTZ AUX)
    Blend: AUG-CC-PVTZ-RI
    Molecular point group: c1

    Geometry (in Angstrom), charge = 0, multiplicity = 1:

       Center              X                  Y                   Z               Mass
    ------------   -----------------  -----------------  -----------------  -----------------
         N           -1.074565105337    -1.283859473170     0.000006482046    14.003074004430
         C            0.282847894663    -1.534453473170    -0.000028517954    12.000000000000
         C            1.203267894663    -0.540996473170    -0.000014517954    12.000000000000
         C            0.738328294663     0.941188126830    -0.000145817954    12.000000000000
         N           -0.663929105337     0.979730526830    -0.000012517954    14.003074004430
         C           -1.630116105337    -0.014796473170     0.000149482046    12.000000000000
         C            2.681998894663    -0.771369473170     0.000032482046    12.000000000000
         O            1.459956894663     1.835272526830     0.000044482046    15.994914619570
         O           -2.836477105337     0.196805526830    -0.000033517954    15.994914619570
         H           -1.745186105337    -2.043169473170    -0.000047517954     1.007825032230
         H           -1.018398105337     1.933028526830    -0.000026517954     1.007825032230
         H            0.559164894663    -2.585058473170    -0.000056517954     1.007825032230
         H            3.142026894663    -0.311642473170    -0.879084517954     1.007825032230
         H            3.142001894663    -0.311511473170     0.879093482046     1.007825032230
         H            2.911349894663    -1.840321473170     0.000113482046     1.007825032230

  Basis Set: AUG-CC-PVTZ
    Blend: AUG-CC-PVTZ
  Basis Set: (AUG-CC-PVTZ AUX)
    Blend: AUG-CC-PVTZ-JKFIT
	 Reference Energy          =    -451.6643979922927201 [Eh]
	 Singles Energy            =      -0.0000000000000000 [Eh]
	 Same-Spin Energy          =      -0.4567674917529227 [Eh]
	 Opposite-Spin Energy      =      -1.3811072110026965 [Eh]
	 Correlation Energy        =      -1.8378747027556193 [Eh]
	 Total Energy              =    -453.5022726950483616 [Eh]

	 ================> DF-SCS-MP2 Energies <==================
	-----------------------------------------------------------
	 SCS Same-Spin Scale       =       0.3333333333333333 [-]
	 SCS Opposite-Spin Scale   =       1.2000000000000000 [-]
	 SCS Same-Spin Energy      =      -0.1522558305843076 [Eh]
	 SCS Opposite-Spin Energy  =      -1.6573286532032359 [Eh]
	 SCS Correlation Energy    =      -1.8095844837875434 [Eh]
	 SCS Total Energy          =    -453.4739824760802662 [Eh]
	-----------------------------------------------------------

  Dipole Moment: [D]
     X:     1.2914      Y:    -3.4780      Z:    -0.0001     Total:     3.7101

*** Psi4 exiting successfully. Buy a developer a beer!
