                               Psi4 1.4a3.dev225

  ==> Input File <==

--------------------------------------------------------------------------
#psi4
#
memory 32 gb

molecule  {
0 1
  N       -1.1263310    -1.2364150    -0.0000030
  C        0.2309450    -1.4868440     0.0000000
  C        1.1514300    -0.4932890    -0.0000070
  C        0.6802680     0.8910870    -0.0000240
  N       -0.7160800     1.0272360    -0.0000150
  C       -1.6820330     0.0328590    -0.0000240
  C        2.6301110    -0.7238270     0.0000080
  O        1.4075700     1.8832080     0.0000170
  O       -2.8884930     0.2440480     0.0000250
  H       -1.7968290    -1.9958110     0.0000150
  H       -1.0530373     1.9336963     0.0000050
  H        0.5076420    -2.5373850     0.0000160
  H        3.0901790    -0.2641310    -0.8791000
  H        3.0901670    -0.2640930     0.8791020
  H        2.8592340    -1.7928420     0.0000320
units angstrom
no_reorient  #important for SAPT in psi4, default
symmetry c1  #important for SAPT in psi4, default
}

set PROPERTIES_ORIGIN ["COM"]
properties('MP2/aug-cc-pvtz', properties = ['dipole'])
--------------------------------------------------------------------------

    Molecular point group: c1
  Charge       = 0
  Multiplicity = 1
  Basis Set: AUG-CC-PVTZ
    Blend: AUG-CC-PVTZ
  Basis Set: (AUG-CC-PVTZ AUX)
    Blend: AUG-CC-PVTZ-JKFIT

    Orbital Energies [Eh]
    ---------------------

    Doubly Occupied:

       1A    -20.545206     2A    -20.543848     3A    -15.640867
       4A    -15.624677     5A    -11.418800     6A    -11.381589
       7A    -11.332416     8A    -11.263034     9A    -11.239727
      10A     -1.428758    11A     -1.392872    12A     -1.305730
      13A     -1.245950    14A     -1.108549    15A     -0.970467
      16A     -0.919892    17A     -0.895279    18A     -0.775261
      19A     -0.766129    20A     -0.714282    21A     -0.676028
      22A     -0.665807    23A     -0.640771    24A     -0.617652
      25A     -0.591812    26A     -0.569355    27A     -0.558687
      28A     -0.552402    29A     -0.511701    30A     -0.479833
      31A     -0.449047    32A     -0.436010    33A     -0.354747

  @DF-RHF Final Energy:  -451.67211146738305

   => Energetics <=

    Nuclear Repulsion Energy =            438.5166726421060162
    One-Electron Energy =               -1485.1431999237508990
    Two-Electron Energy =                 594.9544158142618926
    Total Energy =                       -451.6721114673830471
  Basis Set: (AUG-CC-PVTZ AUX)
    Blend: AUG-CC-PVTZ-RI
    Molecular point group: c1

    Geometry (in Angstrom), charge = 0, multiplicity = 1:

       Center              X                  Y                   Z               Mass
    ------------   -----------------  -----------------  -----------------  -----------------
         N           -1.073902514462    -1.274313927679    -0.000002415111    14.003074004430
         C            0.283373485538    -1.524742927679     0.000000584889    12.000000000000
         C            1.203858485538    -0.531187927679    -0.000006415111    12.000000000000
         C            0.732696485538     0.853188072321    -0.000023415111    12.000000000000
         N           -0.663651514462     0.989337072321    -0.000014415111    14.003074004430
         C           -1.629604514462    -0.005039927679    -0.000023415111    12.000000000000
         C            2.682539485538    -0.761725927679     0.000008584889    12.000000000000
         O            1.459998485538     1.845309072321     0.000017584889    15.994914619570
         O           -2.836064514462     0.206149072321     0.000025584889    15.994914619570
         H           -1.744400514462    -2.033709927679     0.000015584889     1.007825032230
         H           -1.000608814462     1.895797372321     0.000005584889     1.007825032230
         H            0.560070485538    -2.575283927679     0.000016584889     1.007825032230
         H            3.142607485538    -0.302029927679    -0.879099415111     1.007825032230
         H            3.142595485538    -0.301991927679     0.879102584889     1.007825032230
         H            2.911662485538    -1.830740927679     0.000032584889     1.007825032230

  Basis Set: AUG-CC-PVTZ
    Blend: AUG-CC-PVTZ
  Basis Set: (AUG-CC-PVTZ AUX)
    Blend: AUG-CC-PVTZ-JKFIT
	 Reference Energy          =    -451.6721114673830471 [Eh]
	 Singles Energy            =      -0.0000000000000000 [Eh]
	 Same-Spin Energy          =      -0.4585556368940678 [Eh]
	 Opposite-Spin Energy      =      -1.3839568355872562 [Eh]
	 Correlation Energy        =      -1.8425124724813240 [Eh]
	 Total Energy              =    -453.5146239398643502 [Eh]

	 ================> DF-SCS-MP2 Energies <==================
	-----------------------------------------------------------
	 SCS Same-Spin Scale       =       0.3333333333333333 [-]
	 SCS Opposite-Spin Scale   =       1.2000000000000000 [-]
	 SCS Same-Spin Energy      =      -0.1528518789646892 [Eh]
	 SCS Opposite-Spin Energy  =      -1.6607482027047074 [Eh]
	 SCS Correlation Energy    =      -1.8136000816693967 [Eh]
	 SCS Total Energy          =    -453.4857115490524393 [Eh]
	-----------------------------------------------------------

  Dipole Moment: [D]
     X:     1.0589      Y:    -4.2462      Z:    -0.0001     Total:     4.3762

*** Psi4 exiting successfully. Buy a developer a beer!
