                               Psi4 1.4a3.dev225

  ==> Input File <==

--------------------------------------------------------------------------
#psi4
#
memory 32 gb

molecule  {
0 1
  N       -1.1263310    -1.2364150    -0.0000030
  C        0.2309450    -1.4868440     0.0000000
  C        1.1514300    -0.4932890    -0.0000070
  C        0.6802680     0.8910870    -0.0000240
  N       -0.7160800     1.0272360    -0.0000150
  C       -1.6820330     0.0328590    -0.0000240
  C        2.6301110    -0.7238270     0.0000080
  O        1.4075700     1.8832080     0.0000170
  O       -2.9377441     0.2526693     0.0000270
  H       -1.7968290    -1.9958110     0.0000150
  H       -1.0704590     1.9805630     0.0000060
  H        0.5076420    -2.5373850     0.0000160
  H        3.0901790    -0.2641310    -0.8791000
  H        3.0901670    -0.2640930     0.8791020
  H        2.8592340    -1.7928420     0.0000320
units angstrom
no_reorient  #important for SAPT in psi4, default
symmetry c1  #important for SAPT in psi4, default
}

set PROPERTIES_ORIGIN ["COM"]
properties('MP2/aug-cc-pvtz', properties = ['dipole'])
--------------------------------------------------------------------------

    Molecular point group: c1
  Charge       = 0
  Multiplicity = 1
  Basis Set: AUG-CC-PVTZ
    Blend: AUG-CC-PVTZ
  Basis Set: (AUG-CC-PVTZ AUX)
    Blend: AUG-CC-PVTZ-JKFIT

    Orbital Energies [Eh]
    ---------------------

    Doubly Occupied:

       1A    -20.546379     2A    -20.542610     3A    -15.646429
       4A    -15.634502     5A    -11.426391     6A    -11.384546
       7A    -11.335033     8A    -11.266571     9A    -11.241874
      10A     -1.414732    11A     -1.384798    12A     -1.298530
      13A     -1.243273    14A     -1.111242    15A     -0.973457
      16A     -0.917864    17A     -0.897594    18A     -0.774245
      19A     -0.766097    20A     -0.710286    21A     -0.674780
      22A     -0.663124    23A     -0.628173    24A     -0.617391
      25A     -0.591013    26A     -0.570730    27A     -0.560118
      28A     -0.554166    29A     -0.505869    30A     -0.474262
      31A     -0.449683    32A     -0.434025    33A     -0.357195

  @DF-RHF Final Energy:  -451.66356771218580

   => Energetics <=

    Nuclear Repulsion Energy =            436.4675778954237444
    One-Electron Energy =               -1481.0683288980312682
    Two-Electron Energy =                 592.9371832904216717
    Total Energy =                       -451.6635677121857952
  Basis Set: (AUG-CC-PVTZ AUX)
    Blend: AUG-CC-PVTZ-RI
    Molecular point group: c1

    Geometry (in Angstrom), charge = 0, multiplicity = 1:

       Center              X                  Y                   Z               Mass
    ------------   -----------------  -----------------  -----------------  -----------------
         N           -1.067513221694    -1.275782716088    -0.000002676908    14.003074004430
         C            0.289762778306    -1.526211716088     0.000000323092    12.000000000000
         C            1.210247778306    -0.532656716088    -0.000006676908    12.000000000000
         C            0.739085778306     0.851719283912    -0.000023676908    12.000000000000
         N           -0.657262221694     0.987868283912    -0.000014676908    14.003074004430
         C           -1.623215221694    -0.006508716088    -0.000023676908    12.000000000000
         C            2.688928778306    -0.763194716088     0.000008323092    12.000000000000
         O            1.466387778306     1.843840283912     0.000017323092    15.994914619570
         O           -2.878926321694     0.213301583912     0.000027323092    15.994914619570
         H           -1.738011221694    -2.035178716088     0.000015323092     1.007825032230
         H           -1.011641221694     1.941195283912     0.000006323092     1.007825032230
         H            0.566459778306    -2.576752716088     0.000016323092     1.007825032230
         H            3.148996778306    -0.303498716088    -0.879099676908     1.007825032230
         H            3.148984778306    -0.303460716088     0.879102323092     1.007825032230
         H            2.918051778306    -1.832209716088     0.000032323092     1.007825032230

  Basis Set: AUG-CC-PVTZ
    Blend: AUG-CC-PVTZ
  Basis Set: (AUG-CC-PVTZ AUX)
    Blend: AUG-CC-PVTZ-JKFIT
	 Reference Energy          =    -451.6635677121857952 [Eh]
	 Singles Energy            =      -0.0000000000000000 [Eh]
	 Same-Spin Energy          =      -0.4602112771109093 [Eh]
	 Opposite-Spin Energy      =      -1.3876951979743393 [Eh]
	 Correlation Energy        =      -1.8479064750852485 [Eh]
	 Total Energy              =    -453.5114741872710624 [Eh]

	 ================> DF-SCS-MP2 Energies <==================
	-----------------------------------------------------------
	 SCS Same-Spin Scale       =       0.3333333333333333 [-]
	 SCS Opposite-Spin Scale   =       1.2000000000000000 [-]
	 SCS Same-Spin Energy      =      -0.1534037590369697 [Eh]
	 SCS Opposite-Spin Energy  =      -1.6652342375692071 [Eh]
	 SCS Correlation Energy    =      -1.8186379966061768 [Eh]
	 SCS Total Energy          =    -453.4822057087919802 [Eh]
	-----------------------------------------------------------

  Dipole Moment: [D]
     X:     1.4290      Y:    -4.2451      Z:    -0.0001     Total:     4.4792

*** Psi4 exiting successfully. Buy a developer a beer!
