                               Psi4 1.3.2 release

  ==> Input File <==

--------------------------------------------------------------------------
#psi4
#
memory 32 gb

molecule  {
0 1
  N       -1.1265450    -1.2362860     0.0000060
  C        0.2308680    -1.4868800    -0.0000290
  C        1.1270541    -0.5014330    -0.0000115
  C        0.6802440     0.8910390    -0.0001390
  N       -0.7159090     1.0273040    -0.0000130
  C       -1.6820960     0.0327770     0.0001490
  C        2.6300190    -0.7237960     0.0000320
  O        1.4079770     1.8828460     0.0000440
  O       -2.8884570     0.2443790    -0.0000340
  H       -1.7971660    -1.9955960    -0.0000480
  H       -1.0703780     1.9806020    -0.0000270
  H        0.5071850    -2.5374850    -0.0000570
  H        3.0900470    -0.2640690    -0.8790850
  H        3.0900220    -0.2639380     0.8790930
  H        2.8593700    -1.7927480     0.0001130
units angstrom
no_reorient  #important for SAPT in psi4, default
symmetry c1  #important for SAPT in psi4, default
}

set PROPERTIES_ORIGIN ["COM"]
properties('MP2/aug-cc-pvtz', properties = ['dipole'])
--------------------------------------------------------------------------

    Molecular point group: c1
  Charge       = 0
  Multiplicity = 1
  Basis Set: AUG-CC-PVTZ
    Blend: AUG-CC-PVTZ
  Basis Set: (AUG-CC-PVTZ AUX)
    Blend: AUG-CC-PVTZ-JKFIT

    Orbital Energies [Eh]
    ---------------------

    Doubly Occupied:

       1A    -20.544933     2A    -20.544106     3A    -15.639021
       4A    -15.628158     5A    -11.417881     6A    -11.382224
       7A    -11.328781     8A    -11.261165     9A    -11.240761
      10A     -1.427251    11A     -1.392780    12A     -1.305298
      13A     -1.240095    14A     -1.109085    15A     -0.968360
      16A     -0.915750    17A     -0.894438    18A     -0.771390
      19A     -0.765258    20A     -0.707984    21A     -0.674784
      22A     -0.665280    23A     -0.640244    24A     -0.617743
      25A     -0.590060    26A     -0.562511    27A     -0.558285
      28A     -0.552195    29A     -0.512147    30A     -0.479206
      31A     -0.449280    32A     -0.434930    33A     -0.358616

  @DF-RHF Final Energy:  -451.67246758652811

   => Energetics <=

    Nuclear Repulsion Energy =            438.4079811871835659
    One-Electron Energy =               -1485.0009022417980304
    Two-Electron Energy =                 594.9204534680862935
    Total Energy =                       -451.6724675865281142
  Basis Set: (AUG-CC-PVTZ AUX)
    Blend: AUG-CC-PVTZ-RI
    Molecular point group: c1

    Geometry (in Angstrom), charge = 0, multiplicity = 1:

       Center              X                  Y                   Z               Mass
    ------------   -----------------  -----------------  -----------------  -----------------
         N           -1.071676727485    -1.273793131284     0.000005453825    14.003074004430
         C            0.285736272515    -1.524387131284    -0.000029546175    12.000000000000
         C            1.181922372515    -0.538940131284    -0.000012046175    12.000000000000
         C            0.735112272515     0.853531868716    -0.000139546175    12.000000000000
         N           -0.661040727485     0.989796868716    -0.000013546175    14.003074004430
         C           -1.627227727485    -0.004730131284     0.000148453825    12.000000000000
         C            2.684887272515    -0.761303131284     0.000031453825    12.000000000000
         O            1.462845272515     1.845338868716     0.000043453825    15.994914619570
         O           -2.833588727485     0.206871868716    -0.000034546175    15.994914619570
         H           -1.742297727485    -2.033103131284    -0.000048546175     1.007825032230
         H           -1.015509727485     1.943094868716    -0.000027546175     1.007825032230
         H            0.562053272515    -2.574992131284    -0.000057546175     1.007825032230
         H            3.144915272515    -0.301576131284    -0.879085546175     1.007825032230
         H            3.144890272515    -0.301445131284     0.879092453825     1.007825032230
         H            2.914238272515    -1.830255131284     0.000112453825     1.007825032230

  Basis Set: AUG-CC-PVTZ
    Blend: AUG-CC-PVTZ
  Basis Set: (AUG-CC-PVTZ AUX)
    Blend: AUG-CC-PVTZ-JKFIT
	 Reference Energy          =    -451.6724675865281142 [Eh]
	 Singles Energy            =      -0.0000000000000000 [Eh]
	 Same-Spin Energy          =      -0.4586208397932351 [Eh]
	 Opposite-Spin Energy      =      -1.3842615348237077 [Eh]
	 Correlation Energy        =      -1.8428823746169427 [Eh]
	 Total Energy              =    -453.5153499611450343 [Eh]

	 ================> DF-SCS-MP2 Energies <==================
	-----------------------------------------------------------
	 SCS Same-Spin Scale       =       0.3333333333333333 [-]
	 SCS Opposite-Spin Scale   =       1.2000000000000000 [-]
	 SCS Same-Spin Energy      =      -0.1528736132644117 [Eh]
	 SCS Opposite-Spin Energy  =      -1.6611138417884492 [Eh]
	 SCS Correlation Energy    =      -1.8139874550528610 [Eh]
	 SCS Total Energy          =    -453.4864550415809958 [Eh]
	-----------------------------------------------------------

  Dipole Moment: [D]
     X:     1.0448      Y:    -4.1633      Z:    -0.0001     Total:     4.2924

*** Psi4 exiting successfully. Buy a developer a beer!
