                               Psi4 1.4a3.dev225

  ==> Input File <==

--------------------------------------------------------------------------
#psi4
#
memory 32 gb

molecule  {
0 1
  N       -1.1263310    -1.2364150    -0.0000030
  C        0.2309450    -1.4868440     0.0000000
  C        1.1514300    -0.4932890    -0.0000070
  C        0.6802680     0.8910870    -0.0000240
  N       -0.7160800     1.0272360    -0.0000150
  C       -1.6820330     0.0328590    -0.0000240
  C        2.6301110    -0.7238270     0.0000080
  O        1.3780085     1.8428828     0.0000153
  O       -2.8884930     0.2440480     0.0000250
  H       -1.7968290    -1.9958110     0.0000150
  H       -1.0704590     1.9805630     0.0000060
  H        0.5076420    -2.5373850     0.0000160
  H        3.0901790    -0.2641310    -0.8791000
  H        3.0901670    -0.2640930     0.8791020
  H        2.8592340    -1.7928420     0.0000320
units angstrom
no_reorient  #important for SAPT in psi4, default
symmetry c1  #important for SAPT in psi4, default
}

set PROPERTIES_ORIGIN ["COM"]
properties('MP2/aug-cc-pvtz', properties = ['dipole'])
--------------------------------------------------------------------------

    Molecular point group: c1
  Charge       = 0
  Multiplicity = 1
  Basis Set: AUG-CC-PVTZ
    Blend: AUG-CC-PVTZ
  Basis Set: (AUG-CC-PVTZ AUX)
    Blend: AUG-CC-PVTZ-JKFIT

    Orbital Energies [Eh]
    ---------------------

    Doubly Occupied:

       1A    -20.544421     2A    -20.541425     3A    -15.636814
       4A    -15.622306     5A    -11.414706     6A    -11.372216
       7A    -11.328177     8A    -11.258677     9A    -11.238971
      10A     -1.436606    11A     -1.412689    12A     -1.302865
      13A     -1.237894    14A     -1.105369    15A     -0.968322
      16A     -0.911601    17A     -0.889658    18A     -0.768131
      19A     -0.766780    20A     -0.704333    21A     -0.679161
      22A     -0.664971    23A     -0.640241    24A     -0.622136
      25A     -0.594003    26A     -0.569311    27A     -0.567039
      28A     -0.553005    29A     -0.509073    30A     -0.478132
      31A     -0.448415    32A     -0.436592    33A     -0.352204

  @DF-RHF Final Energy:  -451.67520898631881

   => Energetics <=

    Nuclear Repulsion Energy =            439.9807785920913261
    One-Electron Energy =               -1488.1594843633583878
    Two-Electron Energy =                 596.5034967849481973
    Total Energy =                       -451.6752089863188075
  Basis Set: (AUG-CC-PVTZ AUX)
    Blend: AUG-CC-PVTZ-RI
    Molecular point group: c1

    Geometry (in Angstrom), charge = 0, multiplicity = 1:

       Center              X                  Y                   Z               Mass
    ------------   -----------------  -----------------  -----------------  -----------------
         N           -1.070011842420    -1.269571379171    -0.000002207376    14.003074004430
         C            0.287264157580    -1.520000379171     0.000000792624    12.000000000000
         C            1.207749157580    -0.526445379171    -0.000006207376    12.000000000000
         C            0.736587157580     0.857930620829    -0.000023207376    12.000000000000
         N           -0.659760842420     0.994079620829    -0.000014207376    14.003074004430
         C           -1.625713842420    -0.000297379171    -0.000023207376    12.000000000000
         C            2.686430157580    -0.756983379171     0.000008792624    12.000000000000
         O            1.434327657580     1.809726420829     0.000016092624    15.994914619570
         O           -2.832173842420     0.210891620829     0.000025792624    15.994914619570
         H           -1.740509842420    -2.028967379171     0.000015792624     1.007825032230
         H           -1.014139842420     1.947406620829     0.000006792624     1.007825032230
         H            0.563961157580    -2.570541379171     0.000016792624     1.007825032230
         H            3.146498157580    -0.297287379171    -0.879099207376     1.007825032230
         H            3.146486157580    -0.297249379171     0.879102792624     1.007825032230
         H            2.915553157580    -1.825998379171     0.000032792624     1.007825032230

  Basis Set: AUG-CC-PVTZ
    Blend: AUG-CC-PVTZ
  Basis Set: (AUG-CC-PVTZ AUX)
    Blend: AUG-CC-PVTZ-JKFIT
	 Reference Energy          =    -451.6752089863188075 [Eh]
	 Singles Energy            =      -0.0000000000000000 [Eh]
	 Same-Spin Energy          =      -0.4575501191437493 [Eh]
	 Opposite-Spin Energy      =      -1.3815621453167590 [Eh]
	 Correlation Energy        =      -1.8391122644605082 [Eh]
	 Total Energy              =    -453.5143212507792896 [Eh]

	 ================> DF-SCS-MP2 Energies <==================
	-----------------------------------------------------------
	 SCS Same-Spin Scale       =       0.3333333333333333 [-]
	 SCS Opposite-Spin Scale   =       1.2000000000000000 [-]
	 SCS Same-Spin Energy      =      -0.1525167063812498 [Eh]
	 SCS Opposite-Spin Energy  =      -1.6578745743801109 [Eh]
	 SCS Correlation Energy    =      -1.8103912807613607 [Eh]
	 SCS Total Energy          =    -453.4856002670801445 [Eh]
	-----------------------------------------------------------

  Dipole Moment: [D]
     X:     1.2547      Y:    -3.9365      Z:    -0.0001     Total:     4.1316

*** Psi4 exiting successfully. Buy a developer a beer!
