                               Psi4 1.3.2 release

  ==> Input File <==

--------------------------------------------------------------------------
#psi4
#
memory 32 gb

molecule  {
0 1
  N       -1.1265450    -1.2362860     0.0000060
  C        0.1320656    -1.3852277    -0.0000434
  C        1.1512880    -0.4934230    -0.0000150
  C        0.6802440     0.8910390    -0.0001390
  N       -0.7159090     1.0273040    -0.0000130
  C       -1.6820960     0.0327770     0.0001490
  C        2.6300190    -0.7237960     0.0000320
  O        1.4079770     1.8828460     0.0000440
  O       -2.8884570     0.2443790    -0.0000340
  H       -1.7971660    -1.9955960    -0.0000480
  H       -1.0703780     1.9806020    -0.0000270
  H        0.5071850    -2.5374850    -0.0000570
  H        3.0900470    -0.2640690    -0.8790850
  H        3.0900220    -0.2639380     0.8790930
  H        2.8593700    -1.7927480     0.0001130
units angstrom
no_reorient  #important for SAPT in psi4, default
symmetry c1  #important for SAPT in psi4, default
}

set PROPERTIES_ORIGIN ["COM"]
properties('MP2/aug-cc-pvtz', properties = ['dipole'])
--------------------------------------------------------------------------

    Molecular point group: c1
  Charge       = 0
  Multiplicity = 1
  Basis Set: AUG-CC-PVTZ
    Blend: AUG-CC-PVTZ
  Basis Set: (AUG-CC-PVTZ AUX)
    Blend: AUG-CC-PVTZ-JKFIT

    Orbital Energies [Eh]
    ---------------------

    Doubly Occupied:

       1A    -20.551465     2A    -20.534300     3A    -15.652495
       4A    -15.630077     5A    -11.423451     6A    -11.372244
       7A    -11.334756     8A    -11.253195     9A    -11.238336
      10A     -1.439489    11A     -1.387082    12A     -1.340379
      13A     -1.249037    14A     -1.103049    15A     -0.973692
      16A     -0.919262    17A     -0.898909    18A     -0.800813
      19A     -0.765420    20A     -0.701923    21A     -0.679934
      22A     -0.670529    23A     -0.635006    24A     -0.589801
      25A     -0.589501    26A     -0.574767    27A     -0.563287
      28A     -0.544997    29A     -0.526826    30A     -0.478731
      31A     -0.440124    32A     -0.435057    33A     -0.346494

  @DF-RHF Final Energy:  -451.64790355158942

   => Energetics <=

    Nuclear Repulsion Energy =            440.6970031195559727
    One-Electron Energy =               -1489.4009585263456756
    Two-Electron Energy =                 597.0560518552001668
    Total Energy =                       -451.6479035515894793
  Basis Set: (AUG-CC-PVTZ AUX)
    Blend: AUG-CC-PVTZ-RI
    Molecular point group: c1

    Geometry (in Angstrom), charge = 0, multiplicity = 1:

       Center              X                  Y                   Z               Mass
    ------------   -----------------  -----------------  -----------------  -----------------
         N           -1.064577384283    -1.284233602849     0.000007158006    14.003074004430
         C            0.194033215717    -1.433175302849    -0.000042241994    12.000000000000
         C            1.213255615717    -0.541370602849    -0.000013841994    12.000000000000
         C            0.742211615717     0.843091397151    -0.000137841994    12.000000000000
         N           -0.653941384283     0.979356397151    -0.000011841994    14.003074004430
         C           -1.620128384283    -0.015170602849     0.000150158006    12.000000000000
         C            2.691986615717    -0.771743602849     0.000033158006    12.000000000000
         O            1.469944615717     1.834898397151     0.000045158006    15.994914619570
         O           -2.826489384283     0.196431397151    -0.000032841994    15.994914619570
         H           -1.735198384283    -2.043543602849    -0.000046841994     1.007825032230
         H           -1.008410384283     1.932654397151    -0.000025841994     1.007825032230
         H            0.569152615717    -2.585432602849    -0.000055841994     1.007825032230
         H            3.152014615717    -0.312016602849    -0.879083841994     1.007825032230
         H            3.151989615717    -0.311885602849     0.879094158006     1.007825032230
         H            2.921337615717    -1.840695602849     0.000114158006     1.007825032230

  Basis Set: AUG-CC-PVTZ
    Blend: AUG-CC-PVTZ
  Basis Set: (AUG-CC-PVTZ AUX)
    Blend: AUG-CC-PVTZ-JKFIT
	 Reference Energy          =    -451.6479035515894225 [Eh]
	 Singles Energy            =      -0.0000000000000000 [Eh]
	 Same-Spin Energy          =      -0.4602970380925445 [Eh]
	 Opposite-Spin Energy      =      -1.3852110807974540 [Eh]
	 Correlation Energy        =      -1.8455081188899984 [Eh]
	 Total Energy              =    -453.4934116704794178 [Eh]

	 ================> DF-SCS-MP2 Energies <==================
	-----------------------------------------------------------
	 SCS Same-Spin Scale       =       0.3333333333333333 [-]
	 SCS Opposite-Spin Scale   =       1.2000000000000000 [-]
	 SCS Same-Spin Energy      =      -0.1534323460308482 [Eh]
	 SCS Opposite-Spin Energy  =      -1.6622532969569448 [Eh]
	 SCS Correlation Energy    =      -1.8156856429877930 [Eh]
	 SCS Total Energy          =    -453.4635891945771959 [Eh]
	-----------------------------------------------------------

  Dipole Moment: [D]
     X:     0.4883      Y:    -4.2442      Z:    -0.0000     Total:     4.2722

*** Psi4 exiting successfully. Buy a developer a beer!
