                               Psi4 1.3.2 release

  ==> Input File <==

--------------------------------------------------------------------------
#psi4
#
memory 32 gb

molecule  {
0 1
  N       -1.1265450    -1.2362860     0.0000060
  C        0.2308680    -1.4868800    -0.0000290
  C        1.1026840    -0.5090188    -0.0000081
  C        0.6802440     0.8910390    -0.0001390
  N       -0.7159090     1.0273040    -0.0000130
  C       -1.6820960     0.0327770     0.0001490
  C        2.6300190    -0.7237960     0.0000320
  O        1.4079770     1.8828460     0.0000440
  O       -2.8884570     0.2443790    -0.0000340
  H       -1.7971660    -1.9955960    -0.0000480
  H       -1.0703780     1.9806020    -0.0000270
  H        0.5071850    -2.5374850    -0.0000570
  H        3.0900470    -0.2640690    -0.8790850
  H        3.0900220    -0.2639380     0.8790930
  H        2.8593700    -1.7927480     0.0001130
units angstrom
no_reorient  #important for SAPT in psi4, default
symmetry c1  #important for SAPT in psi4, default
}

set PROPERTIES_ORIGIN ["COM"]
properties('MP2/aug-cc-pvtz', properties = ['dipole'])
--------------------------------------------------------------------------

    Molecular point group: c1
  Charge       = 0
  Multiplicity = 1
  Basis Set: AUG-CC-PVTZ
    Blend: AUG-CC-PVTZ
  Basis Set: (AUG-CC-PVTZ AUX)
    Blend: AUG-CC-PVTZ-JKFIT

    Orbital Energies [Eh]
    ---------------------

    Doubly Occupied:

       1A    -20.546624     2A    -20.543623     3A    -15.637395
       4A    -15.627719     5A    -11.417462     6A    -11.383386
       7A    -11.325397     8A    -11.259477     9A    -11.241957
      10A     -1.427096    11A     -1.393428    12A     -1.305656
      13A     -1.240021    14A     -1.110445    15A     -0.966528
      16A     -0.916179    17A     -0.895367    18A     -0.772402
      19A     -0.764519    20A     -0.708686    21A     -0.675090
      22A     -0.665462    23A     -0.640248    24A     -0.619152
      25A     -0.588726    26A     -0.558986    27A     -0.558481
      28A     -0.549654    29A     -0.513178    30A     -0.478810
      31A     -0.449927    32A     -0.435035    33A     -0.362600

  @DF-RHF Final Energy:  -451.67043990663348

   => Energetics <=

    Nuclear Repulsion Energy =            438.6370116775049155
    One-Electron Energy =               -1485.4574732338983267
    Two-Electron Energy =                 595.1500216497599922
    Total Energy =                       -451.6704399066334190
  Basis Set: (AUG-CC-PVTZ AUX)
    Blend: AUG-CC-PVTZ-RI
    Molecular point group: c1

    Geometry (in Angstrom), charge = 0, multiplicity = 1:

       Center              X                  Y                   Z               Mass
    ------------   -----------------  -----------------  -----------------  -----------------
         N           -1.069356556048    -1.273070920194     0.000005130125    14.003074004430
         C            0.288056443952    -1.523664920194    -0.000029869875    12.000000000000
         C            1.159872443952    -0.545803720194    -0.000008969875    12.000000000000
         C            0.737432443952     0.854254079806    -0.000139869875    12.000000000000
         N           -0.658720556048     0.990519079806    -0.000013869875    14.003074004430
         C           -1.624907556048    -0.004007920194     0.000148130125    12.000000000000
         C            2.687207443952    -0.760580920194     0.000031130125    12.000000000000
         O            1.465165443952     1.846061079806     0.000043130125    15.994914619570
         O           -2.831268556048     0.207594079806    -0.000034869875    15.994914619570
         H           -1.739977556048    -2.032380920194    -0.000048869875     1.007825032230
         H           -1.013189556048     1.943817079806    -0.000027869875     1.007825032230
         H            0.564373443952    -2.574269920194    -0.000057869875     1.007825032230
         H            3.147235443952    -0.300853920194    -0.879085869875     1.007825032230
         H            3.147210443952    -0.300722920194     0.879092130125     1.007825032230
         H            2.916558443952    -1.829532920194     0.000112130125     1.007825032230

  Basis Set: AUG-CC-PVTZ
    Blend: AUG-CC-PVTZ
  Basis Set: (AUG-CC-PVTZ AUX)
    Blend: AUG-CC-PVTZ-JKFIT
	 Reference Energy          =    -451.6704399066334759 [Eh]
	 Singles Energy            =      -0.0000000000000000 [Eh]
	 Same-Spin Energy          =      -0.4583480341843442 [Eh]
	 Opposite-Spin Energy      =      -1.3838796143553609 [Eh]
	 Correlation Energy        =      -1.8422276485397051 [Eh]
	 Total Energy              =    -453.5126675551732092 [Eh]

	 ================> DF-SCS-MP2 Energies <==================
	-----------------------------------------------------------
	 SCS Same-Spin Scale       =       0.3333333333333333 [-]
	 SCS Opposite-Spin Scale   =       1.2000000000000000 [-]
	 SCS Same-Spin Energy      =      -0.1527826780614480 [Eh]
	 SCS Opposite-Spin Energy  =      -1.6606555372264331 [Eh]
	 SCS Correlation Energy    =      -1.8134382152878812 [Eh]
	 SCS Total Energy          =    -453.4838781219213502 [Eh]
	-----------------------------------------------------------

  Dipole Moment: [D]
     X:     1.0571      Y:    -4.1374      Z:    -0.0001     Total:     4.2703

*** Psi4 exiting successfully. Buy a developer a beer!
