                               Psi4 1.3.2 release

  ==> Input File <==

--------------------------------------------------------------------------
#psi4
#
memory 32 gb

molecule  {
0 1
  N       -1.1453032    -1.3795471     0.0000017
  C        0.2308680    -1.4868800    -0.0000290
  C        1.1512880    -0.4934230    -0.0000150
  C        0.6802440     0.8910390    -0.0001390
  N       -0.7159090     1.0273040    -0.0000130
  C       -1.6820960     0.0327770     0.0001490
  C        2.6300190    -0.7237960     0.0000320
  O        1.4079770     1.8828460     0.0000440
  O       -2.8884570     0.2443790    -0.0000340
  H       -1.7971660    -1.9955960    -0.0000480
  H       -1.0703780     1.9806020    -0.0000270
  H        0.5071850    -2.5374850    -0.0000570
  H        3.0900470    -0.2640690    -0.8790850
  H        3.0900220    -0.2639380     0.8790930
  H        2.8593700    -1.7927480     0.0001130
units angstrom
no_reorient  #important for SAPT in psi4, default
symmetry c1  #important for SAPT in psi4, default
}

set PROPERTIES_ORIGIN ["COM"]
properties('MP2/aug-cc-pvtz', properties = ['dipole'])
--------------------------------------------------------------------------

    Molecular point group: c1
  Charge       = 0
  Multiplicity = 1
  Basis Set: AUG-CC-PVTZ
    Blend: AUG-CC-PVTZ
  Basis Set: (AUG-CC-PVTZ AUX)
    Blend: AUG-CC-PVTZ-JKFIT

    Orbital Energies [Eh]
    ---------------------

    Doubly Occupied:

       1A    -20.557753     2A    -20.545290     3A    -15.636643
       4A    -15.632405     5A    -11.431952     6A    -11.382377
       7A    -11.332502     8A    -11.259996     9A    -11.238227
      10A     -1.426569    11A     -1.394623    12A     -1.297101
      13A     -1.248855    14A     -1.105638    15A     -0.963194
      16A     -0.916137    17A     -0.893862    18A     -0.793352
      19A     -0.753759    20A     -0.711006    21A     -0.686307
      22A     -0.656905    23A     -0.637258    24A     -0.614166
      25A     -0.588921    26A     -0.569504    27A     -0.556751
      28A     -0.551508    29A     -0.518437    30A     -0.476878
      31A     -0.451343    32A     -0.438967    33A     -0.352245

  @DF-RHF Final Energy:  -451.64254508928792

   => Energetics <=

    Nuclear Repulsion Energy =            435.3598940514916649
    One-Electron Energy =               -1478.7640145845443840
    Two-Electron Energy =                 591.7615754437648548
    Total Energy =                       -451.6425450892878644
  Basis Set: (AUG-CC-PVTZ AUX)
    Blend: AUG-CC-PVTZ-RI
    Molecular point group: c1

    Geometry (in Angstrom), charge = 0, multiplicity = 1:

       Center              X                  Y                   Z               Mass
    ------------   -----------------  -----------------  -----------------  -----------------
         N           -1.090658139828    -1.401900855969     0.000001964764    14.003074004430
         C            0.285513060172    -1.509233755969    -0.000028735236    12.000000000000
         C            1.205933060172    -0.515776755969    -0.000014735236    12.000000000000
         C            0.734889060172     0.868685244031    -0.000138735236    12.000000000000
         N           -0.661263939828     1.004950244031    -0.000012735236    14.003074004430
         C           -1.627450939828     0.010423244031     0.000149264764    12.000000000000
         C            2.684664060172    -0.746149755969     0.000032264764    12.000000000000
         O            1.462622060172     1.860492244031     0.000044264764    15.994914619570
         O           -2.833811939828     0.222025244031    -0.000033735236    15.994914619570
         H           -1.742520939828    -2.017949755969    -0.000047735236     1.007825032230
         H           -1.015732939828     1.958248244031    -0.000026735236     1.007825032230
         H            0.561830060172    -2.559838755969    -0.000056735236     1.007825032230
         H            3.144692060172    -0.286422755969    -0.879084735236     1.007825032230
         H            3.144667060172    -0.286291755969     0.879093264764     1.007825032230
         H            2.914015060172    -1.815101755969     0.000113264764     1.007825032230

  Basis Set: AUG-CC-PVTZ
    Blend: AUG-CC-PVTZ
  Basis Set: (AUG-CC-PVTZ AUX)
    Blend: AUG-CC-PVTZ-JKFIT
	 Reference Energy          =    -451.6425450892879212 [Eh]
	 Singles Energy            =      -0.0000000000000000 [Eh]
	 Same-Spin Energy          =      -0.4585252752428665 [Eh]
	 Opposite-Spin Energy      =      -1.3861061467201135 [Eh]
	 Correlation Energy        =      -1.8446314219629798 [Eh]
	 Total Energy              =    -453.4871765112508797 [Eh]

	 ================> DF-SCS-MP2 Energies <==================
	-----------------------------------------------------------
	 SCS Same-Spin Scale       =       0.3333333333333333 [-]
	 SCS Opposite-Spin Scale   =       1.2000000000000000 [-]
	 SCS Same-Spin Energy      =      -0.1528417584142888 [Eh]
	 SCS Opposite-Spin Energy  =      -1.6633273760641361 [Eh]
	 SCS Correlation Energy    =      -1.8161691344784248 [Eh]
	 SCS Total Energy          =    -453.4587142237663215 [Eh]
	-----------------------------------------------------------

  Dipole Moment: [D]
     X:     0.7058      Y:    -3.6904      Z:    -0.0001     Total:     3.7572

*** Psi4 exiting successfully. Buy a developer a beer!
