                               Psi4 1.4a3.dev225

  ==> Input File <==

--------------------------------------------------------------------------
#psi4
#
memory 32 gb

molecule  {
0 1
  N       -1.1263310    -1.2364150    -0.0000030
  C        0.2309450    -1.4868440     0.0000000
  C        1.1514300    -0.4932890    -0.0000070
  C        0.6802680     0.8910870    -0.0000240
  N       -0.7160800     1.0272360    -0.0000150
  C       -1.6820330     0.0328590    -0.0000240
  C        2.6498723    -0.7269079     0.0000082
  O        1.4075700     1.8832080     0.0000170
  O       -2.8884930     0.2440480     0.0000250
  H       -1.7968290    -1.9958110     0.0000150
  H       -1.0704590     1.9805630     0.0000060
  H        0.5076420    -2.5373850     0.0000160
  H        3.0901790    -0.2641310    -0.8791000
  H        3.0901670    -0.2640930     0.8791020
  H        2.8592340    -1.7928420     0.0000320
units angstrom
no_reorient  #important for SAPT in psi4, default
symmetry c1  #important for SAPT in psi4, default
}

set PROPERTIES_ORIGIN ["COM"]
properties('MP2/aug-cc-pvtz', properties = ['dipole'])
--------------------------------------------------------------------------

    Molecular point group: c1
  Charge       = 0
  Multiplicity = 1
  Basis Set: AUG-CC-PVTZ
    Blend: AUG-CC-PVTZ
  Basis Set: (AUG-CC-PVTZ AUX)
    Blend: AUG-CC-PVTZ-JKFIT

    Orbital Energies [Eh]
    ---------------------

    Doubly Occupied:

       1A    -20.544468     2A    -20.543026     3A    -15.640464
       4A    -15.628496     5A    -11.418182     6A    -11.381041
       7A    -11.331957     8A    -11.263425     9A    -11.239333
      10A     -1.427285    11A     -1.391926    12A     -1.304855
      13A     -1.240071    14A     -1.105654    15A     -0.969935
      16A     -0.915567    17A     -0.893508    18A     -0.770583
      19A     -0.764904    20A     -0.707244    21A     -0.674256
      22A     -0.664931    23A     -0.639770    24A     -0.616459
      25A     -0.592970    26A     -0.562286    27A     -0.558734
      28A     -0.556060    29A     -0.511880    30A     -0.479235
      31A     -0.448264    32A     -0.434752    33A     -0.354919

  @DF-RHF Final Energy:  -451.67242264919008

   => Energetics <=

    Nuclear Repulsion Energy =            437.8317534596524183
    One-Electron Energy =               -1483.8554761431764746
    Two-Electron Energy =                 594.3513000343339172
    Total Energy =                       -451.6724226491901391
  Basis Set: (AUG-CC-PVTZ AUX)
    Blend: AUG-CC-PVTZ-RI
    Molecular point group: c1

    Geometry (in Angstrom), charge = 0, multiplicity = 1:

       Center              X                  Y                   Z               Mass
    ------------   -----------------  -----------------  -----------------  -----------------
         N           -1.075644600108    -1.274395349411    -0.000002442148    14.003074004430
         C            0.281631399892    -1.524824349411     0.000000557852    12.000000000000
         C            1.202116399892    -0.531269349411    -0.000006442148    12.000000000000
         C            0.730954399892     0.853106650589    -0.000023442148    12.000000000000
         N           -0.665393600108     0.989255650589    -0.000014442148    14.003074004430
         C           -1.631346600108    -0.005121349411    -0.000023442148    12.000000000000
         C            2.700558699892    -0.764888249411     0.000008757852    12.000000000000
         O            1.458256399892     1.845227650589     0.000017557852    15.994914619570
         O           -2.837806600108     0.206067650589     0.000025557852    15.994914619570
         H           -1.746142600108    -2.033791349411     0.000015557852     1.007825032230
         H           -1.019772600108     1.942582650589     0.000006557852     1.007825032230
         H            0.558328399892    -2.575365349411     0.000016557852     1.007825032230
         H            3.140865399892    -0.302111349411    -0.879099442148     1.007825032230
         H            3.140853399892    -0.302073349411     0.879102557852     1.007825032230
         H            2.909920399892    -1.830822349411     0.000032557852     1.007825032230

  Basis Set: AUG-CC-PVTZ
    Blend: AUG-CC-PVTZ
  Basis Set: (AUG-CC-PVTZ AUX)
    Blend: AUG-CC-PVTZ-JKFIT
	 Reference Energy          =    -451.6724226491900822 [Eh]
	 Singles Energy            =      -0.0000000000000000 [Eh]
	 Same-Spin Energy          =      -0.4587877208275075 [Eh]
	 Opposite-Spin Energy      =      -1.3846019743625315 [Eh]
	 Correlation Energy        =      -1.8433896951900390 [Eh]
	 Total Energy              =    -453.5158123443800946 [Eh]

	 ================> DF-SCS-MP2 Energies <==================
	-----------------------------------------------------------
	 SCS Same-Spin Scale       =       0.3333333333333333 [-]
	 SCS Opposite-Spin Scale   =       1.2000000000000000 [-]
	 SCS Same-Spin Energy      =      -0.1529292402758358 [Eh]
	 SCS Opposite-Spin Energy  =      -1.6615223692350378 [Eh]
	 SCS Correlation Energy    =      -1.8144516095108736 [Eh]
	 SCS Total Energy          =    -453.4868742587009365 [Eh]
	-----------------------------------------------------------

  Dipole Moment: [D]
     X:     1.0427      Y:    -4.1913      Z:    -0.0001     Total:     4.3191

*** Psi4 exiting successfully. Buy a developer a beer!
