                               Psi4 1.3.2 release

  ==> Input File <==

--------------------------------------------------------------------------
#psi4
#
memory 32 gb

molecule  {
0 1
  N       -1.1265450    -1.2362860     0.0000060
  C        0.2308680    -1.4868800    -0.0000290
  C        1.1512880    -0.4934230    -0.0000150
  C        0.6802440     0.8910390    -0.0001390
  N       -0.7159090     1.0273040    -0.0000130
  C       -1.6820960     0.0327770     0.0001490
  C        2.6300190    -0.7237960     0.0000320
  O        1.5262928     2.0440954     0.0000738
  O       -2.8884570     0.2443790    -0.0000340
  H       -1.7971660    -1.9955960    -0.0000480
  H       -1.0703780     1.9806020    -0.0000270
  H        0.5071850    -2.5374850    -0.0000570
  H        3.0900470    -0.2640690    -0.8790850
  H        3.0900220    -0.2639380     0.8790930
  H        2.8593700    -1.7927480     0.0001130
units angstrom
no_reorient  #important for SAPT in psi4, default
symmetry c1  #important for SAPT in psi4, default
}

set PROPERTIES_ORIGIN ["COM"]
properties('MP2/aug-cc-pvtz', properties = ['dipole'])
--------------------------------------------------------------------------

    Molecular point group: c1
  Charge       = 0
  Multiplicity = 1
  Basis Set: AUG-CC-PVTZ
    Blend: AUG-CC-PVTZ
  Basis Set: (AUG-CC-PVTZ AUX)
    Blend: AUG-CC-PVTZ-JKFIT

    Orbital Energies [Eh]
    ---------------------

    Doubly Occupied:

       1A    -20.555974     2A    -20.534514     3A    -15.655457
       4A    -15.650723     5A    -11.430914     6A    -11.407124
       7A    -11.347160     8A    -11.276779     9A    -11.241942
      10A     -1.436483    11A     -1.331936    12A     -1.288989
      13A     -1.229428    14A     -1.118087    15A     -0.977189
      16A     -0.930939    17A     -0.907150    18A     -0.782611
      19A     -0.766300    20A     -0.720230    21A     -0.674556
      22A     -0.672111    23A     -0.643686    24A     -0.591183
      25A     -0.578688    26A     -0.567210    27A     -0.543930
      28A     -0.537563    29A     -0.515849    30A     -0.484177
      31A     -0.434753    32A     -0.419664    33A     -0.362186

  @DF-RHF Final Energy:  -451.61432710626860

   => Energetics <=

    Nuclear Repulsion Energy =            431.8251433888478346
    One-Electron Energy =               -1471.6479714128272462
    Two-Electron Energy =                 588.2085009177108077
    Total Energy =                       -451.6143271062685471
  Basis Set: (AUG-CC-PVTZ AUX)
    Blend: AUG-CC-PVTZ-RI
    Molecular point group: c1

    Geometry (in Angstrom), charge = 0, multiplicity = 1:

       Center              X                  Y                   Z               Mass
    ------------   -----------------  -----------------  -----------------  -----------------
         N           -1.088998269942    -1.295018363351     0.000002005408    14.003074004430
         C            0.268414730058    -1.545612363351    -0.000032994592    12.000000000000
         C            1.188834730058    -0.552155363351    -0.000018994592    12.000000000000
         C            0.717790730058     0.832306636649    -0.000142994592    12.000000000000
         N           -0.678362269942     0.968571636649    -0.000016994592    14.003074004430
         C           -1.644549269942    -0.025955363351     0.000145005408    12.000000000000
         C            2.667565730058    -0.782528363351     0.000028005408    12.000000000000
         O            1.563839530058     1.985363036649     0.000069805408    15.994914619570
         O           -2.850910269942     0.185646636649    -0.000037994592    15.994914619570
         H           -1.759619269942    -2.054328363351    -0.000051994592     1.007825032230
         H           -1.032831269942     1.921869636649    -0.000030994592     1.007825032230
         H            0.544731730058    -2.596217363351    -0.000060994592     1.007825032230
         H            3.127593730058    -0.322801363351    -0.879088994592     1.007825032230
         H            3.127568730058    -0.322670363351     0.879089005408     1.007825032230
         H            2.896916730058    -1.851480363351     0.000109005408     1.007825032230

  Basis Set: AUG-CC-PVTZ
    Blend: AUG-CC-PVTZ
  Basis Set: (AUG-CC-PVTZ AUX)
    Blend: AUG-CC-PVTZ-JKFIT
	 Reference Energy          =    -451.6143271062686040 [Eh]
	 Singles Energy            =      -0.0000000000000000 [Eh]
	 Same-Spin Energy          =      -0.4639029853281127 [Eh]
	 Opposite-Spin Energy      =      -1.3961737242551657 [Eh]
	 Correlation Energy        =      -1.8600767095832784 [Eh]
	 Total Energy              =    -453.4744038158518720 [Eh]

	 ================> DF-SCS-MP2 Energies <==================
	-----------------------------------------------------------
	 SCS Same-Spin Scale       =       0.3333333333333333 [-]
	 SCS Opposite-Spin Scale   =       1.2000000000000000 [-]
	 SCS Same-Spin Energy      =      -0.1546343284427042 [Eh]
	 SCS Opposite-Spin Energy  =      -1.6754084691061988 [Eh]
	 SCS Correlation Energy    =      -1.8300427975489031 [Eh]
	 SCS Total Energy          =    -453.4443699038175168 [Eh]
	-----------------------------------------------------------

  Dipole Moment: [D]
     X:     0.2770      Y:    -5.0878      Z:    -0.0000     Total:     5.0953

*** Psi4 exiting successfully. Buy a developer a beer!
