                               Psi4 1.3.2 release

  ==> Input File <==

--------------------------------------------------------------------------
#psi4
#
memory 32 gb

molecule  {
0 1
  N       -1.1265450    -1.2362860     0.0000060
  C        0.2308680    -1.4868800    -0.0000290
  C        1.1512880    -0.4934230    -0.0000150
  C        0.6802440     0.8910390    -0.0001390
  N       -0.7159090     1.0273040    -0.0000130
  C       -1.6820960     0.0327770     0.0001490
  C        2.6300190    -0.7237960     0.0000320
  O        1.4079770     1.8828460     0.0000440
  O       -2.8884570     0.2443790    -0.0000340
  H       -1.7971660    -1.9955960    -0.0000480
  H       -1.1400822     2.1680622    -0.0000298
  H        0.5071850    -2.5374850    -0.0000570
  H        3.0900470    -0.2640690    -0.8790850
  H        3.0900220    -0.2639380     0.8790930
  H        2.8593700    -1.7927480     0.0001130
units angstrom
no_reorient  #important for SAPT in psi4, default
symmetry c1  #important for SAPT in psi4, default
}

set PROPERTIES_ORIGIN ["COM"]
properties('MP2/aug-cc-pvtz', properties = ['dipole'])
--------------------------------------------------------------------------

    Molecular point group: c1
  Charge       = 0
  Multiplicity = 1
  Basis Set: AUG-CC-PVTZ
    Blend: AUG-CC-PVTZ
  Basis Set: (AUG-CC-PVTZ AUX)
    Blend: AUG-CC-PVTZ-JKFIT

    Orbital Energies [Eh]
    ---------------------

    Doubly Occupied:

       1A    -20.542015     2A    -20.540857     3A    -15.639983
       4A    -15.639631     5A    -11.416264     6A    -11.379423
       7A    -11.330788     8A    -11.262193     9A    -11.238829
      10A     -1.423182    11A     -1.389315    12A     -1.302784
      13A     -1.223810    14A     -1.106391    15A     -0.968861
      16A     -0.905318    17A     -0.885716    18A     -0.763458
      19A     -0.759379    20A     -0.685759    21A     -0.662584
      22A     -0.658893    23A     -0.637220    24A     -0.609118
      25A     -0.590349    26A     -0.564805    27A     -0.555780
      28A     -0.548610    29A     -0.509433    30A     -0.477648
      31A     -0.446229    32A     -0.430460    33A     -0.353366

  @DF-RHF Final Energy:  -451.64272125184596

   => Energetics <=

    Nuclear Repulsion Energy =            437.0556824756002356
    One-Electron Energy =               -1482.4999076834512834
    Two-Electron Energy =                 593.8015039560051491
    Total Energy =                       -451.6427212518459555
  Basis Set: (AUG-CC-PVTZ AUX)
    Blend: AUG-CC-PVTZ-RI
    Molecular point group: c1

    Geometry (in Angstrom), charge = 0, multiplicity = 1:

       Center              X                  Y                   Z               Mass
    ------------   -----------------  -----------------  -----------------  -----------------
         N           -1.073426584989    -1.276054639231     0.000005809433    14.003074004430
         C            0.283986415011    -1.526648639231    -0.000029190567    12.000000000000
         C            1.204406415011    -0.533191639231    -0.000015190567    12.000000000000
         C            0.733362415011     0.851270360769    -0.000139190567    12.000000000000
         N           -0.662790584989     0.987535360769    -0.000013190567    14.003074004430
         C           -1.628977584989    -0.006991639231     0.000148809433    12.000000000000
         C            2.683137415011    -0.763564639231     0.000031809433    12.000000000000
         O            1.461095415011     1.843077360769     0.000043809433    15.994914619570
         O           -2.835338584989     0.204610360769    -0.000034190567    15.994914619570
         H           -1.744047584989    -2.035364639231    -0.000048190567     1.007825032230
         H           -1.086963784989     2.128293560769    -0.000029990567     1.007825032230
         H            0.560303415011    -2.577253639231    -0.000057190567     1.007825032230
         H            3.143165415011    -0.303837639231    -0.879085190567     1.007825032230
         H            3.143140415011    -0.303706639231     0.879092809433     1.007825032230
         H            2.912488415011    -1.832516639231     0.000112809433     1.007825032230

  Basis Set: AUG-CC-PVTZ
    Blend: AUG-CC-PVTZ
  Basis Set: (AUG-CC-PVTZ AUX)
    Blend: AUG-CC-PVTZ-JKFIT
	 Reference Energy          =    -451.6427212518459555 [Eh]
	 Singles Energy            =      -0.0000000000000000 [Eh]
	 Same-Spin Energy          =      -0.4607832552092641 [Eh]
	 Opposite-Spin Energy      =      -1.3889287714237208 [Eh]
	 Correlation Energy        =      -1.8497120266329850 [Eh]
	 Total Energy              =    -453.4924332784789271 [Eh]

	 ================> DF-SCS-MP2 Energies <==================
	-----------------------------------------------------------
	 SCS Same-Spin Scale       =       0.3333333333333333 [-]
	 SCS Opposite-Spin Scale   =       1.2000000000000000 [-]
	 SCS Same-Spin Energy      =      -0.1535944184030880 [Eh]
	 SCS Opposite-Spin Energy  =      -1.6667145257084650 [Eh]
	 SCS Correlation Energy    =      -1.8203089441115530 [Eh]
	 SCS Total Energy          =    -453.4630301959575149 [Eh]
	-----------------------------------------------------------

  Dipole Moment: [D]
     X:     0.9532      Y:    -3.9459      Z:    -0.0001     Total:     4.0594

*** Psi4 exiting successfully. Buy a developer a beer!
