                               Psi4 1.4a3.dev225

  ==> Input File <==

--------------------------------------------------------------------------
#psi4
#
memory 32 gb

molecule  {
0 1
  N       -1.1263310    -1.2364150    -0.0000030
  C        0.2309450    -1.4868440     0.0000000
  C        1.1514300    -0.4932890    -0.0000070
  C        0.6802680     0.8910870    -0.0000240
  N       -0.7160800     1.0272360    -0.0000150
  C       -1.6820330     0.0328590    -0.0000240
  C        2.6103497    -0.7207461     0.0000078
  O        1.4075700     1.8832080     0.0000170
  O       -2.8884930     0.2440480     0.0000250
  H       -1.7968290    -1.9958110     0.0000150
  H       -1.0704590     1.9805630     0.0000060
  H        0.5076420    -2.5373850     0.0000160
  H        3.0901790    -0.2641310    -0.8791000
  H        3.0901670    -0.2640930     0.8791020
  H        2.8592340    -1.7928420     0.0000320
units angstrom
no_reorient  #important for SAPT in psi4, default
symmetry c1  #important for SAPT in psi4, default
}

set PROPERTIES_ORIGIN ["COM"]
properties('MP2/aug-cc-pvtz', properties = ['dipole'])
--------------------------------------------------------------------------

    Molecular point group: c1
  Charge       = 0
  Multiplicity = 1
  Basis Set: AUG-CC-PVTZ
    Blend: AUG-CC-PVTZ
  Basis Set: (AUG-CC-PVTZ AUX)
    Blend: AUG-CC-PVTZ-JKFIT

    Orbital Energies [Eh]
    ---------------------

    Doubly Occupied:

       1A    -20.544681     2A    -20.543487     3A    -15.640767
       4A    -15.628749     5A    -11.418407     6A    -11.381278
       7A    -11.332227     8A    -11.262209     9A    -11.239884
      10A     -1.427554    11A     -1.392353    12A     -1.305188
      13A     -1.240363    14A     -1.110660    15A     -0.970358
      16A     -0.915293    17A     -0.893422    18A     -0.771059
      19A     -0.766004    20A     -0.707576    21A     -0.674648
      22A     -0.665369    23A     -0.640636    24A     -0.616531
      25A     -0.590264    26A     -0.574939    27A     -0.557428
      28A     -0.547481    29A     -0.510548    30A     -0.479668
      31A     -0.448738    32A     -0.434937    33A     -0.353932

  @DF-RHF Final Energy:  -451.67172381103040

   => Energetics <=

    Nuclear Repulsion Energy =            438.5495947734134461
    One-Electron Energy =               -1485.2693641234652659
    Two-Electron Energy =                 595.0480455390214729
    Total Energy =                       -451.6717238110303470
  Basis Set: (AUG-CC-PVTZ AUX)
    Blend: AUG-CC-PVTZ-RI
    Molecular point group: c1

    Geometry (in Angstrom), charge = 0, multiplicity = 1:

       Center              X                  Y                   Z               Mass
    ------------   -----------------  -----------------  -----------------  -----------------
         N           -1.071881824920    -1.274981987642    -0.000002404065    14.003074004430
         C            0.285394175080    -1.525410987642     0.000000595935    12.000000000000
         C            1.205879175080    -0.531855987642    -0.000006404065    12.000000000000
         C            0.734717175080     0.852520012358    -0.000023404065    12.000000000000
         N           -0.661630824920     0.988669012358    -0.000014404065    14.003074004430
         C           -1.627583824920    -0.005707987642    -0.000023404065    12.000000000000
         C            2.664798875080    -0.759313087642     0.000008395935    12.000000000000
         O            1.462019175080     1.844641012358     0.000017595935    15.994914619570
         O           -2.834043824920     0.205481012358     0.000025595935    15.994914619570
         H           -1.742379824920    -2.034377987642     0.000015595935     1.007825032230
         H           -1.016009824920     1.941996012358     0.000006595935     1.007825032230
         H            0.562091175080    -2.575951987642     0.000016595935     1.007825032230
         H            3.144628175080    -0.302697987642    -0.879099404065     1.007825032230
         H            3.144616175080    -0.302659987642     0.879102595935     1.007825032230
         H            2.913683175080    -1.831408987642     0.000032595935     1.007825032230

  Basis Set: AUG-CC-PVTZ
    Blend: AUG-CC-PVTZ
  Basis Set: (AUG-CC-PVTZ AUX)
    Blend: AUG-CC-PVTZ-JKFIT
	 Reference Energy          =    -451.6717238110304038 [Eh]
	 Singles Energy            =      -0.0000000000000000 [Eh]
	 Same-Spin Energy          =      -0.4591815867553503 [Eh]
	 Opposite-Spin Energy      =      -1.3849805487452356 [Eh]
	 Correlation Energy        =      -1.8441621355005859 [Eh]
	 Total Energy              =    -453.5158859465310002 [Eh]

	 ================> DF-SCS-MP2 Energies <==================
	-----------------------------------------------------------
	 SCS Same-Spin Scale       =       0.3333333333333333 [-]
	 SCS Opposite-Spin Scale   =       1.2000000000000000 [-]
	 SCS Same-Spin Energy      =      -0.1530605289184501 [Eh]
	 SCS Opposite-Spin Energy  =      -1.6619766584942826 [Eh]
	 SCS Correlation Energy    =      -1.8150371874127327 [Eh]
	 SCS Total Energy          =    -453.4867609984431169 [Eh]
	-----------------------------------------------------------

  Dipole Moment: [D]
     X:     1.0333      Y:    -4.1821      Z:    -0.0001     Total:     4.3079

*** Psi4 exiting successfully. Buy a developer a beer!
