                               Psi4 1.3.2 release

  ==> Input File <==

--------------------------------------------------------------------------
#psi4
#
memory 32 gb

molecule  {
0 1
  N       -1.1265450    -1.2362860     0.0000060
  C        0.2308680    -1.4868800    -0.0000290
  C        1.1512880    -0.4934230    -0.0000150
  C        0.6802440     0.8910390    -0.0001390
  N       -0.7159090     1.0273040    -0.0000130
  C       -1.6820960     0.0327770     0.0001490
  C        2.6300190    -0.7237960     0.0000320
  O        1.4079770     1.8828460     0.0000440
  O       -2.7899607     0.2271022    -0.0000191
  H       -1.7971660    -1.9955960    -0.0000480
  H       -1.0703780     1.9806020    -0.0000270
  H        0.5071850    -2.5374850    -0.0000570
  H        3.0900470    -0.2640690    -0.8790850
  H        3.0900220    -0.2639380     0.8790930
  H        2.8593700    -1.7927480     0.0001130
units angstrom
no_reorient  #important for SAPT in psi4, default
symmetry c1  #important for SAPT in psi4, default
}

set PROPERTIES_ORIGIN ["COM"]
properties('MP2/aug-cc-pvtz', properties = ['dipole'])
--------------------------------------------------------------------------

    Molecular point group: c1
  Charge       = 0
  Multiplicity = 1
  Basis Set: AUG-CC-PVTZ
    Blend: AUG-CC-PVTZ
  Basis Set: (AUG-CC-PVTZ AUX)
    Blend: AUG-CC-PVTZ-JKFIT

    Orbital Energies [Eh]
    ---------------------

    Doubly Occupied:

       1A    -20.547764     2A    -20.536617     3A    -15.628211
       4A    -15.616003     5A    -11.399368     6A    -11.373862
       7A    -11.325772     8A    -11.255211     9A    -11.234713
      10A     -1.486899    11A     -1.391064    12A     -1.307189
      13A     -1.233545    14A     -1.101448    15A     -0.963361
      16A     -0.911277    17A     -0.884749    18A     -0.768159
      19A     -0.762582    20A     -0.704013    21A     -0.682532
      22A     -0.677212    23A     -0.653077    24A     -0.616121
      25A     -0.594556    26A     -0.563590    27A     -0.554429
      28A     -0.547302    29A     -0.520377    30A     -0.488774
      31A     -0.443595    32A     -0.433724    33A     -0.348655

  @DF-RHF Final Energy:  -451.66777624964408

   => Energetics <=

    Nuclear Repulsion Energy =            441.9236711596160490
    One-Electron Energy =               -1492.0713866067624167
    Two-Electron Energy =                 598.4799391975021763
    Total Energy =                       -451.6677762496441346
  Basis Set: (AUG-CC-PVTZ AUX)
    Blend: AUG-CC-PVTZ-RI
    Molecular point group: c1

    Geometry (in Angstrom), charge = 0, multiplicity = 1:

       Center              X                  Y                   Z               Mass
    ------------   -----------------  -----------------  -----------------  -----------------
         N           -1.086483164837    -1.272363293493     0.000003896226    14.003074004430
         C            0.270929835163    -1.522957293493    -0.000031103774    12.000000000000
         C            1.191349835163    -0.529500293493    -0.000017103774    12.000000000000
         C            0.720305835163     0.854961706507    -0.000141103774    12.000000000000
         N           -0.675847164837     0.991226706507    -0.000015103774    14.003074004430
         C           -1.642034164837    -0.003300293493     0.000146896226    12.000000000000
         C            2.670080835163    -0.759873293493     0.000029896226    12.000000000000
         O            1.448038835163     1.846768706507     0.000041896226    15.994914619570
         O           -2.749898864837     0.191024906507    -0.000021203774    15.994914619570
         H           -1.757104164837    -2.031673293493    -0.000050103774     1.007825032230
         H           -1.030316164837     1.944524706507    -0.000029103774     1.007825032230
         H            0.547246835163    -2.573562293493    -0.000059103774     1.007825032230
         H            3.130108835163    -0.300146293493    -0.879087103774     1.007825032230
         H            3.130083835163    -0.300015293493     0.879090896226     1.007825032230
         H            2.899431835163    -1.828825293493     0.000110896226     1.007825032230

  Basis Set: AUG-CC-PVTZ
    Blend: AUG-CC-PVTZ
  Basis Set: (AUG-CC-PVTZ AUX)
    Blend: AUG-CC-PVTZ-JKFIT
	 Reference Energy          =    -451.6677762496440778 [Eh]
	 Singles Energy            =      -0.0000000000000000 [Eh]
	 Same-Spin Energy          =      -0.4563788577962669 [Eh]
	 Opposite-Spin Energy      =      -1.3786949756914264 [Eh]
	 Correlation Energy        =      -1.8350738334876933 [Eh]
	 Total Energy              =    -453.5028500831317615 [Eh]

	 ================> DF-SCS-MP2 Energies <==================
	-----------------------------------------------------------
	 SCS Same-Spin Scale       =       0.3333333333333333 [-]
	 SCS Opposite-Spin Scale   =       1.2000000000000000 [-]
	 SCS Same-Spin Energy      =      -0.1521262859320889 [Eh]
	 SCS Opposite-Spin Energy  =      -1.6544339708297116 [Eh]
	 SCS Correlation Energy    =      -1.8065602567618004 [Eh]
	 SCS Total Energy          =    -453.4743365064059049 [Eh]
	-----------------------------------------------------------

  Dipole Moment: [D]
     X:     0.2040      Y:    -4.0650      Z:    -0.0000     Total:     4.0701

*** Psi4 exiting successfully. Buy a developer a beer!
