                               Psi4 1.4a3.dev225

  ==> Input File <==

--------------------------------------------------------------------------
#psi4
#
memory 32 gb

molecule  {
0 1
  N       -1.1263310    -1.2364150    -0.0000030
  C        0.2309450    -1.4868440     0.0000000
  C        1.1514300    -0.4932890    -0.0000070
  C        0.6802680     0.8910870    -0.0000240
  N       -0.7160800     1.0272360    -0.0000150
  C       -1.6820330     0.0328590    -0.0000240
  C        2.6301110    -0.7238270     0.0000080
  O        1.4371315     1.9235332     0.0000187
  O       -2.8884930     0.2440480     0.0000250
  H       -1.7968290    -1.9958110     0.0000150
  H       -1.0704590     1.9805630     0.0000060
  H        0.5076420    -2.5373850     0.0000160
  H        3.0901790    -0.2641310    -0.8791000
  H        3.0901670    -0.2640930     0.8791020
  H        2.8592340    -1.7928420     0.0000320
units angstrom
no_reorient  #important for SAPT in psi4, default
symmetry c1  #important for SAPT in psi4, default
}

set PROPERTIES_ORIGIN ["COM"]
properties('MP2/aug-cc-pvtz', properties = ['dipole'])
--------------------------------------------------------------------------

    Molecular point group: c1
  Charge       = 0
  Multiplicity = 1
  Basis Set: AUG-CC-PVTZ
    Blend: AUG-CC-PVTZ
  Basis Set: (AUG-CC-PVTZ AUX)
    Blend: AUG-CC-PVTZ-JKFIT

    Orbital Energies [Eh]
    ---------------------

    Doubly Occupied:

       1A    -20.547623     2A    -20.541650     3A    -15.644406
       4A    -15.634642     5A    -11.421734     6A    -11.389305
       7A    -11.335981     8A    -11.266775     9A    -11.240144
      10A     -1.428696    11A     -1.365809    12A     -1.305839
      13A     -1.241561    14A     -1.110753    15A     -0.971909
      16A     -0.919388    17A     -0.897155    18A     -0.773885
      19A     -0.764757    20A     -0.710686    21A     -0.672385
      22A     -0.666368    23A     -0.640381    24A     -0.607948
      25A     -0.590701    26A     -0.568455    27A     -0.550649
      28A     -0.549926    29A     -0.513107    30A     -0.480704
      31A     -0.446980    32A     -0.432027    33A     -0.356582

  @DF-RHF Final Energy:  -451.66319985845598

   => Energetics <=

    Nuclear Repulsion Energy =            436.4835519376973139
    One-Electron Energy =               -1481.1156742582579682
    Two-Electron Energy =                 592.9689224621047288
    Total Energy =                       -451.6631998584559824
  Basis Set: (AUG-CC-PVTZ AUX)
    Blend: AUG-CC-PVTZ-RI
    Molecular point group: c1

    Geometry (in Angstrom), charge = 0, multiplicity = 1:

       Center              X                  Y                   Z               Mass
    ------------   -----------------  -----------------  -----------------  -----------------
         N           -1.077514582607    -1.279805957883    -0.000002638837    14.003074004430
         C            0.279761417393    -1.530234957883     0.000000361163    12.000000000000
         C            1.200246417393    -0.536679957883    -0.000006638837    12.000000000000
         C            0.729084417393     0.847696042117    -0.000023638837    12.000000000000
         N           -0.667263582607     0.983845042117    -0.000014638837    14.003074004430
         C           -1.633216582607    -0.010531957883    -0.000023638837    12.000000000000
         C            2.678927417393    -0.767217957883     0.000008361163    12.000000000000
         O            1.485947917393     1.880142242117     0.000019061163    15.994914619570
         O           -2.839676582607     0.200657042117     0.000025361163    15.994914619570
         H           -1.748012582607    -2.039201957883     0.000015361163     1.007825032230
         H           -1.021642582607     1.937172042117     0.000006361163     1.007825032230
         H            0.556458417393    -2.580775957883     0.000016361163     1.007825032230
         H            3.138995417393    -0.307521957883    -0.879099638837     1.007825032230
         H            3.138983417393    -0.307483957883     0.879102361163     1.007825032230
         H            2.908050417393    -1.836232957883     0.000032361163     1.007825032230

  Basis Set: AUG-CC-PVTZ
    Blend: AUG-CC-PVTZ
  Basis Set: (AUG-CC-PVTZ AUX)
    Blend: AUG-CC-PVTZ-JKFIT
	 Reference Energy          =    -451.6631998584559824 [Eh]
	 Singles Energy            =      -0.0000000000000000 [Eh]
	 Same-Spin Energy          =      -0.4603901230183365 [Eh]
	 Opposite-Spin Energy      =      -1.3879578244262021 [Eh]
	 Correlation Energy        =      -1.8483479474445386 [Eh]
	 Total Energy              =    -453.5115478059005341 [Eh]

	 ================> DF-SCS-MP2 Energies <==================
	-----------------------------------------------------------
	 SCS Same-Spin Scale       =       0.3333333333333333 [-]
	 SCS Opposite-Spin Scale   =       1.2000000000000000 [-]
	 SCS Same-Spin Energy      =      -0.1534633743394455 [Eh]
	 SCS Opposite-Spin Energy  =      -1.6655493893114424 [Eh]
	 SCS Correlation Energy    =      -1.8190127636508879 [Eh]
	 SCS Total Energy          =    -453.4822126221068856 [Eh]
	-----------------------------------------------------------

  Dipole Moment: [D]
     X:     0.8358      Y:    -4.4221      Z:    -0.0001     Total:     4.5004

*** Psi4 exiting successfully. Buy a developer a beer!
