                               Psi4 1.4a3.dev225

  ==> Input File <==

--------------------------------------------------------------------------
#psi4
#
memory 32 gb

molecule  {
0 1
  N       -1.1263310    -1.2364150    -0.0000030
  C        0.2309450    -1.4868440     0.0000000
  C        1.1514300    -0.4932890    -0.0000070
  C        0.6802680     0.8910870    -0.0000240
  N       -0.7160800     1.0272360    -0.0000150
  C       -1.6820330     0.0328590    -0.0000240
  C        2.6301110    -0.7238270     0.0000080
  O        1.4075700     1.8832080     0.0000170
  O       -2.8884930     0.2440480     0.0000250
  H       -1.8100663    -2.0108034     0.0000154
  H       -1.0704590     1.9805630     0.0000060
  H        0.5076420    -2.5373850     0.0000160
  H        3.0901790    -0.2641310    -0.8791000
  H        3.0901670    -0.2640930     0.8791020
  H        2.8592340    -1.7928420     0.0000320
units angstrom
no_reorient  #important for SAPT in psi4, default
symmetry c1  #important for SAPT in psi4, default
}

set PROPERTIES_ORIGIN ["COM"]
properties('MP2/aug-cc-pvtz', properties = ['dipole'])
--------------------------------------------------------------------------

    Molecular point group: c1
  Charge       = 0
  Multiplicity = 1
  Basis Set: AUG-CC-PVTZ
    Blend: AUG-CC-PVTZ
  Basis Set: (AUG-CC-PVTZ AUX)
    Blend: AUG-CC-PVTZ-JKFIT

    Orbital Energies [Eh]
    ---------------------

    Doubly Occupied:

       1A    -20.544358     2A    -20.543084     3A    -15.642186
       4A    -15.628536     5A    -11.418147     6A    -11.381003
       7A    -11.331989     8A    -11.262658     9A    -11.239437
      10A     -1.427013    11A     -1.391946    12A     -1.303857
      13A     -1.239225    14A     -1.107495    15A     -0.969808
      16A     -0.915239    17A     -0.891289    18A     -0.768991
      19A     -0.764238    20A     -0.706835    21A     -0.673097
      22A     -0.664912    23A     -0.639967    24A     -0.615820
      25A     -0.591376    26A     -0.568362    27A     -0.557890
      28A     -0.551685    29A     -0.510966    30A     -0.479300
      31A     -0.448348    32A     -0.434723    33A     -0.354174

  @DF-RHF Final Energy:  -451.67138209867494

   => Energetics <=

    Nuclear Repulsion Energy =            438.0636025560747271
    One-Electron Energy =               -1484.3340641079441866
    Two-Electron Energy =                 594.5990794531944630
    Total Energy =                       -451.6713820986749397
  Basis Set: (AUG-CC-PVTZ AUX)
    Blend: AUG-CC-PVTZ-RI
    Molecular point group: c1

    Geometry (in Angstrom), charge = 0, multiplicity = 1:

       Center              X                  Y                   Z               Mass
    ------------   -----------------  -----------------  -----------------  -----------------
         N           -1.073657368556    -1.274568790987    -0.000002426305    14.003074004430
         C            0.283618631444    -1.524997790987     0.000000573695    12.000000000000
         C            1.204103631444    -0.531442790987    -0.000006426305    12.000000000000
         C            0.732941631444     0.852933209013    -0.000023426305    12.000000000000
         N           -0.663406368556     0.989082209013    -0.000014426305    14.003074004430
         C           -1.629359368556    -0.005294790987    -0.000023426305    12.000000000000
         C            2.682784631444    -0.761980790987     0.000008573695    12.000000000000
         O            1.460243631444     1.845054209013     0.000017573695    15.994914619570
         O           -2.835819368556     0.205894209013     0.000025573695    15.994914619570
         H           -1.757392668556    -2.048957190987     0.000015973695     1.007825032230
         H           -1.017785368556     1.942409209013     0.000006573695     1.007825032230
         H            0.560315631444    -2.575538790987     0.000016573695     1.007825032230
         H            3.142852631444    -0.302284790987    -0.879099426305     1.007825032230
         H            3.142840631444    -0.302246790987     0.879102573695     1.007825032230
         H            2.911907631444    -1.830995790987     0.000032573695     1.007825032230

  Basis Set: AUG-CC-PVTZ
    Blend: AUG-CC-PVTZ
  Basis Set: (AUG-CC-PVTZ AUX)
    Blend: AUG-CC-PVTZ-JKFIT
	 Reference Energy          =    -451.6713820986749397 [Eh]
	 Singles Energy            =      -0.0000000000000000 [Eh]
	 Same-Spin Energy          =      -0.4591261108487499 [Eh]
	 Opposite-Spin Energy      =      -1.3851101361731917 [Eh]
	 Correlation Energy        =      -1.8442362470219416 [Eh]
	 Total Energy              =    -453.5156183456969075 [Eh]

	 ================> DF-SCS-MP2 Energies <==================
	-----------------------------------------------------------
	 SCS Same-Spin Scale       =       0.3333333333333333 [-]
	 SCS Opposite-Spin Scale   =       1.2000000000000000 [-]
	 SCS Same-Spin Energy      =      -0.1530420369495833 [Eh]
	 SCS Opposite-Spin Energy  =      -1.6621321634078299 [Eh]
	 SCS Correlation Energy    =      -1.8151742003574132 [Eh]
	 SCS Total Energy          =    -453.4865562990323724 [Eh]
	-----------------------------------------------------------

  Dipole Moment: [D]
     X:     1.0183      Y:    -4.2099      Z:    -0.0001     Total:     4.3313

*** Psi4 exiting successfully. Buy a developer a beer!
