                               Psi4 1.3.2 release

  ==> Input File <==

--------------------------------------------------------------------------
#psi4
#
memory 32 gb

molecule  {
0 1
  N       -1.1265450    -1.2362860     0.0000060
  C        0.2308680    -1.4868800    -0.0000290
  C        1.1512880    -0.4934230    -0.0000150
  C        0.6802440     0.8910390    -0.0001390
  N       -0.7159090     1.0273040    -0.0000130
  C       -1.6820960     0.0327770     0.0001490
  C        2.6300190    -0.7237960     0.0000320
  O        1.4079770     1.8828460     0.0000440
  O       -2.6914645     0.2098255    -0.0000041
  H       -1.7971660    -1.9955960    -0.0000480
  H       -1.0703780     1.9806020    -0.0000270
  H        0.5071850    -2.5374850    -0.0000570
  H        3.0900470    -0.2640690    -0.8790850
  H        3.0900220    -0.2639380     0.8790930
  H        2.8593700    -1.7927480     0.0001130
units angstrom
no_reorient  #important for SAPT in psi4, default
symmetry c1  #important for SAPT in psi4, default
}

set PROPERTIES_ORIGIN ["COM"]
properties('MP2/aug-cc-pvtz', properties = ['dipole'])
--------------------------------------------------------------------------

    Molecular point group: c1
  Charge       = 0
  Multiplicity = 1
  Basis Set: AUG-CC-PVTZ
    Blend: AUG-CC-PVTZ
  Basis Set: (AUG-CC-PVTZ AUX)
    Blend: AUG-CC-PVTZ-JKFIT

    Orbital Energies [Eh]
    ---------------------

    Doubly Occupied:

       1A    -20.550058     2A    -20.529672     3A    -15.614986
       4A    -15.602499     5A    -11.378978     6A    -11.366109
       7A    -11.319080     8A    -11.247453     9A    -11.229774
      10A     -1.565642    11A     -1.385129    12A     -1.302728
      13A     -1.227147    14A     -1.094622    15A     -0.956925
      16A     -0.909563    17A     -0.875660    18A     -0.775156
      19A     -0.756367    20A     -0.716682    21A     -0.707681
      22A     -0.687012    23A     -0.652818    24A     -0.617496
      25A     -0.597585    26A     -0.558093    27A     -0.551054
      28A     -0.542895    29A     -0.523365    30A     -0.492511
      31A     -0.437163    32A     -0.429885    33A     -0.342372

  @DF-RHF Final Energy:  -451.61010897214464

   => Energetics <=

    Nuclear Repulsion Energy =            446.1149666168077488
    One-Electron Energy =               -1500.3618275446531243
    Two-Electron Energy =                 602.6367519557006744
    Total Energy =                       -451.6101089721446442
  Basis Set: (AUG-CC-PVTZ AUX)
    Blend: AUG-CC-PVTZ-RI
    Molecular point group: c1

    Geometry (in Angstrom), charge = 0, multiplicity = 1:

       Center              X                  Y                   Z               Mass
    ------------   -----------------  -----------------  -----------------  -----------------
         N           -1.098982385073    -1.270170871062     0.000001992718    14.003074004430
         C            0.258430614927    -1.520764871062    -0.000033007282    12.000000000000
         C            1.178850614927    -0.527307871062    -0.000019007282    12.000000000000
         C            0.707806614927     0.857154128938    -0.000143007282    12.000000000000
         N           -0.688346385073     0.993419128938    -0.000017007282    14.003074004430
         C           -1.654533385073    -0.001107871062     0.000144992718    12.000000000000
         C            2.657581614927    -0.757680871062     0.000027992718    12.000000000000
         O            1.435539614927     1.848961128938     0.000039992718    15.994914619570
         O           -2.663901885073     0.175940628938    -0.000008107282    15.994914619570
         H           -1.769603385073    -2.029480871062    -0.000052007282     1.007825032230
         H           -1.042815385073     1.946717128938    -0.000031007282     1.007825032230
         H            0.534747614927    -2.571369871062    -0.000061007282     1.007825032230
         H            3.117609614927    -0.297953871062    -0.879089007282     1.007825032230
         H            3.117584614927    -0.297822871062     0.879088992718     1.007825032230
         H            2.886932614927    -1.826632871062     0.000108992718     1.007825032230

  Basis Set: AUG-CC-PVTZ
    Blend: AUG-CC-PVTZ
  Basis Set: (AUG-CC-PVTZ AUX)
    Blend: AUG-CC-PVTZ-JKFIT
	 Reference Energy          =    -451.6101089721446442 [Eh]
	 Singles Energy            =      -0.0000000000000000 [Eh]
	 Same-Spin Energy          =      -0.4539756620630241 [Eh]
	 Opposite-Spin Energy      =      -1.3728284316056067 [Eh]
	 Correlation Energy        =      -1.8268040936686307 [Eh]
	 Total Energy              =    -453.4369130658132576 [Eh]

	 ================> DF-SCS-MP2 Energies <==================
	-----------------------------------------------------------
	 SCS Same-Spin Scale       =       0.3333333333333333 [-]
	 SCS Opposite-Spin Scale   =       1.2000000000000000 [-]
	 SCS Same-Spin Energy      =      -0.1513252206876747 [Eh]
	 SCS Opposite-Spin Energy  =      -1.6473941179267280 [Eh]
	 SCS Correlation Energy    =      -1.7987193386144027 [Eh]
	 SCS Total Energy          =    -453.4088283107590200 [Eh]
	-----------------------------------------------------------

  Dipole Moment: [D]
     X:    -0.6903      Y:    -3.9354      Z:    -0.0000     Total:     3.9954

*** Psi4 exiting successfully. Buy a developer a beer!
