                               Psi4 1.3.2 release

  ==> Input File <==

--------------------------------------------------------------------------
#psi4
#
memory 32 gb

molecule  {
0 1
  N       -1.2164237    -1.2719479     0.0000226
  C        0.2308680    -1.4868800    -0.0000290
  C        1.1512880    -0.4934230    -0.0000150
  C        0.6802440     0.8910390    -0.0001390
  N       -0.7159090     1.0273040    -0.0000130
  C       -1.6820960     0.0327770     0.0001490
  C        2.6300190    -0.7237960     0.0000320
  O        1.4079770     1.8828460     0.0000440
  O       -2.8884570     0.2443790    -0.0000340
  H       -1.7971660    -1.9955960    -0.0000480
  H       -1.0703780     1.9806020    -0.0000270
  H        0.5071850    -2.5374850    -0.0000570
  H        3.0900470    -0.2640690    -0.8790850
  H        3.0900220    -0.2639380     0.8790930
  H        2.8593700    -1.7927480     0.0001130
units angstrom
no_reorient  #important for SAPT in psi4, default
symmetry c1  #important for SAPT in psi4, default
}

set PROPERTIES_ORIGIN ["COM"]
properties('MP2/aug-cc-pvtz', properties = ['dipole'])
--------------------------------------------------------------------------

    Molecular point group: c1
  Charge       = 0
  Multiplicity = 1
  Basis Set: AUG-CC-PVTZ
    Blend: AUG-CC-PVTZ
  Basis Set: (AUG-CC-PVTZ AUX)
    Blend: AUG-CC-PVTZ-JKFIT

    Orbital Energies [Eh]
    ---------------------

    Doubly Occupied:

       1A    -20.548834     2A    -20.537197     3A    -15.631368
       4A    -15.631182     5A    -11.415245     6A    -11.385445
       7A    -11.336569     8A    -11.271352     9A    -11.243861
      10A     -1.424568    11A     -1.395384    12A     -1.289626
      13A     -1.240910    14A     -1.113189    15A     -0.966536
      16A     -0.913496    17A     -0.902633    18A     -0.782287
      19A     -0.756771    20A     -0.701693    21A     -0.685157
      22A     -0.660395    23A     -0.633086    24A     -0.623186
      25A     -0.594461    26A     -0.571299    27A     -0.558802
      28A     -0.556264    29A     -0.499341    30A     -0.474042
      31A     -0.450625    32A     -0.435837    33A     -0.363391

  @DF-RHF Final Energy:  -451.66052528244069

   => Energetics <=

    Nuclear Repulsion Energy =            436.6193941385972153
    One-Electron Energy =               -1481.3717759424589531
    Two-Electron Energy =                 593.0918565214210503
    Total Energy =                       -451.6605252824406307
  Basis Set: (AUG-CC-PVTZ AUX)
    Blend: AUG-CC-PVTZ-RI
    Molecular point group: c1

    Geometry (in Angstrom), charge = 0, multiplicity = 1:

       Center              X                  Y                   Z               Mass
    ------------   -----------------  -----------------  -----------------  -----------------
         N           -1.153877318866    -1.306255675056     0.000020542823    14.003074004430
         C            0.293414381134    -1.521187775056    -0.000031057177    12.000000000000
         C            1.213834381134    -0.527730775056    -0.000017057177    12.000000000000
         C            0.742790381134     0.856731224944    -0.000141057177    12.000000000000
         N           -0.653362618866     0.992996224944    -0.000015057177    14.003074004430
         C           -1.619549618866    -0.001530775056     0.000146942823    12.000000000000
         C            2.692565381134    -0.758103775056     0.000029942823    12.000000000000
         O            1.470523381134     1.848538224944     0.000041942823    15.994914619570
         O           -2.825910618866     0.210071224944    -0.000036057177    15.994914619570
         H           -1.734619618866    -2.029903775056    -0.000050057177     1.007825032230
         H           -1.007831618866     1.946294224944    -0.000029057177     1.007825032230
         H            0.569731381134    -2.571792775056    -0.000059057177     1.007825032230
         H            3.152593381134    -0.298376775056    -0.879087057177     1.007825032230
         H            3.152568381134    -0.298245775056     0.879090942823     1.007825032230
         H            2.921916381134    -1.827055775056     0.000110942823     1.007825032230

  Basis Set: AUG-CC-PVTZ
    Blend: AUG-CC-PVTZ
  Basis Set: (AUG-CC-PVTZ AUX)
    Blend: AUG-CC-PVTZ-JKFIT
	 Reference Energy          =    -451.6605252824406875 [Eh]
	 Singles Energy            =      -0.0000000000000000 [Eh]
	 Same-Spin Energy          =      -0.4574185802139571 [Eh]
	 Opposite-Spin Energy      =      -1.3839721848071993 [Eh]
	 Correlation Energy        =      -1.8413907650211563 [Eh]
	 Total Energy              =    -453.5019160474618616 [Eh]

	 ================> DF-SCS-MP2 Energies <==================
	-----------------------------------------------------------
	 SCS Same-Spin Scale       =       0.3333333333333333 [-]
	 SCS Opposite-Spin Scale   =       1.2000000000000000 [-]
	 SCS Same-Spin Energy      =      -0.1524728600713190 [Eh]
	 SCS Opposite-Spin Energy  =      -1.6607666217686392 [Eh]
	 SCS Correlation Energy    =      -1.8132394818399582 [Eh]
	 SCS Total Energy          =    -453.4737647642806451 [Eh]
	-----------------------------------------------------------

  Dipole Moment: [D]
     X:     1.4408      Y:    -3.9951      Z:    -0.0001     Total:     4.2470

*** Psi4 exiting successfully. Buy a developer a beer!
