                               Psi4 1.3.2 release

  ==> Input File <==

--------------------------------------------------------------------------
#psi4
#
memory 32 gb

molecule  {
0 1
  N       -1.1265450    -1.2362860     0.0000060
  C        0.2136700    -1.4706651    -0.0000314
  C        1.1512880    -0.4934230    -0.0000150
  C        0.6802440     0.8910390    -0.0001390
  N       -0.7159090     1.0273040    -0.0000130
  C       -1.6820960     0.0327770     0.0001490
  C        2.6300190    -0.7237960     0.0000320
  O        1.4079770     1.8828460     0.0000440
  O       -2.8884570     0.2443790    -0.0000340
  H       -1.7971660    -1.9955960    -0.0000480
  H       -1.0703780     1.9806020    -0.0000270
  H        0.5071850    -2.5374850    -0.0000570
  H        3.0900470    -0.2640690    -0.8790850
  H        3.0900220    -0.2639380     0.8790930
  H        2.8593700    -1.7927480     0.0001130
units angstrom
no_reorient  #important for SAPT in psi4, default
symmetry c1  #important for SAPT in psi4, default
}

set PROPERTIES_ORIGIN ["COM"]
properties('MP2/aug-cc-pvtz', properties = ['dipole'])
--------------------------------------------------------------------------

    Molecular point group: c1
  Charge       = 0
  Multiplicity = 1
  Basis Set: AUG-CC-PVTZ
    Blend: AUG-CC-PVTZ
  Basis Set: (AUG-CC-PVTZ AUX)
    Blend: AUG-CC-PVTZ-JKFIT

    Orbital Energies [Eh]
    ---------------------

    Doubly Occupied:

       1A    -20.545682     2A    -20.541690     3A    -15.642658
       4A    -15.628804     5A    -11.419149     6A    -11.379585
       7A    -11.332295     8A    -11.260984     9A    -11.239277
      10A     -1.428964    11A     -1.391295    12A     -1.310272
      13A     -1.242024    14A     -1.107104    15A     -0.970518
      16A     -0.914864    17A     -0.894751    18A     -0.775804
      19A     -0.765608    20A     -0.705071    21A     -0.673946
      22A     -0.667139    23A     -0.639722    24A     -0.612521
      25A     -0.591186    26A     -0.570013    27A     -0.558557
      28A     -0.551035    29A     -0.514213    30A     -0.479519
      31A     -0.447335    32A     -0.434838    33A     -0.353059

  @DF-RHF Final Energy:  -451.67202779260475

   => Energetics <=

    Nuclear Repulsion Energy =            438.5880617966755040
    One-Electron Energy =               -1485.3412173917570271
    Two-Electron Energy =                 595.0811278024768853
    Total Energy =                       -451.6720277926046947
  Basis Set: (AUG-CC-PVTZ AUX)
    Blend: AUG-CC-PVTZ-RI
    Molecular point group: c1

    Geometry (in Angstrom), charge = 0, multiplicity = 1:

       Center              X                  Y                   Z               Mass
    ------------   -----------------  -----------------  -----------------  -----------------
         N           -1.072346584983    -1.276099478858     0.000006015538    14.003074004430
         C            0.267868415017    -1.510478578858    -0.000031384462    12.000000000000
         C            1.205486415017    -0.533236478858    -0.000014984462    12.000000000000
         C            0.734442415017     0.851225521142    -0.000138984462    12.000000000000
         N           -0.661710584983     0.987490521142    -0.000012984462    14.003074004430
         C           -1.627897584983    -0.007036478858     0.000149015538    12.000000000000
         C            2.684217415017    -0.763609478858     0.000032015538    12.000000000000
         O            1.462175415017     1.843032521142     0.000044015538    15.994914619570
         O           -2.834258584983     0.204565521142    -0.000033984462    15.994914619570
         H           -1.742967584983    -2.035409478858    -0.000047984462     1.007825032230
         H           -1.016179584983     1.940788521142    -0.000026984462     1.007825032230
         H            0.561383415017    -2.577298478858    -0.000056984462     1.007825032230
         H            3.144245415017    -0.303882478858    -0.879084984462     1.007825032230
         H            3.144220415017    -0.303751478858     0.879093015538     1.007825032230
         H            2.913568415017    -1.832561478858     0.000113015538     1.007825032230

  Basis Set: AUG-CC-PVTZ
    Blend: AUG-CC-PVTZ
  Basis Set: (AUG-CC-PVTZ AUX)
    Blend: AUG-CC-PVTZ-JKFIT
	 Reference Energy          =    -451.6720277926047515 [Eh]
	 Singles Energy            =      -0.0000000000000000 [Eh]
	 Same-Spin Energy          =      -0.4591183273737909 [Eh]
	 Opposite-Spin Energy      =      -1.3846459599694945 [Eh]
	 Correlation Energy        =      -1.8437642873432853 [Eh]
	 Total Energy              =    -453.5157920799480280 [Eh]

	 ================> DF-SCS-MP2 Energies <==================
	-----------------------------------------------------------
	 SCS Same-Spin Scale       =       0.3333333333333333 [-]
	 SCS Opposite-Spin Scale   =       1.2000000000000000 [-]
	 SCS Same-Spin Energy      =      -0.1530394424579303 [Eh]
	 SCS Opposite-Spin Energy  =      -1.6615751519633932 [Eh]
	 SCS Correlation Energy    =      -1.8146145944213234 [Eh]
	 SCS Total Energy          =    -453.4866423870260519 [Eh]
	-----------------------------------------------------------

  Dipole Moment: [D]
     X:     0.9451      Y:    -4.2026      Z:    -0.0001     Total:     4.3076

*** Psi4 exiting successfully. Buy a developer a beer!
