                               Psi4 1.4a3.dev225

  ==> Input File <==

--------------------------------------------------------------------------
#psi4
#
memory 32 gb

molecule  {
0 1
  N       -1.1263310    -1.2364150    -0.0000030
  C        0.2309450    -1.4868440     0.0000000
  C        1.1514300    -0.4932890    -0.0000070
  C        0.6802680     0.8910870    -0.0000240
  N       -0.7160800     1.0272360    -0.0000150
  C       -1.6820330     0.0328590    -0.0000240
  C        2.6301110    -0.7238270     0.0000080
  O        1.4075700     1.8832080     0.0000170
  O       -2.8884930     0.2440480     0.0000250
  H       -1.7968290    -1.9958110     0.0000150
  H       -1.0774277     1.9993097     0.0000064
  H        0.5076420    -2.5373850     0.0000160
  H        3.0901790    -0.2641310    -0.8791000
  H        3.0901670    -0.2640930     0.8791020
  H        2.8592340    -1.7928420     0.0000320
units angstrom
no_reorient  #important for SAPT in psi4, default
symmetry c1  #important for SAPT in psi4, default
}

set PROPERTIES_ORIGIN ["COM"]
properties('MP2/aug-cc-pvtz', properties = ['dipole'])
--------------------------------------------------------------------------

    Molecular point group: c1
  Charge       = 0
  Multiplicity = 1
  Basis Set: AUG-CC-PVTZ
    Blend: AUG-CC-PVTZ
  Basis Set: (AUG-CC-PVTZ AUX)
    Blend: AUG-CC-PVTZ-JKFIT

    Orbital Energies [Eh]
    ---------------------

    Doubly Occupied:

       1A    -20.544322     2A    -20.543019     3A    -15.640517
       4A    -15.630078     5A    -11.418094     6A    -11.380989
       7A    -11.331965     8A    -11.262782     9A    -11.239474
      10A     -1.426926    11A     -1.391849    12A     -1.304763
      13A     -1.238141    14A     -1.107894    15A     -0.969973
      16A     -0.913924    17A     -0.892712    18A     -0.769314
      19A     -0.765149    20A     -0.704586    21A     -0.673654
      22A     -0.664885    23A     -0.639931    24A     -0.615936
      25A     -0.591408    26A     -0.568308    27A     -0.557867
      28A     -0.551651    29A     -0.511082    30A     -0.479302
      31A     -0.448291    32A     -0.434389    33A     -0.354353

  @DF-RHF Final Energy:  -451.67139302573003

   => Energetics <=

    Nuclear Repulsion Energy =            438.0625589283854424
    One-Electron Energy =               -1484.3328434179443320
    Two-Electron Energy =                 594.5988914638288634
    Total Energy =                       -451.6713930257300262
  Basis Set: (AUG-CC-PVTZ AUX)
    Blend: AUG-CC-PVTZ-RI
    Molecular point group: c1

    Geometry (in Angstrom), charge = 0, multiplicity = 1:

       Center              X                  Y                   Z               Mass
    ------------   -----------------  -----------------  -----------------  -----------------
         N           -1.073707491574    -1.274838565026    -0.000002426305    14.003074004430
         C            0.283568508426    -1.525267565026     0.000000573695    12.000000000000
         C            1.204053508426    -0.531712565026    -0.000006426305    12.000000000000
         C            0.732891508426     0.852663434974    -0.000023426305    12.000000000000
         N           -0.663456491574     0.988812434974    -0.000014426305    14.003074004430
         C           -1.629409491574    -0.005564565026    -0.000023426305    12.000000000000
         C            2.682734508426    -0.762250565026     0.000008573695    12.000000000000
         O            1.460193508426     1.844784434974     0.000017573695    15.994914619570
         O           -2.835869491574     0.205624434974     0.000025573695    15.994914619570
         H           -1.744205491574    -2.034234565026     0.000015573695     1.007825032230
         H           -1.024804191574     1.960886134974     0.000006973695     1.007825032230
         H            0.560265508426    -2.575808565026     0.000016573695     1.007825032230
         H            3.142802508426    -0.302554565026    -0.879099426305     1.007825032230
         H            3.142790508426    -0.302516565026     0.879102573695     1.007825032230
         H            2.911857508426    -1.831265565026     0.000032573695     1.007825032230

  Basis Set: AUG-CC-PVTZ
    Blend: AUG-CC-PVTZ
  Basis Set: (AUG-CC-PVTZ AUX)
    Blend: AUG-CC-PVTZ-JKFIT
	 Reference Energy          =    -451.6713930257300262 [Eh]
	 Singles Energy            =      -0.0000000000000000 [Eh]
	 Same-Spin Energy          =      -0.4591395972365975 [Eh]
	 Opposite-Spin Energy      =      -1.3851168535771976 [Eh]
	 Correlation Energy        =      -1.8442564508137951 [Eh]
	 Total Energy              =    -453.5156494765438424 [Eh]

	 ================> DF-SCS-MP2 Energies <==================
	-----------------------------------------------------------
	 SCS Same-Spin Scale       =       0.3333333333333333 [-]
	 SCS Opposite-Spin Scale   =       1.2000000000000000 [-]
	 SCS Same-Spin Energy      =      -0.1530465324121991 [Eh]
	 SCS Opposite-Spin Energy  =      -1.6621402242926371 [Eh]
	 SCS Correlation Energy    =      -1.8151867567048363 [Eh]
	 SCS Total Energy          =    -453.4865797824348874 [Eh]
	-----------------------------------------------------------

  Dipole Moment: [D]
     X:     1.0294      Y:    -4.1629      Z:    -0.0001     Total:     4.2883

*** Psi4 exiting successfully. Buy a developer a beer!
