                               Psi4 1.3.2 release

  ==> Input File <==

--------------------------------------------------------------------------
#psi4
#
memory 32 gb

molecule  {
0 1
  N       -0.9969352    -1.1712630    -0.0000176
  C        0.2308680    -1.4868800    -0.0000290
  C        1.1512880    -0.4934230    -0.0000150
  C        0.6802440     0.8910390    -0.0001390
  N       -0.7159090     1.0273040    -0.0000130
  C       -1.6820960     0.0327770     0.0001490
  C        2.6300190    -0.7237960     0.0000320
  O        1.4079770     1.8828460     0.0000440
  O       -2.8884570     0.2443790    -0.0000340
  H       -1.7971660    -1.9955960    -0.0000480
  H       -1.0703780     1.9806020    -0.0000270
  H        0.5071850    -2.5374850    -0.0000570
  H        3.0900470    -0.2640690    -0.8790850
  H        3.0900220    -0.2639380     0.8790930
  H        2.8593700    -1.7927480     0.0001130
units angstrom
no_reorient  #important for SAPT in psi4, default
symmetry c1  #important for SAPT in psi4, default
}

set PROPERTIES_ORIGIN ["COM"]
properties('MP2/aug-cc-pvtz', properties = ['dipole'])
--------------------------------------------------------------------------

    Molecular point group: c1
  Charge       = 0
  Multiplicity = 1
  Basis Set: AUG-CC-PVTZ
    Blend: AUG-CC-PVTZ
  Basis Set: (AUG-CC-PVTZ AUX)
    Blend: AUG-CC-PVTZ-JKFIT

    Orbital Energies [Eh]
    ---------------------

    Doubly Occupied:

       1A    -20.556909     2A    -20.534344     3A    -15.654167
       4A    -15.625802     5A    -11.426839     6A    -11.374437
       7A    -11.325335     8A    -11.249362     9A    -11.232680
      10A     -1.435569    11A     -1.386978    12A     -1.336319
      13A     -1.242246    14A     -1.101000    15A     -0.983419
      16A     -0.919021    17A     -0.882012    18A     -0.784292
      19A     -0.749882    20A     -0.716386    21A     -0.677258
      22A     -0.664746    23A     -0.640541    24A     -0.599264
      25A     -0.587005    26A     -0.559907    27A     -0.559650
      28A     -0.543585    29A     -0.527787    30A     -0.487764
      31A     -0.443250    32A     -0.433829    33A     -0.340389

  @DF-RHF Final Energy:  -451.63450887134377

   => Energetics <=

    Nuclear Repulsion Energy =            440.8983318142840062
    One-Electron Energy =               -1489.9017293987656103
    Two-Electron Energy =                 597.3688887131379488
    Total Energy =                       -451.6345088713437690
  Basis Set: (AUG-CC-PVTZ AUX)
    Blend: AUG-CC-PVTZ-RI
    Molecular point group: c1

    Geometry (in Angstrom), charge = 0, multiplicity = 1:

       Center              X                  Y                   Z               Mass
    ------------   -----------------  -----------------  -----------------  -----------------
         N           -0.958773477101    -1.216756631609    -0.000015191051    14.003074004430
         C            0.269029722899    -1.532373631609    -0.000026591051    12.000000000000
         C            1.189449722899    -0.538916631609    -0.000012591051    12.000000000000
         C            0.718405722899     0.845545368391    -0.000136591051    12.000000000000
         N           -0.677747277101     0.981810368391    -0.000010591051    14.003074004430
         C           -1.643934277101    -0.012716631609     0.000151408949    12.000000000000
         C            2.668180722899    -0.769289631609     0.000034408949    12.000000000000
         O            1.446138722899     1.837352368391     0.000046408949    15.994914619570
         O           -2.850295277101     0.198885368391    -0.000031591051    15.994914619570
         H           -1.759004277101    -2.041089631609    -0.000045591051     1.007825032230
         H           -1.032216277101     1.935108368391    -0.000024591051     1.007825032230
         H            0.545346722899    -2.582978631609    -0.000054591051     1.007825032230
         H            3.128208722899    -0.309562631609    -0.879082591051     1.007825032230
         H            3.128183722899    -0.309431631609     0.879095408949     1.007825032230
         H            2.897531722899    -1.838241631609     0.000115408949     1.007825032230

  Basis Set: AUG-CC-PVTZ
    Blend: AUG-CC-PVTZ
  Basis Set: (AUG-CC-PVTZ AUX)
    Blend: AUG-CC-PVTZ-JKFIT
	 Reference Energy          =    -451.6345088713437690 [Eh]
	 Singles Energy            =      -0.0000000000000000 [Eh]
	 Same-Spin Energy          =      -0.4626268111717333 [Eh]
	 Opposite-Spin Energy      =      -1.3892451229924858 [Eh]
	 Correlation Energy        =      -1.8518719341642191 [Eh]
	 Total Energy              =    -453.4863808055079630 [Eh]

	 ================> DF-SCS-MP2 Energies <==================
	-----------------------------------------------------------
	 SCS Same-Spin Scale       =       0.3333333333333333 [-]
	 SCS Opposite-Spin Scale   =       1.2000000000000000 [-]
	 SCS Same-Spin Energy      =      -0.1542089370572444 [Eh]
	 SCS Opposite-Spin Energy  =      -1.6670941475909828 [Eh]
	 SCS Correlation Energy    =      -1.8213030846482272 [Eh]
	 SCS Total Energy          =    -453.4558119559919760 [Eh]
	-----------------------------------------------------------

  Dipole Moment: [D]
     X:     0.4556      Y:    -4.4521      Z:    -0.0000     Total:     4.4753

*** Psi4 exiting successfully. Buy a developer a beer!
