                               Psi4 1.3.2 release

  ==> Input File <==

--------------------------------------------------------------------------
#psi4
#
memory 32 gb

molecule  {
0 1
  N       -1.1265450    -1.2362860     0.0000060
  C        0.2308680    -1.4868800    -0.0000290
  C        1.1512880    -0.4934230    -0.0000150
  C        0.6802440     0.8910390    -0.0001390
  N       -0.7159090     1.0273040    -0.0000130
  C       -1.6820960     0.0327770     0.0001490
  C        2.6300190    -0.7237960     0.0000320
  O        1.4079770     1.8828460     0.0000440
  O       -2.8884570     0.2443790    -0.0000340
  H       -1.7971660    -1.9955960    -0.0000480
  H       -1.0006738     1.7931418    -0.0000242
  H        0.5071850    -2.5374850    -0.0000570
  H        3.0900470    -0.2640690    -0.8790850
  H        3.0900220    -0.2639380     0.8790930
  H        2.8593700    -1.7927480     0.0001130
units angstrom
no_reorient  #important for SAPT in psi4, default
symmetry c1  #important for SAPT in psi4, default
}

set PROPERTIES_ORIGIN ["COM"]
properties('MP2/aug-cc-pvtz', properties = ['dipole'])
--------------------------------------------------------------------------

    Molecular point group: c1
  Charge       = 0
  Multiplicity = 1
  Basis Set: AUG-CC-PVTZ
    Blend: AUG-CC-PVTZ
  Basis Set: (AUG-CC-PVTZ AUX)
    Blend: AUG-CC-PVTZ-JKFIT

    Orbital Energies [Eh]
    ---------------------

    Doubly Occupied:

       1A    -20.547038     2A    -20.545559     3A    -15.641642
       4A    -15.610610     5A    -11.420323     6A    -11.382865
       7A    -11.333355     8A    -11.263632     9A    -11.240271
      10A     -1.434157    11A     -1.395194    12A     -1.309077
      13A     -1.268123    14A     -1.110117    15A     -0.971880
      16A     -0.939767    17A     -0.899609    18A     -0.792725
      19A     -0.767981    20A     -0.729844    21A     -0.678895
      22A     -0.667836    23A     -0.642379    24A     -0.620451
      25A     -0.592649    26A     -0.571205    27A     -0.560451
      28A     -0.553649    29A     -0.512961    30A     -0.480781
      31A     -0.450608    32A     -0.439676    33A     -0.355616

  @DF-RHF Final Energy:  -451.62895176158389

   => Energetics <=

    Nuclear Repulsion Energy =            439.6577592159888468
    One-Electron Energy =               -1487.1115701680769234
    Two-Electron Energy =                 595.8248591905041849
    Total Energy =                       -451.6289517615839486
  Basis Set: (AUG-CC-PVTZ AUX)
    Blend: AUG-CC-PVTZ-RI
    Molecular point group: c1

    Geometry (in Angstrom), charge = 0, multiplicity = 1:

       Center              X                  Y                   Z               Mass
    ------------   -----------------  -----------------  -----------------  -----------------
         N           -1.074541278832    -1.273056817997     0.000005764656    14.003074004430
         C            0.282871721168    -1.523650817997    -0.000029235344    12.000000000000
         C            1.203291721168    -0.530193817997    -0.000015235344    12.000000000000
         C            0.732247721168     0.854268182003    -0.000139235344    12.000000000000
         N           -0.663905278832     0.990533182003    -0.000013235344    14.003074004430
         C           -1.630092278832    -0.003993817997     0.000148764656    12.000000000000
         C            2.682022721168    -0.760566817997     0.000031764656    12.000000000000
         O            1.459980721168     1.846075182003     0.000043764656    15.994914619570
         O           -2.836453278832     0.207608182003    -0.000034235344    15.994914619570
         H           -1.745162278832    -2.032366817997    -0.000048235344     1.007825032230
         H           -0.948670078832     1.756370982003    -0.000024435344     1.007825032230
         H            0.559188721168    -2.574255817997    -0.000057235344     1.007825032230
         H            3.142050721168    -0.300839817997    -0.879085235344     1.007825032230
         H            3.142025721168    -0.300708817997     0.879092764656     1.007825032230
         H            2.911373721168    -1.829518817997     0.000112764656     1.007825032230

  Basis Set: AUG-CC-PVTZ
    Blend: AUG-CC-PVTZ
  Basis Set: (AUG-CC-PVTZ AUX)
    Blend: AUG-CC-PVTZ-JKFIT
	 Reference Energy          =    -451.6289517615838918 [Eh]
	 Singles Energy            =      -0.0000000000000000 [Eh]
	 Same-Spin Energy          =      -0.4575195117667621 [Eh]
	 Opposite-Spin Energy      =      -1.3823089575113685 [Eh]
	 Correlation Energy        =      -1.8398284692781306 [Eh]
	 Total Energy              =    -453.4687802308620235 [Eh]

	 ================> DF-SCS-MP2 Energies <==================
	-----------------------------------------------------------
	 SCS Same-Spin Scale       =       0.3333333333333333 [-]
	 SCS Opposite-Spin Scale   =       1.2000000000000000 [-]
	 SCS Same-Spin Energy      =      -0.1525065039222540 [Eh]
	 SCS Opposite-Spin Energy  =      -1.6587707490136421 [Eh]
	 SCS Correlation Energy    =      -1.8112772529358960 [Eh]
	 SCS Total Energy          =    -453.4402290145197867 [Eh]
	-----------------------------------------------------------

  Dipole Moment: [D]
     X:     1.1191      Y:    -4.4175      Z:    -0.0001     Total:     4.5571

*** Psi4 exiting successfully. Buy a developer a beer!
