                               Psi4 1.3.2 release

  ==> Input File <==

--------------------------------------------------------------------------
#psi4
#
memory 32 gb

molecule  {
0 1
  N       -1.1265450    -1.2362860     0.0000060
  C        0.2308680    -1.4868800    -0.0000290
  C        1.1512880    -0.4934230    -0.0000150
  C        0.6802440     0.8910390    -0.0001390
  N       -0.7159090     1.0273040    -0.0000130
  C       -1.6820960     0.0327770     0.0001490
  C        2.6300190    -0.7237960     0.0000320
  O        1.4079770     1.8828460     0.0000440
  O       -3.0854495     0.2789325    -0.0000639
  H       -1.7971660    -1.9955960    -0.0000480
  H       -1.0703780     1.9806020    -0.0000270
  H        0.5071850    -2.5374850    -0.0000570
  H        3.0900470    -0.2640690    -0.8790850
  H        3.0900220    -0.2639380     0.8790930
  H        2.8593700    -1.7927480     0.0001130
units angstrom
no_reorient  #important for SAPT in psi4, default
symmetry c1  #important for SAPT in psi4, default
}

set PROPERTIES_ORIGIN ["COM"]
properties('MP2/aug-cc-pvtz', properties = ['dipole'])
--------------------------------------------------------------------------

    Molecular point group: c1
  Charge       = 0
  Multiplicity = 1
  Basis Set: AUG-CC-PVTZ
    Blend: AUG-CC-PVTZ
  Basis Set: (AUG-CC-PVTZ AUX)
    Blend: AUG-CC-PVTZ-JKFIT

    Orbital Energies [Eh]
    ---------------------

    Doubly Occupied:

       1A    -20.554539     2A    -20.536260     3A    -15.661675
       4A    -15.649788     5A    -11.442627     6A    -11.393196
       7A    -11.342561     8A    -11.276788     9A    -11.248181
      10A     -1.415313    11A     -1.364970    12A     -1.262649
      13A     -1.241209    14A     -1.119550    15A     -0.982727
      16A     -0.925046    17A     -0.908382    18A     -0.783955
      19A     -0.769899    20A     -0.718650    21A     -0.680123
      22A     -0.663211    23A     -0.621691    24A     -0.594460
      25A     -0.592452    26A     -0.568806    27A     -0.566017
      28A     -0.560358    29A     -0.494323    30A     -0.467358
      31A     -0.441712    32A     -0.426887    33A     -0.364667

  @DF-RHF Final Energy:  -451.61611549918774

   => Energetics <=

    Nuclear Repulsion Energy =            431.7885527782405006
    One-Electron Energy =               -1471.5292744132395910
    Two-Electron Energy =                 588.1246061358114048
    Total Energy =                       -451.6161154991876856
  Basis Set: (AUG-CC-PVTZ AUX)
    Blend: AUG-CC-PVTZ-RI
    Molecular point group: c1

    Geometry (in Angstrom), charge = 0, multiplicity = 1:

       Center              X                  Y                   Z               Mass
    ------------   -----------------  -----------------  -----------------  -----------------
         N           -1.048985478747    -1.278940586166     0.000009581370    14.003074004430
         C            0.308427521253    -1.529534586166    -0.000025418630    12.000000000000
         C            1.228847521253    -0.536077586166    -0.000011418630    12.000000000000
         C            0.757803521253     0.848384413834    -0.000135418630    12.000000000000
         N           -0.638349478747     0.984649413834    -0.000009418630    14.003074004430
         C           -1.604536478747    -0.009877586166     0.000152581370    12.000000000000
         C            2.707578521253    -0.766450586166     0.000035581370    12.000000000000
         O            1.485536521253     1.840191413834     0.000047581370    15.994914619570
         O           -3.007889978747     0.236277913834    -0.000060318630    15.994914619570
         H           -1.719606478747    -2.038250586166    -0.000044418630     1.007825032230
         H           -0.992818478747     1.937947413834    -0.000023418630     1.007825032230
         H            0.584744521253    -2.580139586166    -0.000053418630     1.007825032230
         H            3.167606521253    -0.306723586166    -0.879081418630     1.007825032230
         H            3.167581521253    -0.306592586166     0.879096581370     1.007825032230
         H            2.936929521253    -1.835402586166     0.000116581370     1.007825032230

  Basis Set: AUG-CC-PVTZ
    Blend: AUG-CC-PVTZ
  Basis Set: (AUG-CC-PVTZ AUX)
    Blend: AUG-CC-PVTZ-JKFIT
	 Reference Energy          =    -451.6161154991877424 [Eh]
	 Singles Energy            =      -0.0000000000000000 [Eh]
	 Same-Spin Energy          =      -0.4628316404441183 [Eh]
	 Opposite-Spin Energy      =      -1.3946783269337337 [Eh]
	 Correlation Energy        =      -1.8575099673778519 [Eh]
	 Total Energy              =    -453.4736254665655792 [Eh]

	 ================> DF-SCS-MP2 Energies <==================
	-----------------------------------------------------------
	 SCS Same-Spin Scale       =       0.3333333333333333 [-]
	 SCS Opposite-Spin Scale   =       1.2000000000000000 [-]
	 SCS Same-Spin Energy      =      -0.1542772134813727 [Eh]
	 SCS Opposite-Spin Energy  =      -1.6736139923204805 [Eh]
	 SCS Correlation Energy    =      -1.8278912058018533 [Eh]
	 SCS Total Energy          =    -453.4440067049895902 [Eh]
	-----------------------------------------------------------

  Dipole Moment: [D]
     X:     2.5732      Y:    -4.4179      Z:    -0.0001     Total:     5.1127

*** Psi4 exiting successfully. Buy a developer a beer!
