                               Psi4 1.3.2 release

  ==> Input File <==

--------------------------------------------------------------------------
#psi4
#
memory 32 gb

molecule  {
0 1
  N       -1.1265450    -1.2362860     0.0000060
  C        0.2308680    -1.4868800    -0.0000290
  C        1.0535654    -0.5229089    -0.0000013
  C        0.6802440     0.8910390    -0.0001390
  N       -0.7159090     1.0273040    -0.0000130
  C       -1.6820960     0.0327770     0.0001490
  C        2.6300190    -0.7237960     0.0000320
  O        1.4079770     1.8828460     0.0000440
  O       -2.8884570     0.2443790    -0.0000340
  H       -1.7971660    -1.9955960    -0.0000480
  H       -1.0703780     1.9806020    -0.0000270
  H        0.5071850    -2.5374850    -0.0000570
  H        3.0900470    -0.2640690    -0.8790850
  H        3.0900220    -0.2639380     0.8790930
  H        2.8593700    -1.7927480     0.0001130
units angstrom
no_reorient  #important for SAPT in psi4, default
symmetry c1  #important for SAPT in psi4, default
}

set PROPERTIES_ORIGIN ["COM"]
properties('MP2/aug-cc-pvtz', properties = ['dipole'])
--------------------------------------------------------------------------

    Molecular point group: c1
  Charge       = 0
  Multiplicity = 1
  Basis Set: AUG-CC-PVTZ
    Blend: AUG-CC-PVTZ
  Basis Set: (AUG-CC-PVTZ AUX)
    Blend: AUG-CC-PVTZ-JKFIT

    Orbital Energies [Eh]
    ---------------------

    Doubly Occupied:

       1A    -20.549982     2A    -20.542653     3A    -15.634103
       4A    -15.626895     5A    -11.416620     6A    -11.385924
       7A    -11.318446     8A    -11.256185     9A    -11.244226
      10A     -1.426888    11A     -1.394723    12A     -1.306690
      13A     -1.239981    14A     -1.114030    15A     -0.962809
      16A     -0.917394    17A     -0.897008    18A     -0.774768
      19A     -0.762389    20A     -0.710414    21A     -0.675606
      22A     -0.666016    23A     -0.640161    24A     -0.622258
      25A     -0.586417    26A     -0.558936    27A     -0.558724
      28A     -0.537350    29A     -0.515623    30A     -0.477417
      31A     -0.450786    32A     -0.435285    33A     -0.370143

  @DF-RHF Final Energy:  -451.66014986116977

   => Energetics <=

    Nuclear Repulsion Energy =            439.1374623392993044
    One-Electron Energy =               -1486.4415258629217078
    Two-Electron Energy =                 595.6439136624527464
    Total Energy =                       -451.6601498611697707
  Basis Set: (AUG-CC-PVTZ AUX)
    Blend: AUG-CC-PVTZ-RI
    Molecular point group: c1

    Geometry (in Angstrom), charge = 0, multiplicity = 1:

       Center              X                  Y                   Z               Mass
    ------------   -----------------  -----------------  -----------------  -----------------
         N           -1.064680187354    -1.271748504066     0.000004482727    14.003074004430
         C            0.292732812646    -1.522342504066    -0.000030517273    12.000000000000
         C            1.115430212646    -0.558371404066    -0.000002817273    12.000000000000
         C            0.742108812646     0.855576495934    -0.000140517273    12.000000000000
         N           -0.654044187354     0.991841495934    -0.000014517273    14.003074004430
         C           -1.620231187354    -0.002685504066     0.000147482727    12.000000000000
         C            2.691883812646    -0.759258504066     0.000030482727    12.000000000000
         O            1.469841812646     1.847383495934     0.000042482727    15.994914619570
         O           -2.826592187354     0.208916495934    -0.000035517273    15.994914619570
         H           -1.735301187354    -2.031058504066    -0.000049517273     1.007825032230
         H           -1.008513187354     1.945139495934    -0.000028517273     1.007825032230
         H            0.569049812646    -2.572947504066    -0.000058517273     1.007825032230
         H            3.151911812646    -0.299531504066    -0.879086517273     1.007825032230
         H            3.151886812646    -0.299400504066     0.879091482727     1.007825032230
         H            2.921234812646    -1.828210504066     0.000111482727     1.007825032230

  Basis Set: AUG-CC-PVTZ
    Blend: AUG-CC-PVTZ
  Basis Set: (AUG-CC-PVTZ AUX)
    Blend: AUG-CC-PVTZ-JKFIT
	 Reference Energy          =    -451.6601498611697707 [Eh]
	 Singles Energy            =      -0.0000000000000000 [Eh]
	 Same-Spin Energy          =      -0.4580178176976377 [Eh]
	 Opposite-Spin Energy      =      -1.3834651692031148 [Eh]
	 Correlation Energy        =      -1.8414829869007525 [Eh]
	 Total Energy              =    -453.5016328480705283 [Eh]

	 ================> DF-SCS-MP2 Energies <==================
	-----------------------------------------------------------
	 SCS Same-Spin Scale       =       0.3333333333333333 [-]
	 SCS Opposite-Spin Scale   =       1.2000000000000000 [-]
	 SCS Same-Spin Energy      =      -0.1526726058992126 [Eh]
	 SCS Opposite-Spin Energy  =      -1.6601582030437376 [Eh]
	 SCS Correlation Energy    =      -1.8128308089429501 [Eh]
	 SCS Total Energy          =    -453.4729806701127472 [Eh]
	-----------------------------------------------------------

  Dipole Moment: [D]
     X:     1.0911      Y:    -4.0809      Z:    -0.0001     Total:     4.2243

*** Psi4 exiting successfully. Buy a developer a beer!
