                               Psi4 1.3.2 release

  ==> Input File <==

--------------------------------------------------------------------------
#psi4
#
memory 32 gb

molecule  {
0 1
  C        0.0000010     0.5882480    -0.0000070
  C        1.2686090    -0.2604710    -0.0000080
  C       -1.2686110    -0.2604730     0.0000140
  H        0.0000040     1.2451810     0.8772640
  H       -0.0000064     1.1252838    -0.7172009
  H        1.3058050    -0.9047420     0.8839990
  H        1.3057540    -0.9048120    -0.8839650
  H        2.1678120     0.3624640    -0.0000560
  H       -2.1678060     0.3624710     0.0000180
  H       -1.3057710    -0.9047670     0.8840050
  H       -1.3057890    -0.9047820    -0.8839660
units angstrom
no_reorient  #important for SAPT in psi4, default
symmetry c1  #important for SAPT in psi4, default
}

set PROPERTIES_ORIGIN ["COM"]
properties('MP2/aug-cc-pvtz', properties = ['dipole'])
--------------------------------------------------------------------------

    Molecular point group: c1
  Charge       = 0
  Multiplicity = 1
  Basis Set: AUG-CC-PVTZ
    Blend: AUG-CC-PVTZ
  Basis Set: (AUG-CC-PVTZ AUX)
    Blend: AUG-CC-PVTZ-JKFIT

    Orbital Energies [Eh]
    ---------------------

    Doubly Occupied:

       1A    -11.207963     2A    -11.207962     3A    -11.191303
       4A     -1.063616     5A     -0.922377     6A     -0.824384
       7A     -0.637512     8A     -0.596608     9A     -0.547739
      10A     -0.528605    11A     -0.490672    12A     -0.472523
      13A     -0.469856

  @DF-RHF Final Energy:  -118.27467969031646

   => Energetics <=

    Nuclear Repulsion Energy =             83.5213943498593210
    One-Electron Energy =                -323.2699079839667320
    Two-Electron Energy =                 121.4738339437909502
    Total Energy =                       -118.2746796903164608
  Basis Set: (AUG-CC-PVTZ AUX)
    Blend: AUG-CC-PVTZ-RI
    Molecular point group: c1

    Geometry (in Angstrom), charge = 0, multiplicity = 1:

       Center              X                  Y                   Z               Mass
    ------------   -----------------  -----------------  -----------------  -----------------
         C            0.000001212871     0.581896881275    -0.003668583108    12.000000000000
         C            1.268609212871    -0.266822118725    -0.003669583108    12.000000000000
         C           -1.268610787129    -0.266824118725    -0.003647583108    12.000000000000
         H            0.000004212871     1.238829881275     0.873602416892     1.007825032230
         H           -0.000006187129     1.118932681275    -0.720862483108     1.007825032230
         H            1.305805212871    -0.911093118725     0.880337416892     1.007825032230
         H            1.305754212871    -0.911163118725    -0.887626583108     1.007825032230
         H            2.167812212871     0.356112881275    -0.003717583108     1.007825032230
         H           -2.167805787129     0.356119881275    -0.003643583108     1.007825032230
         H           -1.305770787129    -0.911118118725     0.880343416892     1.007825032230
         H           -1.305788787129    -0.911133118725    -0.887627583108     1.007825032230

  Basis Set: AUG-CC-PVTZ
    Blend: AUG-CC-PVTZ
  Basis Set: (AUG-CC-PVTZ AUX)
    Blend: AUG-CC-PVTZ-JKFIT
	 Reference Energy          =    -118.2746796903164608 [Eh]
	 Singles Energy            =      -0.0000000000000000 [Eh]
	 Same-Spin Energy          =      -0.1228234675909015 [Eh]
	 Opposite-Spin Energy      =      -0.4850322454795624 [Eh]
	 Correlation Energy        =      -0.6078557130704638 [Eh]
	 Total Energy              =    -118.8825354033869246 [Eh]

	 ================> DF-SCS-MP2 Energies <==================
	-----------------------------------------------------------
	 SCS Same-Spin Scale       =       0.3333333333333333 [-]
	 SCS Opposite-Spin Scale   =       1.2000000000000000 [-]
	 SCS Same-Spin Energy      =      -0.0409411558636338 [Eh]
	 SCS Opposite-Spin Energy  =      -0.5820386945754749 [Eh]
	 SCS Correlation Energy    =      -0.6229798504391086 [Eh]
	 SCS Total Energy          =    -118.8976595407555692 [Eh]
	-----------------------------------------------------------

  Dipole Moment: [D]
     X:    -0.0000      Y:     0.1790      Z:    -0.0754     Total:     0.1943

*** Psi4 exiting successfully. Buy a developer a beer!
