                               Psi4 1.3.2 release

  ==> Input File <==

--------------------------------------------------------------------------
#psi4
#
memory 32 gb

molecule  {
0 1
  C        0.0000010     0.5882480    -0.0000070
  C        1.2686090    -0.2604710    -0.0000080
  C       -1.4348406    -0.3716832     0.0000168
  H        0.0000040     1.2451810     0.8772640
  H       -0.0000080     1.2451610    -0.8772930
  H        1.3058050    -0.9047420     0.8839990
  H        1.3057540    -0.9048120    -0.8839650
  H        2.1678120     0.3624640    -0.0000560
  H       -2.1678060     0.3624710     0.0000180
  H       -1.3057710    -0.9047670     0.8840050
  H       -1.3057890    -0.9047820    -0.8839660
units angstrom
no_reorient  #important for SAPT in psi4, default
symmetry c1  #important for SAPT in psi4, default
}

set PROPERTIES_ORIGIN ["COM"]
properties('MP2/aug-cc-pvtz', properties = ['dipole'])
--------------------------------------------------------------------------

    Molecular point group: c1
  Charge       = 0
  Multiplicity = 1
  Basis Set: AUG-CC-PVTZ
    Blend: AUG-CC-PVTZ
  Basis Set: (AUG-CC-PVTZ AUX)
    Blend: AUG-CC-PVTZ-JKFIT

    Orbital Energies [Eh]
    ---------------------

    Doubly Occupied:

       1A    -11.224589     2A    -11.210067     3A    -11.206214
       4A     -1.031428     5A     -0.928485     6A     -0.800338
       7A     -0.620949     8A     -0.598826     9A     -0.553089
      10A     -0.551650    11A     -0.490220    12A     -0.476108
      13A     -0.417683

  @DF-RHF Final Energy:  -118.28115934803725

   => Energetics <=

    Nuclear Repulsion Energy =             80.7551298260973880
    One-Electron Energy =                -317.8532883718950188
    Two-Electron Energy =                 118.8169991977603672
    Total Energy =                       -118.2811593480372494
  Basis Set: (AUG-CC-PVTZ AUX)
    Blend: AUG-CC-PVTZ-RI
    Molecular point group: c1

    Geometry (in Angstrom), charge = 0, multiplicity = 1:

       Center              X                  Y                   Z               Mass
    ------------   -----------------  -----------------  -----------------  -----------------
         C            0.045272186460     0.609441945568    -0.000007627447    12.000000000000
         C            1.313880186460    -0.239277054432    -0.000008627447    12.000000000000
         C           -1.389569413540    -0.350489254432     0.000016172553    12.000000000000
         H            0.045275186460     1.266374945568     0.877263372553     1.007825032230
         H            0.045263186460     1.266354945568    -0.877293627447     1.007825032230
         H            1.351076186460    -0.883548054432     0.883998372553     1.007825032230
         H            1.351025186460    -0.883618054432    -0.883965627447     1.007825032230
         H            2.213083186460     0.383657945568    -0.000056627447     1.007825032230
         H           -2.122534813540     0.383664945568     0.000017372553     1.007825032230
         H           -1.260499813540    -0.883573054432     0.884004372553     1.007825032230
         H           -1.260517813540    -0.883588054432    -0.883966627447     1.007825032230

  Basis Set: AUG-CC-PVTZ
    Blend: AUG-CC-PVTZ
  Basis Set: (AUG-CC-PVTZ AUX)
    Blend: AUG-CC-PVTZ-JKFIT
	 Reference Energy          =    -118.2811593480372494 [Eh]
	 Singles Energy            =      -0.0000000000000000 [Eh]
	 Same-Spin Energy          =      -0.1226268077995069 [Eh]
	 Opposite-Spin Energy      =      -0.4868471357937496 [Eh]
	 Correlation Energy        =      -0.6094739435932565 [Eh]
	 Total Energy              =    -118.8906332916305075 [Eh]

	 ================> DF-SCS-MP2 Energies <==================
	-----------------------------------------------------------
	 SCS Same-Spin Scale       =       0.3333333333333333 [-]
	 SCS Opposite-Spin Scale   =       1.2000000000000000 [-]
	 SCS Same-Spin Energy      =      -0.0408756025998356 [Eh]
	 SCS Opposite-Spin Energy  =      -0.5842165629524995 [Eh]
	 SCS Correlation Energy    =      -0.6250921655523350 [Eh]
	 SCS Total Energy          =    -118.9062515135895808 [Eh]
	-----------------------------------------------------------

  Dipole Moment: [D]
     X:     0.0819      Y:     0.1147      Z:    -0.0000     Total:     0.1410

*** Psi4 exiting successfully. Buy a developer a beer!
