                               Psi4 1.3.2 release

  ==> Input File <==

--------------------------------------------------------------------------
#psi4
#
memory 32 gb

molecule  {
0 1
  C        0.0000010     0.5882480    -0.0000070
  C        1.2686090    -0.2604710    -0.0000080
  C       -1.2686110    -0.2604730     0.0000140
  H        0.0000046     1.1823854     0.9209523
  H       -0.0000080     1.2451610    -0.8772930
  H        1.3058050    -0.9047420     0.8839990
  H        1.3057540    -0.9048120    -0.8839650
  H        2.1678120     0.3624640    -0.0000560
  H       -2.1678060     0.3624710     0.0000180
  H       -1.3057710    -0.9047670     0.8840050
  H       -1.3057890    -0.9047820    -0.8839660
units angstrom
no_reorient  #important for SAPT in psi4, default
symmetry c1  #important for SAPT in psi4, default
}

set PROPERTIES_ORIGIN ["COM"]
properties('MP2/aug-cc-pvtz', properties = ['dipole'])
--------------------------------------------------------------------------

    Molecular point group: c1
  Charge       = 0
  Multiplicity = 1
  Basis Set: AUG-CC-PVTZ
    Blend: AUG-CC-PVTZ
  Basis Set: (AUG-CC-PVTZ AUX)
    Blend: AUG-CC-PVTZ-JKFIT

    Orbital Energies [Eh]
    ---------------------

    Doubly Occupied:

       1A    -11.217470     2A    -11.209363     3A    -11.209329
       4A     -1.052882     5A     -0.923829     6A     -0.796476
       7A     -0.627505     8A     -0.595159     9A     -0.548797
      10A     -0.529878    11A     -0.474579    12A     -0.472688
      13A     -0.468113

  @DF-RHF Final Energy:  -118.30753997796853

   => Energetics <=

    Nuclear Repulsion Energy =             82.6190878172949539
    One-Electron Energy =                -321.6011199734521711
    Two-Electron Energy =                 120.6744921781887001
    Total Energy =                       -118.3075399779685313
  Basis Set: (AUG-CC-PVTZ AUX)
    Blend: AUG-CC-PVTZ-RI
    Molecular point group: c1

    Geometry (in Angstrom), charge = 0, multiplicity = 1:

       Center              X                  Y                   Z               Mass
    ------------   -----------------  -----------------  -----------------  -----------------
         C            0.000001235744     0.580591278223    -0.001006128718    12.000000000000
         C            1.268609235744    -0.268127721777    -0.001007128718    12.000000000000
         C           -1.268610764256    -0.268129721777    -0.000985128718    12.000000000000
         H            0.000004835744     1.174728678223     0.919953171282     1.007825032230
         H           -0.000007764256     1.237504278223    -0.878292128718     1.007825032230
         H            1.305805235744    -0.912398721777     0.882999871282     1.007825032230
         H            1.305754235744    -0.912468721777    -0.884964128718     1.007825032230
         H            2.167812235744     0.354807278223    -0.001055128718     1.007825032230
         H           -2.167805764256     0.354814278223    -0.000981128718     1.007825032230
         H           -1.305770764256    -0.912423721777     0.883005871282     1.007825032230
         H           -1.305788764256    -0.912438721777    -0.884965128718     1.007825032230

  Basis Set: AUG-CC-PVTZ
    Blend: AUG-CC-PVTZ
  Basis Set: (AUG-CC-PVTZ AUX)
    Blend: AUG-CC-PVTZ-JKFIT
	 Reference Energy          =    -118.3075399779685313 [Eh]
	 Singles Energy            =      -0.0000000000000000 [Eh]
	 Same-Spin Energy          =      -0.1226571447282108 [Eh]
	 Opposite-Spin Energy      =      -0.4855829381966081 [Eh]
	 Correlation Energy        =      -0.6082400829248189 [Eh]
	 Total Energy              =    -118.9157800608933542 [Eh]

	 ================> DF-SCS-MP2 Energies <==================
	-----------------------------------------------------------
	 SCS Same-Spin Scale       =       0.3333333333333333 [-]
	 SCS Opposite-Spin Scale   =       1.2000000000000000 [-]
	 SCS Same-Spin Energy      =      -0.0408857149094036 [Eh]
	 SCS Opposite-Spin Energy  =      -0.5826995258359297 [Eh]
	 SCS Correlation Energy    =      -0.6235852407453333 [Eh]
	 SCS Total Energy          =    -118.9311252187138592 [Eh]
	-----------------------------------------------------------

  Dipole Moment: [D]
     X:     0.0000      Y:     0.0774      Z:     0.0099     Total:     0.0780

*** Psi4 exiting successfully. Buy a developer a beer!
