                               Psi4 1.3.2 release

  ==> Input File <==

--------------------------------------------------------------------------
#psi4
#
memory 32 gb

molecule  {
0 1
  C        0.0000010     0.5882480    -0.0000070
  C        1.1729441    -0.3884273    -0.0000057
  C       -1.2686110    -0.2604730     0.0000140
  H        0.0000040     1.2451810     0.8772640
  H       -0.0000080     1.2451610    -0.8772930
  H        1.3058050    -0.9047420     0.8839990
  H        1.3057540    -0.9048120    -0.8839650
  H        2.1678120     0.3624640    -0.0000560
  H       -2.1678060     0.3624710     0.0000180
  H       -1.3057710    -0.9047670     0.8840050
  H       -1.3057890    -0.9047820    -0.8839660
units angstrom
no_reorient  #important for SAPT in psi4, default
symmetry c1  #important for SAPT in psi4, default
}

set PROPERTIES_ORIGIN ["COM"]
properties('MP2/aug-cc-pvtz', properties = ['dipole'])
--------------------------------------------------------------------------

    Molecular point group: c1
  Charge       = 0
  Multiplicity = 1
  Basis Set: AUG-CC-PVTZ
    Blend: AUG-CC-PVTZ
  Basis Set: (AUG-CC-PVTZ AUX)
    Blend: AUG-CC-PVTZ-JKFIT

    Orbital Energies [Eh]
    ---------------------

    Doubly Occupied:

       1A    -11.219525     2A    -11.213895     3A    -11.207874
       4A     -1.056258     5A     -0.921550     6A     -0.803613
       7A     -0.638383     8A     -0.587750     9A     -0.551758
      10A     -0.538578    11A     -0.486519    12A     -0.477358
      13A     -0.433804

  @DF-RHF Final Energy:  -118.28456202687312

   => Energetics <=

    Nuclear Repulsion Energy =             82.9217632347096583
    One-Electron Energy =                -322.1389196870116507
    Two-Electron Energy =                 120.9325944254288743
    Total Energy =                       -118.2845620268731182
  Basis Set: (AUG-CC-PVTZ AUX)
    Blend: AUG-CC-PVTZ-RI
    Molecular point group: c1

    Geometry (in Angstrom), charge = 0, multiplicity = 1:

       Center              X                  Y                   Z               Mass
    ------------   -----------------  -----------------  -----------------  -----------------
         C            0.026054609761     0.614002575191    -0.000007491277    12.000000000000
         C            1.198997709761    -0.362672724809    -0.000006191277    12.000000000000
         C           -1.242557390239    -0.234718424809     0.000013508723    12.000000000000
         H            0.026057609761     1.270935575191     0.877263508723     1.007825032230
         H            0.026045609761     1.270915575191    -0.877293491277     1.007825032230
         H            1.331858609761    -0.878987424809     0.883998508723     1.007825032230
         H            1.331807609761    -0.879057424809    -0.883965491277     1.007825032230
         H            2.193865609761     0.388218575191    -0.000056491277     1.007825032230
         H           -2.141752390239     0.388225575191     0.000017508723     1.007825032230
         H           -1.279717390239    -0.879012424809     0.884004508723     1.007825032230
         H           -1.279735390239    -0.879027424809    -0.883966491277     1.007825032230

  Basis Set: AUG-CC-PVTZ
    Blend: AUG-CC-PVTZ
  Basis Set: (AUG-CC-PVTZ AUX)
    Blend: AUG-CC-PVTZ-JKFIT
	 Reference Energy          =    -118.2845620268731182 [Eh]
	 Singles Energy            =      -0.0000000000000000 [Eh]
	 Same-Spin Energy          =      -0.1230573955578104 [Eh]
	 Opposite-Spin Energy      =      -0.4868227602973041 [Eh]
	 Correlation Energy        =      -0.6098801558551146 [Eh]
	 Total Energy              =    -118.8944421827282270 [Eh]

	 ================> DF-SCS-MP2 Energies <==================
	-----------------------------------------------------------
	 SCS Same-Spin Scale       =       0.3333333333333333 [-]
	 SCS Opposite-Spin Scale   =       1.2000000000000000 [-]
	 SCS Same-Spin Energy      =      -0.0410191318526035 [Eh]
	 SCS Opposite-Spin Energy  =      -0.5841873123567649 [Eh]
	 SCS Correlation Energy    =      -0.6252064442093683 [Eh]
	 SCS Total Energy          =    -118.9097684710824865 [Eh]
	-----------------------------------------------------------

  Dipole Moment: [D]
     X:    -0.0622      Y:     0.0457      Z:     0.0000     Total:     0.0772

*** Psi4 exiting successfully. Buy a developer a beer!
