                               Psi4 1.3.2 release

  ==> Input File <==

--------------------------------------------------------------------------
#psi4
#
memory 32 gb

molecule  {
0 1
  C        0.0000010     0.5882480    -0.0000070
  C        1.2536036    -0.2824820    -0.0000076
  C       -1.2686110    -0.2604730     0.0000140
  H        0.0000040     1.2451810     0.8772640
  H       -0.0000080     1.2451610    -0.8772930
  H        1.3058050    -0.9047420     0.8839990
  H        1.3057540    -0.9048120    -0.8839650
  H        2.1678120     0.3624640    -0.0000560
  H       -2.1678060     0.3624710     0.0000180
  H       -1.3057710    -0.9047670     0.8840050
  H       -1.3057890    -0.9047820    -0.8839660
units angstrom
no_reorient  #important for SAPT in psi4, default
symmetry c1  #important for SAPT in psi4, default
}

set PROPERTIES_ORIGIN ["COM"]
properties('MP2/aug-cc-pvtz', properties = ['dipole'])
--------------------------------------------------------------------------

    Molecular point group: c1
  Charge       = 0
  Multiplicity = 1
  Basis Set: AUG-CC-PVTZ
    Blend: AUG-CC-PVTZ
  Basis Set: (AUG-CC-PVTZ AUX)
    Blend: AUG-CC-PVTZ-JKFIT

    Orbital Energies [Eh]
    ---------------------

    Doubly Occupied:

       1A    -11.217393     2A    -11.209773     3A    -11.209256
       4A     -1.052665     5A     -0.923136     6A     -0.798951
       7A     -0.625185     8A     -0.593318     9A     -0.548051
      10A     -0.533632    11A     -0.476841    12A     -0.469482
      13A     -0.468382

  @DF-RHF Final Energy:  -118.30737720556041

   => Energetics <=

    Nuclear Repulsion Energy =             82.6342879607316121
    One-Electron Energy =                -321.6312002644206132
    Two-Electron Energy =                 120.6895350981285731
    Total Energy =                       -118.3073772055604138
  Basis Set: (AUG-CC-PVTZ AUX)
    Blend: AUG-CC-PVTZ-RI
    Molecular point group: c1

    Geometry (in Angstrom), charge = 0, multiplicity = 1:

       Center              X                  Y                   Z               Mass
    ------------   -----------------  -----------------  -----------------  -----------------
         C            0.004087817190     0.585149452757    -0.000006973832    12.000000000000
         C            1.257690417190    -0.285580547243    -0.000007573832    12.000000000000
         C           -1.264524182810    -0.263571547243     0.000014026168    12.000000000000
         H            0.004090817190     1.242082452757     0.877264026168     1.007825032230
         H            0.004078817190     1.242062452757    -0.877292973832     1.007825032230
         H            1.309891817190    -0.907840547243     0.883999026168     1.007825032230
         H            1.309840817190    -0.907910547243    -0.883964973832     1.007825032230
         H            2.171898817190     0.359365452757    -0.000055973832     1.007825032230
         H           -2.163719182810     0.359372452757     0.000018026168     1.007825032230
         H           -1.301684182810    -0.907865547243     0.884005026168     1.007825032230
         H           -1.301702182810    -0.907880547243    -0.883965973832     1.007825032230

  Basis Set: AUG-CC-PVTZ
    Blend: AUG-CC-PVTZ
  Basis Set: (AUG-CC-PVTZ AUX)
    Blend: AUG-CC-PVTZ-JKFIT
	 Reference Energy          =    -118.3073772055604138 [Eh]
	 Singles Energy            =      -0.0000000000000000 [Eh]
	 Same-Spin Energy          =      -0.1226458711126177 [Eh]
	 Opposite-Spin Energy      =      -0.4855450392834437 [Eh]
	 Correlation Energy        =      -0.6081909103960614 [Eh]
	 Total Energy              =    -118.9155681159564750 [Eh]

	 ================> DF-SCS-MP2 Energies <==================
	-----------------------------------------------------------
	 SCS Same-Spin Scale       =       0.3333333333333333 [-]
	 SCS Opposite-Spin Scale   =       1.2000000000000000 [-]
	 SCS Same-Spin Energy      =      -0.0408819570375392 [Eh]
	 SCS Opposite-Spin Energy  =      -0.5826540471401325 [Eh]
	 SCS Correlation Energy    =      -0.6235360041776717 [Eh]
	 SCS Total Energy          =    -118.9309132097380797 [Eh]
	-----------------------------------------------------------

  Dipole Moment: [D]
     X:    -0.0029      Y:     0.0808      Z:     0.0000     Total:     0.0808

*** Psi4 exiting successfully. Buy a developer a beer!
