                               Psi4 1.4a3.dev225

  ==> Input File <==

--------------------------------------------------------------------------
#psi4
#
memory 32 gb

molecule  {
0 1
  C        0.0000000     0.5883640    -0.0000100
  C        1.2682510    -0.2604390    -0.0000090
  C       -1.2266985    -0.2326291     0.0000171
  H        0.0000090     1.2456610     0.8770720
  H       -0.0000090     1.2456310    -0.8771150
  H        1.3048980    -0.9049500     0.8838910
  H        1.3048740    -0.9049890    -0.8838810
  H        2.1678780     0.3618350    -0.0000340
  H       -2.1678780     0.3618350     0.0000190
  H       -1.3048760    -0.9049560     0.8839140
  H       -1.3048960    -0.9049840    -0.8838580
units angstrom
no_reorient  #important for SAPT in psi4, default
symmetry c1  #important for SAPT in psi4, default
}

set PROPERTIES_ORIGIN ["COM"]
properties('MP2/aug-cc-pvtz', properties = ['dipole'])
--------------------------------------------------------------------------

    Molecular point group: c1
  Charge       = 0
  Multiplicity = 1
  Basis Set: AUG-CC-PVTZ
    Blend: AUG-CC-PVTZ
  Basis Set: (AUG-CC-PVTZ AUX)
    Blend: AUG-CC-PVTZ-JKFIT

    Orbital Energies [Eh]
    ---------------------

    Doubly Occupied:

       1A    -11.215231     2A    -11.212538     3A    -11.209962
       4A     -1.060404     5A     -0.923365     6A     -0.797277
       7A     -0.625194     8A     -0.599687     9A     -0.549978
      10A     -0.524923    11A     -0.486361    12A     -0.467697
      13A     -0.462245

  @DF-RHF Final Energy:  -118.30517942574170

   => Energetics <=

    Nuclear Repulsion Energy =             83.0874276914059351
    One-Electron Energy =                -322.5154928212109553
    Two-Electron Energy =                 121.1228857040633216
    Total Energy =                       -118.3051794257416987
  Basis Set: (AUG-CC-PVTZ AUX)
    Blend: AUG-CC-PVTZ-RI
    Molecular point group: c1

    Geometry (in Angstrom), charge = 0, multiplicity = 1:

       Center              X                  Y                   Z               Mass
    ------------   -----------------  -----------------  -----------------  -----------------
         C           -0.011316399783     0.571672626656    -0.000009665535    12.000000000000
         C            1.256934600217    -0.277130373344    -0.000008665535    12.000000000000
         C           -1.238014899783    -0.249320473344     0.000017434465    12.000000000000
         H           -0.011307399783     1.228969626656     0.877072334465     1.007825032230
         H           -0.011325399783     1.228939626656    -0.877114665535     1.007825032230
         H            1.293581600217    -0.921641373344     0.883891334465     1.007825032230
         H            1.293557600217    -0.921680373344    -0.883880665535     1.007825032230
         H            2.156561600217     0.345143626656    -0.000033665535     1.007825032230
         H           -2.179194399783     0.345143626656     0.000019334465     1.007825032230
         H           -1.316192399783    -0.921647373344     0.883914334465     1.007825032230
         H           -1.316212399783    -0.921675373344    -0.883857665535     1.007825032230

  Basis Set: AUG-CC-PVTZ
    Blend: AUG-CC-PVTZ
  Basis Set: (AUG-CC-PVTZ AUX)
    Blend: AUG-CC-PVTZ-JKFIT
	 Reference Energy          =    -118.3051794257416987 [Eh]
	 Singles Energy            =      -0.0000000000000000 [Eh]
	 Same-Spin Energy          =      -0.1230154920140812 [Eh]
	 Opposite-Spin Energy      =      -0.4858798737929084 [Eh]
	 Correlation Energy        =      -0.6088953658069896 [Eh]
	 Total Energy              =    -118.9140747915486855 [Eh]

	 ================> DF-SCS-MP2 Energies <==================
	-----------------------------------------------------------
	 SCS Same-Spin Scale       =       0.3333333333333333 [-]
	 SCS Opposite-Spin Scale   =       1.2000000000000000 [-]
	 SCS Same-Spin Energy      =      -0.0410051640046937 [Eh]
	 SCS Opposite-Spin Energy  =      -0.5830558485514901 [Eh]
	 SCS Correlation Energy    =      -0.6240610125561837 [Eh]
	 SCS Total Energy          =    -118.9292404382978816 [Eh]
	-----------------------------------------------------------

  Dipole Moment: [D]
     X:     0.0021      Y:     0.0949      Z:    -0.0000     Total:     0.0949

*** Psi4 exiting successfully. Buy a developer a beer!
