                               Psi4 1.4a3.dev225

  ==> Input File <==

--------------------------------------------------------------------------
#psi4
#
memory 32 gb

molecule  {
0 1
  C        0.0000000     0.5883640    -0.0000100
  C        1.2682510    -0.2604390    -0.0000090
  C       -1.2682510    -0.2604390     0.0000180
  H        0.0000090     1.2456610     0.8770720
  H       -0.0000092     1.2576244    -0.8931199
  H        1.3048980    -0.9049500     0.8838910
  H        1.3048740    -0.9049890    -0.8838810
  H        2.1678780     0.3618350    -0.0000340
  H       -2.1678780     0.3618350     0.0000190
  H       -1.3048760    -0.9049560     0.8839140
  H       -1.3048960    -0.9049840    -0.8838580
units angstrom
no_reorient  #important for SAPT in psi4, default
symmetry c1  #important for SAPT in psi4, default
}

set PROPERTIES_ORIGIN ["COM"]
properties('MP2/aug-cc-pvtz', properties = ['dipole'])
--------------------------------------------------------------------------

    Molecular point group: c1
  Charge       = 0
  Multiplicity = 1
  Basis Set: AUG-CC-PVTZ
    Blend: AUG-CC-PVTZ
  Basis Set: (AUG-CC-PVTZ AUX)
    Blend: AUG-CC-PVTZ-JKFIT

    Orbital Energies [Eh]
    ---------------------

    Doubly Occupied:

       1A    -11.219832     2A    -11.209988     3A    -11.209958
       4A     -1.051744     5A     -0.924077     6A     -0.796515
       7A     -0.622027     8A     -0.596733     9A     -0.549067
      10A     -0.529965    11A     -0.475006    12A     -0.474311
      13A     -0.465457

  @DF-RHF Final Energy:  -118.30766692301729

   => Energetics <=

    Nuclear Repulsion Energy =             82.5087615197613644
    One-Electron Energy =                -321.3834984920162015
    Two-Electron Energy =                 120.5670700492375289
    Total Energy =                       -118.3076669230172939
  Basis Set: (AUG-CC-PVTZ AUX)
    Blend: AUG-CC-PVTZ-RI
    Molecular point group: c1

    Geometry (in Angstrom), charge = 0, multiplicity = 1:

       Center              X                  Y                   Z               Mass
    ------------   -----------------  -----------------  -----------------  -----------------
         C            0.000000004575     0.578972049508     0.000356162600    12.000000000000
         C            1.268251004575    -0.269830950492     0.000357162600    12.000000000000
         C           -1.268250995425    -0.269830950492     0.000384162600    12.000000000000
         H            0.000009004575     1.236269049508     0.877438162600     1.007825032230
         H           -0.000009195425     1.248232449508    -0.892753737400     1.007825032230
         H            1.304898004575    -0.914341950492     0.884257162600     1.007825032230
         H            1.304874004575    -0.914380950492    -0.883514837400     1.007825032230
         H            2.167878004575     0.352443049508     0.000332162600     1.007825032230
         H           -2.167877995425     0.352443049508     0.000385162600     1.007825032230
         H           -1.304875995425    -0.914347950492     0.884280162600     1.007825032230
         H           -1.304895995425    -0.914375950492    -0.883491837400     1.007825032230

  Basis Set: AUG-CC-PVTZ
    Blend: AUG-CC-PVTZ
  Basis Set: (AUG-CC-PVTZ AUX)
    Blend: AUG-CC-PVTZ-JKFIT
	 Reference Energy          =    -118.3076669230172939 [Eh]
	 Singles Energy            =      -0.0000000000000000 [Eh]
	 Same-Spin Energy          =      -0.1226193635770288 [Eh]
	 Opposite-Spin Energy      =      -0.4856066507236217 [Eh]
	 Correlation Energy        =      -0.6082260143006506 [Eh]
	 Total Energy              =    -118.9158929373179490 [Eh]

	 ================> DF-SCS-MP2 Energies <==================
	-----------------------------------------------------------
	 SCS Same-Spin Scale       =       0.3333333333333333 [-]
	 SCS Opposite-Spin Scale   =       1.2000000000000000 [-]
	 SCS Same-Spin Energy      =      -0.0408731211923429 [Eh]
	 SCS Opposite-Spin Energy  =      -0.5827279808683461 [Eh]
	 SCS Correlation Energy    =      -0.6236011020606891 [Eh]
	 SCS Total Energy          =    -118.9312680250779835 [Eh]
	-----------------------------------------------------------

  Dipole Moment: [D]
     X:     0.0000      Y:     0.0759      Z:     0.0112     Total:     0.0767

*** Psi4 exiting successfully. Buy a developer a beer!
