                               Psi4 1.4a3.dev225

  ==> Input File <==

--------------------------------------------------------------------------
#psi4
#
memory 32 gb

molecule  {
0 1
  C        0.0000000     0.5883640    -0.0000100
  C        1.2682510    -0.2604390    -0.0000090
  C       -1.2682510    -0.2604390     0.0000180
  H        0.0000090     1.2456610     0.8770720
  H       -0.0000088     1.2336376    -0.8611101
  H        1.3048980    -0.9049500     0.8838910
  H        1.3048740    -0.9049890    -0.8838810
  H        2.1678780     0.3618350    -0.0000340
  H       -2.1678780     0.3618350     0.0000190
  H       -1.3048760    -0.9049560     0.8839140
  H       -1.3048960    -0.9049840    -0.8838580
units angstrom
no_reorient  #important for SAPT in psi4, default
symmetry c1  #important for SAPT in psi4, default
}

set PROPERTIES_ORIGIN ["COM"]
properties('MP2/aug-cc-pvtz', properties = ['dipole'])
--------------------------------------------------------------------------

    Molecular point group: c1
  Charge       = 0
  Multiplicity = 1
  Basis Set: AUG-CC-PVTZ
    Blend: AUG-CC-PVTZ
  Basis Set: (AUG-CC-PVTZ AUX)
    Blend: AUG-CC-PVTZ-JKFIT

    Orbital Energies [Eh]
    ---------------------

    Doubly Occupied:

       1A    -11.214712     2A    -11.209505     3A    -11.209458
       4A     -1.053077     5A     -0.923668     6A     -0.800341
       7A     -0.624524     8A     -0.596788     9A     -0.548714
      10A     -0.529621    11A     -0.475499    12A     -0.474423
      13A     -0.468424

  @DF-RHF Final Energy:  -118.30816692711034

   => Energetics <=

    Nuclear Repulsion Energy =             82.6714301134678919
    One-Electron Energy =                -321.7016861518755491
    Two-Electron Energy =                 120.7220891112973220
    Total Energy =                       -118.3081669271103351
  Basis Set: (AUG-CC-PVTZ AUX)
    Blend: AUG-CC-PVTZ-RI
    Molecular point group: c1

    Geometry (in Angstrom), charge = 0, multiplicity = 1:

       Center              X                  Y                   Z               Mass
    ------------   -----------------  -----------------  -----------------  -----------------
         C           -0.000000004575     0.579520689337    -0.000375983881    12.000000000000
         C            1.268250995425    -0.269282310663    -0.000374983881    12.000000000000
         C           -1.268251004575    -0.269282310663    -0.000347983881    12.000000000000
         H            0.000008995425     1.236817689337     0.876706016119     1.007825032230
         H           -0.000008804575     1.224794289337    -0.861476083881     1.007825032230
         H            1.304897995425    -0.913793310663     0.883525016119     1.007825032230
         H            1.304873995425    -0.913832310663    -0.884246983881     1.007825032230
         H            2.167877995425     0.352991689337    -0.000399983881     1.007825032230
         H           -2.167878004575     0.352991689337    -0.000346983881     1.007825032230
         H           -1.304876004575    -0.913799310663     0.883548016119     1.007825032230
         H           -1.304896004575    -0.913827310663    -0.884223983881     1.007825032230

  Basis Set: AUG-CC-PVTZ
    Blend: AUG-CC-PVTZ
  Basis Set: (AUG-CC-PVTZ AUX)
    Blend: AUG-CC-PVTZ-JKFIT
	 Reference Energy          =    -118.3081669271103351 [Eh]
	 Singles Energy            =      -0.0000000000000000 [Eh]
	 Same-Spin Energy          =      -0.1226434186818410 [Eh]
	 Opposite-Spin Energy      =      -0.4853894628166586 [Eh]
	 Correlation Energy        =      -0.6080328814984997 [Eh]
	 Total Energy              =    -118.9161998086088374 [Eh]

	 ================> DF-SCS-MP2 Energies <==================
	-----------------------------------------------------------
	 SCS Same-Spin Scale       =       0.3333333333333333 [-]
	 SCS Opposite-Spin Scale   =       1.2000000000000000 [-]
	 SCS Same-Spin Energy      =      -0.0408811395606137 [Eh]
	 SCS Opposite-Spin Energy  =      -0.5824673553799903 [Eh]
	 SCS Correlation Energy    =      -0.6233484949406040 [Eh]
	 SCS Total Energy          =    -118.9315154220509356 [Eh]
	-----------------------------------------------------------

  Dipole Moment: [D]
     X:     0.0000      Y:     0.1005      Z:    -0.0105     Total:     0.1011

*** Psi4 exiting successfully. Buy a developer a beer!
