                               Psi4 1.3.2 release

  ==> Input File <==

--------------------------------------------------------------------------
#psi4
#
memory 32 gb

molecule  {
0 1
  C        0.0000010     0.5882480    -0.0000070
  C        1.2686090    -0.2604710    -0.0000080
  C       -1.2521867    -0.2833498     0.0452388
  H        0.0000040     1.2451810     0.8772640
  H       -0.0000080     1.2451610    -0.8772930
  H        1.3058050    -0.9047420     0.8839990
  H        1.3057540    -0.9048120    -0.8839650
  H        2.1678120     0.3624640    -0.0000560
  H       -2.1678060     0.3624710     0.0000180
  H       -1.3057710    -0.9047670     0.8840050
  H       -1.3057890    -0.9047820    -0.8839660
units angstrom
no_reorient  #important for SAPT in psi4, default
symmetry c1  #important for SAPT in psi4, default
}

set PROPERTIES_ORIGIN ["COM"]
properties('MP2/aug-cc-pvtz', properties = ['dipole'])
--------------------------------------------------------------------------

    Molecular point group: c1
  Charge       = 0
  Multiplicity = 1
  Basis Set: AUG-CC-PVTZ
    Blend: AUG-CC-PVTZ
  Basis Set: (AUG-CC-PVTZ AUX)
    Blend: AUG-CC-PVTZ-JKFIT

    Orbital Energies [Eh]
    ---------------------

    Doubly Occupied:

       1A    -11.217589     2A    -11.210146     3A    -11.209266
       4A     -1.052838     5A     -0.923328     6A     -0.799434
       7A     -0.625625     8A     -0.593000     9A     -0.552434
      10A     -0.530415    11A     -0.479982    12A     -0.467998
      13A     -0.465197

  @DF-RHF Final Energy:  -118.30491257452366

   => Energetics <=

    Nuclear Repulsion Energy =             82.6394848098089909
    One-Electron Energy =                -321.6342896624698824
    Two-Electron Energy =                 120.6898922781372221
    Total Energy =                       -118.3049125745236552
  Basis Set: (AUG-CC-PVTZ AUX)
    Blend: AUG-CC-PVTZ-RI
    Molecular point group: c1

    Geometry (in Angstrom), charge = 0, multiplicity = 1:

       Center              X                  Y                   Z               Mass
    ------------   -----------------  -----------------  -----------------  -----------------
         C           -0.004471741206     0.585385244561    -0.012323378148    12.000000000000
         C            1.264136258794    -0.263333755439    -0.012324378148    12.000000000000
         C           -1.256659441206    -0.286212555439     0.032922421852    12.000000000000
         H           -0.004468741206     1.242318244561     0.864947621852     1.007825032230
         H           -0.004480741206     1.242298244561    -0.889609378148     1.007825032230
         H            1.301332258794    -0.907604755439     0.871682621852     1.007825032230
         H            1.301281258794    -0.907674755439    -0.896281378148     1.007825032230
         H            2.163339258794     0.359601244561    -0.012372378148     1.007825032230
         H           -2.172278741206     0.359608244561    -0.012298378148     1.007825032230
         H           -1.310243741206    -0.907629755439     0.871688621852     1.007825032230
         H           -1.310261741206    -0.907644755439    -0.896282378148     1.007825032230

  Basis Set: AUG-CC-PVTZ
    Blend: AUG-CC-PVTZ
  Basis Set: (AUG-CC-PVTZ AUX)
    Blend: AUG-CC-PVTZ-JKFIT
	 Reference Energy          =    -118.3049125745236552 [Eh]
	 Singles Energy            =      -0.0000000000000000 [Eh]
	 Same-Spin Energy          =      -0.1226770962704309 [Eh]
	 Opposite-Spin Energy      =      -0.4856485354689668 [Eh]
	 Correlation Energy        =      -0.6083256317393977 [Eh]
	 Total Energy              =    -118.9132382062630597 [Eh]

	 ================> DF-SCS-MP2 Energies <==================
	-----------------------------------------------------------
	 SCS Same-Spin Scale       =       0.3333333333333333 [-]
	 SCS Opposite-Spin Scale   =       1.2000000000000000 [-]
	 SCS Same-Spin Energy      =      -0.0408923654234769 [Eh]
	 SCS Opposite-Spin Energy  =      -0.5827782425627601 [Eh]
	 SCS Correlation Energy    =      -0.6236706079862371 [Eh]
	 SCS Total Energy          =    -118.9285831825098967 [Eh]
	-----------------------------------------------------------

  Dipole Moment: [D]
     X:     0.0054      Y:     0.0841      Z:     0.0180     Total:     0.0862

*** Psi4 exiting successfully. Buy a developer a beer!
