                               Psi4 1.4a3.dev225

  ==> Input File <==

--------------------------------------------------------------------------
#psi4
#
memory 32 gb

molecule  {
0 1
  C        0.0000000     0.5883640    -0.0000100
  C        1.2682510    -0.2604390    -0.0000090
  C       -1.2682510    -0.2604390     0.0000180
  H        0.0000090     1.2456610     0.8770720
  H       -0.0000086     1.2156474    -0.8371027
  H        1.3048980    -0.9049500     0.8838910
  H        1.3048740    -0.9049890    -0.8838810
  H        2.1678780     0.3618350    -0.0000340
  H       -2.1678780     0.3618350     0.0000190
  H       -1.3048760    -0.9049560     0.8839140
  H       -1.3048960    -0.9049840    -0.8838580
units angstrom
no_reorient  #important for SAPT in psi4, default
symmetry c1  #important for SAPT in psi4, default
}

set PROPERTIES_ORIGIN ["COM"]
properties('MP2/aug-cc-pvtz', properties = ['dipole'])
--------------------------------------------------------------------------

    Molecular point group: c1
  Charge       = 0
  Multiplicity = 1
  Basis Set: AUG-CC-PVTZ
    Blend: AUG-CC-PVTZ
  Basis Set: (AUG-CC-PVTZ AUX)
    Blend: AUG-CC-PVTZ-JKFIT

    Orbital Energies [Eh]
    ---------------------

    Doubly Occupied:

       1A    -11.210882     2A    -11.209176     3A    -11.209056
       4A     -1.054292     5A     -0.923392     6A     -0.803572
       7A     -0.626538     8A     -0.596800     9A     -0.548483
      10A     -0.529388    11A     -0.477437    12A     -0.474028
      13A     -0.469494

  @DF-RHF Final Energy:  -118.30715924523136

   => Energetics <=

    Nuclear Repulsion Energy =             82.7992878285884473
    One-Electron Energy =                -321.9478193870132259
    Two-Electron Energy =                 120.8413723131934319
    Total Energy =                       -118.3071592452313610
  Basis Set: (AUG-CC-PVTZ AUX)
    Blend: AUG-CC-PVTZ-RI
    Molecular point group: c1

    Geometry (in Angstrom), charge = 0, multiplicity = 1:

       Center              X                  Y                   Z               Mass
    ------------   -----------------  -----------------  -----------------  -----------------
         C           -0.000000009149     0.579932171497    -0.000925094885    12.000000000000
         C            1.268250990851    -0.268870828503    -0.000924094885    12.000000000000
         C           -1.268251009149    -0.268870828503    -0.000897094885    12.000000000000
         H            0.000008990851     1.237229171497     0.876156905115     1.007825032230
         H           -0.000008609149     1.207215571497    -0.838017794885     1.007825032230
         H            1.304897990851    -0.913381828503     0.882975905115     1.007825032230
         H            1.304873990851    -0.913420828503    -0.884796094885     1.007825032230
         H            2.167877990851     0.353403171497    -0.000949094885     1.007825032230
         H           -2.167878009149     0.353403171497    -0.000896094885     1.007825032230
         H           -1.304876009149    -0.913387828503     0.882998905115     1.007825032230
         H           -1.304896009149    -0.913415828503    -0.884773094885     1.007825032230

  Basis Set: AUG-CC-PVTZ
    Blend: AUG-CC-PVTZ
  Basis Set: (AUG-CC-PVTZ AUX)
    Blend: AUG-CC-PVTZ-JKFIT
	 Reference Energy          =    -118.3071592452313610 [Eh]
	 Singles Energy            =      -0.0000000000000000 [Eh]
	 Same-Spin Energy          =      -0.1226637726865063 [Eh]
	 Opposite-Spin Energy      =      -0.4852529996888090 [Eh]
	 Correlation Energy        =      -0.6079167723753153 [Eh]
	 Total Energy              =    -118.9150760176066797 [Eh]

	 ================> DF-SCS-MP2 Energies <==================
	-----------------------------------------------------------
	 SCS Same-Spin Scale       =       0.3333333333333333 [-]
	 SCS Opposite-Spin Scale   =       1.2000000000000000 [-]
	 SCS Same-Spin Energy      =      -0.0408879242288354 [Eh]
	 SCS Opposite-Spin Energy  =      -0.5823035996265707 [Eh]
	 SCS Correlation Energy    =      -0.6231915238554062 [Eh]
	 SCS Total Energy          =    -118.9303507690867718 [Eh]
	-----------------------------------------------------------

  Dipole Moment: [D]
     X:    -0.0000      Y:     0.1173      Z:    -0.0251     Total:     0.1199

*** Psi4 exiting successfully. Buy a developer a beer!
