                               Psi4 1.4a3.dev225

  ==> Input File <==

--------------------------------------------------------------------------
#psi4
#
memory 32 gb

molecule  {
0 1
  C        0.0000000     0.5883640    -0.0000100
  C        1.2682510    -0.2604390    -0.0000090
  C       -1.2848720    -0.2715629     0.0000184
  H        0.0000090     1.2456610     0.8770720
  H       -0.0000090     1.2456310    -0.8771150
  H        1.3048980    -0.9049500     0.8838910
  H        1.3048740    -0.9049890    -0.8838810
  H        2.1678780     0.3618350    -0.0000340
  H       -2.1678780     0.3618350     0.0000190
  H       -1.3048760    -0.9049560     0.8839140
  H       -1.3048960    -0.9049840    -0.8838580
units angstrom
no_reorient  #important for SAPT in psi4, default
symmetry c1  #important for SAPT in psi4, default
}

set PROPERTIES_ORIGIN ["COM"]
properties('MP2/aug-cc-pvtz', properties = ['dipole'])
--------------------------------------------------------------------------

    Molecular point group: c1
  Charge       = 0
  Multiplicity = 1
  Basis Set: AUG-CC-PVTZ
    Blend: AUG-CC-PVTZ
  Basis Set: (AUG-CC-PVTZ AUX)
    Blend: AUG-CC-PVTZ-JKFIT

    Orbital Energies [Eh]
    ---------------------

    Doubly Occupied:

       1A    -11.218073     2A    -11.209666     3A    -11.208791
       4A     -1.049535     5A     -0.924176     6A     -0.798685
       7A     -0.622646     8A     -0.596051     9A     -0.548786
      10A     -0.531996    11A     -0.477112    12A     -0.469581
      13A     -0.468693

  @DF-RHF Final Energy:  -118.30797902549483

   => Energetics <=

    Nuclear Repulsion Energy =             82.3959110202985698
    One-Electron Energy =                -321.1602000593357502
    Two-Electron Energy =                 120.4563100135423497
    Total Energy =                       -118.3079790254948307
  Basis Set: (AUG-CC-PVTZ AUX)
    Blend: AUG-CC-PVTZ-RI
    Molecular point group: c1

    Geometry (in Angstrom), charge = 0, multiplicity = 1:

       Center              X                  Y                   Z               Mass
    ------------   -----------------  -----------------  -----------------  -----------------
         C            0.004526559913     0.582275850189    -0.000010019577    12.000000000000
         C            1.272777559913    -0.266527149811    -0.000009019577    12.000000000000
         C           -1.280345440087    -0.277651049811     0.000018380423    12.000000000000
         H            0.004535559913     1.239572850189     0.877071980423     1.007825032230
         H            0.004517559913     1.239542850189    -0.877115019577     1.007825032230
         H            1.309424559913    -0.911038149811     0.883890980423     1.007825032230
         H            1.309400559913    -0.911077149811    -0.883881019577     1.007825032230
         H            2.172404559913     0.355746850189    -0.000034019577     1.007825032230
         H           -2.163351440087     0.355746850189     0.000018980423     1.007825032230
         H           -1.300349440087    -0.911044149811     0.883913980423     1.007825032230
         H           -1.300369440087    -0.911072149811    -0.883858019577     1.007825032230

  Basis Set: AUG-CC-PVTZ
    Blend: AUG-CC-PVTZ
  Basis Set: (AUG-CC-PVTZ AUX)
    Blend: AUG-CC-PVTZ-JKFIT
	 Reference Energy          =    -118.3079790254948307 [Eh]
	 Singles Energy            =      -0.0000000000000000 [Eh]
	 Same-Spin Energy          =      -0.1225251632430504 [Eh]
	 Opposite-Spin Energy      =      -0.4854254816076708 [Eh]
	 Correlation Energy        =      -0.6079506448507213 [Eh]
	 Total Energy              =    -118.9159296703455482 [Eh]

	 ================> DF-SCS-MP2 Energies <==================
	-----------------------------------------------------------
	 SCS Same-Spin Scale       =       0.3333333333333333 [-]
	 SCS Opposite-Spin Scale   =       1.2000000000000000 [-]
	 SCS Same-Spin Energy      =      -0.0408417210810168 [Eh]
	 SCS Opposite-Spin Energy  =      -0.5825105779292049 [Eh]
	 SCS Correlation Energy    =      -0.6233522990102217 [Eh]
	 SCS Total Energy          =    -118.9313313245050523 [Eh]
	-----------------------------------------------------------

  Dipole Moment: [D]
     X:     0.0015      Y:     0.0874      Z:    -0.0000     Total:     0.0874

*** Psi4 exiting successfully. Buy a developer a beer!
