                               Psi4 1.3.2 release

  ==> Input File <==

--------------------------------------------------------------------------
#psi4
#
memory 32 gb

molecule  {
0 1
  C        0.0000010     0.5882480    -0.0000070
  C        1.2686090    -0.2604710    -0.0000080
  C       -1.2686110    -0.2604730     0.0000140
  H        0.0000041     1.2297705     0.8885954
  H       -0.0000080     1.2451610    -0.8772930
  H        1.3058050    -0.9047420     0.8839990
  H        1.3057540    -0.9048120    -0.8839650
  H        2.1678120     0.3624640    -0.0000560
  H       -2.1678060     0.3624710     0.0000180
  H       -1.3057710    -0.9047670     0.8840050
  H       -1.3057890    -0.9047820    -0.8839660
units angstrom
no_reorient  #important for SAPT in psi4, default
symmetry c1  #important for SAPT in psi4, default
}

set PROPERTIES_ORIGIN ["COM"]
properties('MP2/aug-cc-pvtz', properties = ['dipole'])
--------------------------------------------------------------------------

    Molecular point group: c1
  Charge       = 0
  Multiplicity = 1
  Basis Set: AUG-CC-PVTZ
    Blend: AUG-CC-PVTZ
  Basis Set: (AUG-CC-PVTZ AUX)
    Blend: AUG-CC-PVTZ-JKFIT

    Orbital Energies [Eh]
    ---------------------

    Doubly Occupied:

       1A    -11.217345     2A    -11.209647     3A    -11.209611
       4A     -1.052416     5A     -0.923859     6A     -0.797871
       7A     -0.624305     8A     -0.596268     9A     -0.548860
      10A     -0.529868    11A     -0.474606    12A     -0.473574
      13A     -0.468130

  @DF-RHF Final Energy:  -118.30811698280601

   => Energetics <=

    Nuclear Repulsion Energy =             82.5894267835009970
    One-Electron Energy =                -321.5423686294627714
    Two-Electron Energy =                 120.6448248631557760
    Total Energy =                       -118.3081169828060126
  Basis Set: (AUG-CC-PVTZ AUX)
    Blend: AUG-CC-PVTZ-RI
    Molecular point group: c1

    Geometry (in Angstrom), charge = 0, multiplicity = 1:

       Center              X                  Y                   Z               Mass
    ------------   -----------------  -----------------  -----------------  -----------------
         C            0.000001247180     0.579507459074    -0.000266043167    12.000000000000
         C            1.268609247180    -0.269211540926    -0.000267043167    12.000000000000
         C           -1.268610752820    -0.269213540926    -0.000245043167    12.000000000000
         H            0.000004347180     1.221029959074     0.888336356833     1.007825032230
         H           -0.000007752820     1.236420459074    -0.877552043167     1.007825032230
         H            1.305805247180    -0.913482540926     0.883739956833     1.007825032230
         H            1.305754247180    -0.913552540926    -0.884224043167     1.007825032230
         H            2.167812247180     0.353723459074    -0.000315043167     1.007825032230
         H           -2.167805752820     0.353730459074    -0.000241043167     1.007825032230
         H           -1.305770752820    -0.913507540926     0.883745956833     1.007825032230
         H           -1.305788752820    -0.913522540926    -0.884225043167     1.007825032230

  Basis Set: AUG-CC-PVTZ
    Blend: AUG-CC-PVTZ
  Basis Set: (AUG-CC-PVTZ AUX)
    Blend: AUG-CC-PVTZ-JKFIT
	 Reference Energy          =    -118.3081169828060126 [Eh]
	 Singles Energy            =      -0.0000000000000000 [Eh]
	 Same-Spin Energy          =      -0.1226286836553484 [Eh]
	 Opposite-Spin Energy      =      -0.4855061214394927 [Eh]
	 Correlation Energy        =      -0.6081348050948411 [Eh]
	 Total Energy              =    -118.9162517879008476 [Eh]

	 ================> DF-SCS-MP2 Energies <==================
	-----------------------------------------------------------
	 SCS Same-Spin Scale       =       0.3333333333333333 [-]
	 SCS Opposite-Spin Scale   =       1.2000000000000000 [-]
	 SCS Same-Spin Energy      =      -0.0408762278851161 [Eh]
	 SCS Opposite-Spin Energy  =      -0.5826073457273911 [Eh]
	 SCS Correlation Energy    =      -0.6234835736125073 [Eh]
	 SCS Total Energy          =    -118.9316005564185161 [Eh]
	-----------------------------------------------------------

  Dipole Moment: [D]
     X:     0.0000      Y:     0.0858      Z:     0.0027     Total:     0.0858

*** Psi4 exiting successfully. Buy a developer a beer!
