                               Psi4 1.4a3.dev225

  ==> Input File <==

--------------------------------------------------------------------------
#psi4
#
memory 32 gb

molecule  {
0 1
  C        0.0000000     0.5883640    -0.0000100
  C        1.2682510    -0.2604390    -0.0000090
  C       -1.3098035    -0.2882489     0.0000189
  H        0.0000090     1.2456610     0.8770720
  H       -0.0000090     1.2456310    -0.8771150
  H        1.3048980    -0.9049500     0.8838910
  H        1.3048740    -0.9049890    -0.8838810
  H        2.1678780     0.3618350    -0.0000340
  H       -2.1678780     0.3618350     0.0000190
  H       -1.3048760    -0.9049560     0.8839140
  H       -1.3048960    -0.9049840    -0.8838580
units angstrom
no_reorient  #important for SAPT in psi4, default
symmetry c1  #important for SAPT in psi4, default
}

set PROPERTIES_ORIGIN ["COM"]
properties('MP2/aug-cc-pvtz', properties = ['dipole'])
--------------------------------------------------------------------------

    Molecular point group: c1
  Charge       = 0
  Multiplicity = 1
  Basis Set: AUG-CC-PVTZ
    Blend: AUG-CC-PVTZ
  Basis Set: (AUG-CC-PVTZ AUX)
    Blend: AUG-CC-PVTZ-JKFIT

    Orbital Energies [Eh]
    ---------------------

    Doubly Occupied:

       1A    -11.219225     2A    -11.209619     3A    -11.207628
       4A     -1.045644     5A     -0.924734     6A     -0.799083
       7A     -0.621924     8A     -0.595441     9A     -0.548923
      10A     -0.535493    11A     -0.480295    12A     -0.470626
      13A     -0.461492

  @DF-RHF Final Energy:  -118.30642202026546

   => Energetics <=

    Nuclear Repulsion Energy =             82.1119622188459317
    One-Electron Energy =                -320.5965207277362197
    Two-Electron Energy =                 120.1781364886248440
    Total Energy =                       -118.3064220202654582
  Basis Set: (AUG-CC-PVTZ AUX)
    Blend: AUG-CC-PVTZ-RI
    Molecular point group: c1

    Geometry (in Angstrom), charge = 0, multiplicity = 1:

       Center              X                  Y                   Z               Mass
    ------------   -----------------  -----------------  -----------------  -----------------
         C            0.011316399783     0.586820112190    -0.000010155747    12.000000000000
         C            1.279567399783    -0.261982887810    -0.000009155747    12.000000000000
         C           -1.298487100217    -0.289792787810     0.000018744253    12.000000000000
         H            0.011325399783     1.244117112190     0.877071844253     1.007825032230
         H            0.011307399783     1.244087112190    -0.877115155747     1.007825032230
         H            1.316214399783    -0.906493887810     0.883890844253     1.007825032230
         H            1.316190399783    -0.906532887810    -0.883881155747     1.007825032230
         H            2.179194399783     0.360291112190    -0.000034155747     1.007825032230
         H           -2.156561600217     0.360291112190     0.000018844253     1.007825032230
         H           -1.293559600217    -0.906499887810     0.883913844253     1.007825032230
         H           -1.293579600217    -0.906527887810    -0.883858155747     1.007825032230

  Basis Set: AUG-CC-PVTZ
    Blend: AUG-CC-PVTZ
  Basis Set: (AUG-CC-PVTZ AUX)
    Blend: AUG-CC-PVTZ-JKFIT
	 Reference Energy          =    -118.3064220202654582 [Eh]
	 Singles Energy            =      -0.0000000000000000 [Eh]
	 Same-Spin Energy          =      -0.1224145449690172 [Eh]
	 Opposite-Spin Energy      =      -0.4854125361722852 [Eh]
	 Correlation Energy        =      -0.6078270811413025 [Eh]
	 Total Energy              =    -118.9142491014067673 [Eh]

	 ================> DF-SCS-MP2 Energies <==================
	-----------------------------------------------------------
	 SCS Same-Spin Scale       =       0.3333333333333333 [-]
	 SCS Opposite-Spin Scale   =       1.2000000000000000 [-]
	 SCS Same-Spin Energy      =      -0.0408048483230057 [Eh]
	 SCS Opposite-Spin Energy  =      -0.5824950434067423 [Eh]
	 SCS Correlation Energy    =      -0.6232998917297480 [Eh]
	 SCS Total Energy          =    -118.9297219119952018 [Eh]
	-----------------------------------------------------------

  Dipole Moment: [D]
     X:     0.0063      Y:     0.0871      Z:    -0.0000     Total:     0.0873

*** Psi4 exiting successfully. Buy a developer a beer!
