                               Psi4 1.3.2 release

  ==> Input File <==

--------------------------------------------------------------------------
#psi4
#
memory 32 gb

molecule  {
0 1
  C        0.0000010     0.5882480    -0.0000070
  C        1.2686090    -0.2604710    -0.0000080
  C       -1.1023814    -0.1492628     0.0000112
  H        0.0000040     1.2451810     0.8772640
  H       -0.0000080     1.2451610    -0.8772930
  H        1.3058050    -0.9047420     0.8839990
  H        1.3057540    -0.9048120    -0.8839650
  H        2.1678120     0.3624640    -0.0000560
  H       -2.1678060     0.3624710     0.0000180
  H       -1.3057710    -0.9047670     0.8840050
  H       -1.3057890    -0.9047820    -0.8839660
units angstrom
no_reorient  #important for SAPT in psi4, default
symmetry c1  #important for SAPT in psi4, default
}

set PROPERTIES_ORIGIN ["COM"]
properties('MP2/aug-cc-pvtz', properties = ['dipole'])
--------------------------------------------------------------------------

    Molecular point group: c1
  Charge       = 0
  Multiplicity = 1
  Basis Set: AUG-CC-PVTZ
    Blend: AUG-CC-PVTZ
  Basis Set: (AUG-CC-PVTZ AUX)
    Blend: AUG-CC-PVTZ-JKFIT

    Orbital Energies [Eh]
    ---------------------

    Doubly Occupied:

       1A    -11.224848     2A    -11.211910     3A    -11.208149
       4A     -1.094236     5A     -0.925056     6A     -0.790494
       7A     -0.635654     8A     -0.617555     9A     -0.561411
      10A     -0.518215    11A     -0.509504    12A     -0.438554
      13A     -0.437529

  @DF-RHF Final Energy:  -118.25850209568327

   => Energetics <=

    Nuclear Repulsion Energy =             84.7527096690993744
    One-Electron Energy =                -325.6761923864925734
    Two-Electron Energy =                 122.6649806217099297
    Total Energy =                       -118.2585020956832693
  Basis Set: (AUG-CC-PVTZ AUX)
    Blend: AUG-CC-PVTZ-RI
    Molecular point group: c1

    Geometry (in Angstrom), charge = 0, multiplicity = 1:

       Center              X                  Y                   Z               Mass
    ------------   -----------------  -----------------  -----------------  -----------------
         C           -0.045269687525     0.548868017013    -0.000006102344    12.000000000000
         C            1.223338312475    -0.299850982987    -0.000007102344    12.000000000000
         C           -1.147652087525    -0.188642782987     0.000012097656    12.000000000000
         H           -0.045266687525     1.205801017013     0.877264897656     1.007825032230
         H           -0.045278687525     1.205781017013    -0.877292102344     1.007825032230
         H            1.260534312475    -0.944121982987     0.883999897656     1.007825032230
         H            1.260483312475    -0.944191982987    -0.883964102344     1.007825032230
         H            2.122541312475     0.323084017013    -0.000055102344     1.007825032230
         H           -2.213076687525     0.323091017013     0.000018897656     1.007825032230
         H           -1.351041687525    -0.944146982987     0.884005897656     1.007825032230
         H           -1.351059687525    -0.944161982987    -0.883965102344     1.007825032230

  Basis Set: AUG-CC-PVTZ
    Blend: AUG-CC-PVTZ
  Basis Set: (AUG-CC-PVTZ AUX)
    Blend: AUG-CC-PVTZ-JKFIT
	 Reference Energy          =    -118.2585020956832693 [Eh]
	 Singles Energy            =      -0.0000000000000000 [Eh]
	 Same-Spin Energy          =      -0.1253316788508181 [Eh]
	 Opposite-Spin Energy      =      -0.4890710267165330 [Eh]
	 Correlation Energy        =      -0.6144027055673511 [Eh]
	 Total Energy              =    -118.8729048012506269 [Eh]

	 ================> DF-SCS-MP2 Energies <==================
	-----------------------------------------------------------
	 SCS Same-Spin Scale       =       0.3333333333333333 [-]
	 SCS Opposite-Spin Scale   =       1.2000000000000000 [-]
	 SCS Same-Spin Energy      =      -0.0417772262836060 [Eh]
	 SCS Opposite-Spin Energy  =      -0.5868852320598396 [Eh]
	 SCS Correlation Energy    =      -0.6286624583434456 [Eh]
	 SCS Total Energy          =    -118.8871645540267110 [Eh]
	-----------------------------------------------------------

  Dipole Moment: [D]
     X:     0.0698      Y:     0.1509      Z:    -0.0000     Total:     0.1662

*** Psi4 exiting successfully. Buy a developer a beer!
