                               Psi4 1.3.2 release

  ==> Input File <==

--------------------------------------------------------------------------
#psi4
#
memory 32 gb

molecule  {
0 1
  C        0.0000010     0.5882480    -0.0000070
  C        1.2686090    -0.2604710    -0.0000080
  C       -1.2686110    -0.2604730     0.0000140
  H        0.0000040     1.2451810     0.8772640
  H       -0.0000088     1.3050996    -0.9573390
  H        1.3058050    -0.9047420     0.8839990
  H        1.3057540    -0.9048120    -0.8839650
  H        2.1678120     0.3624640    -0.0000560
  H       -2.1678060     0.3624710     0.0000180
  H       -1.3057710    -0.9047670     0.8840050
  H       -1.3057890    -0.9047820    -0.8839660
units angstrom
no_reorient  #important for SAPT in psi4, default
symmetry c1  #important for SAPT in psi4, default
}

set PROPERTIES_ORIGIN ["COM"]
properties('MP2/aug-cc-pvtz', properties = ['dipole'])
--------------------------------------------------------------------------

    Molecular point group: c1
  Charge       = 0
  Multiplicity = 1
  Basis Set: AUG-CC-PVTZ
    Blend: AUG-CC-PVTZ
  Basis Set: (AUG-CC-PVTZ AUX)
    Blend: AUG-CC-PVTZ-JKFIT

    Orbital Energies [Eh]
    ---------------------

    Doubly Occupied:

       1A    -11.229823     2A    -11.211114     3A    -11.211093
       4A     -1.049848     5A     -0.925043     6A     -0.790412
       7A     -0.617886     8A     -0.596313     9A     -0.549933
      10A     -0.530855    11A     -0.476273    12A     -0.474494
      13A     -0.456545

  @DF-RHF Final Energy:  -118.30190532823465

   => Energetics <=

    Nuclear Repulsion Energy =             82.1982943379916691
    One-Electron Energy =                -320.7611334417888429
    Two-Electron Energy =                 120.2609337755625063
    Total Energy =                       -118.3019053282346533
  Basis Set: (AUG-CC-PVTZ AUX)
    Blend: AUG-CC-PVTZ-RI
    Molecular point group: c1

    Geometry (in Angstrom), charge = 0, multiplicity = 1:

       Center              X                  Y                   Z               Mass
    ------------   -----------------  -----------------  -----------------  -----------------
         C            0.000001267765     0.577784031298     0.001823993067    12.000000000000
         C            1.268609267765    -0.270934968702     0.001822993067    12.000000000000
         C           -1.268610732235    -0.270936968702     0.001844993067    12.000000000000
         H            0.000004267765     1.234717031298     0.879094993067     1.007825032230
         H           -0.000008532235     1.294635631298    -0.955508006933     1.007825032230
         H            1.305805267765    -0.915205968702     0.885829993067     1.007825032230
         H            1.305754267765    -0.915275968702    -0.882134006933     1.007825032230
         H            2.167812267765     0.352000031298     0.001774993067     1.007825032230
         H           -2.167805732235     0.352007031298     0.001848993067     1.007825032230
         H           -1.305770732235    -0.915230968702     0.885835993067     1.007825032230
         H           -1.305788732235    -0.915245968702    -0.882135006933     1.007825032230

  Basis Set: AUG-CC-PVTZ
    Blend: AUG-CC-PVTZ
  Basis Set: (AUG-CC-PVTZ AUX)
    Blend: AUG-CC-PVTZ-JKFIT
	 Reference Energy          =    -118.3019053282346533 [Eh]
	 Singles Energy            =      -0.0000000000000000 [Eh]
	 Same-Spin Energy          =      -0.1225681793057185 [Eh]
	 Opposite-Spin Energy      =      -0.4861287149533839 [Eh]
	 Correlation Energy        =      -0.6086968942591025 [Eh]
	 Total Energy              =    -118.9106022224937504 [Eh]

	 ================> DF-SCS-MP2 Energies <==================
	-----------------------------------------------------------
	 SCS Same-Spin Scale       =       0.3333333333333333 [-]
	 SCS Opposite-Spin Scale   =       1.2000000000000000 [-]
	 SCS Same-Spin Energy      =      -0.0408560597685728 [Eh]
	 SCS Opposite-Spin Energy  =      -0.5833544579440606 [Eh]
	 SCS Correlation Energy    =      -0.6242105177126335 [Eh]
	 SCS Total Energy          =    -118.9261158459472938 [Eh]
	-----------------------------------------------------------

  Dipole Moment: [D]
     X:     0.0000      Y:     0.0190      Z:     0.0624     Total:     0.0652

*** Psi4 exiting successfully. Buy a developer a beer!
