                               Psi4 1.3.2 release

  ==> Input File <==

--------------------------------------------------------------------------
#psi4
#
memory 32 gb

molecule  {
0 1
  C        0.0000010     0.5882480    -0.0000070
  C        1.2686090    -0.2604710    -0.0000080
  C       -1.2834897    -0.2365622    -0.0452108
  H        0.0000040     1.2451810     0.8772640
  H       -0.0000080     1.2451610    -0.8772930
  H        1.3058050    -0.9047420     0.8839990
  H        1.3057540    -0.9048120    -0.8839650
  H        2.1678120     0.3624640    -0.0000560
  H       -2.1678060     0.3624710     0.0000180
  H       -1.3057710    -0.9047670     0.8840050
  H       -1.3057890    -0.9047820    -0.8839660
units angstrom
no_reorient  #important for SAPT in psi4, default
symmetry c1  #important for SAPT in psi4, default
}

set PROPERTIES_ORIGIN ["COM"]
properties('MP2/aug-cc-pvtz', properties = ['dipole'])
--------------------------------------------------------------------------

    Molecular point group: c1
  Charge       = 0
  Multiplicity = 1
  Basis Set: AUG-CC-PVTZ
    Blend: AUG-CC-PVTZ
  Basis Set: (AUG-CC-PVTZ AUX)
    Blend: AUG-CC-PVTZ-JKFIT

    Orbital Energies [Eh]
    ---------------------

    Doubly Occupied:

       1A    -11.217524     2A    -11.210351     3A    -11.210314
       4A     -1.052136     5A     -0.925010     6A     -0.798282
       7A     -0.622110     8A     -0.600506     9A     -0.552252
      10A     -0.524197    11A     -0.480658    12A     -0.475810
      13A     -0.459812

  @DF-RHF Final Energy:  -118.30529922870637

   => Energetics <=

    Nuclear Repulsion Energy =             82.5259210046890956
    One-Electron Energy =                -321.4045209391188109
    Two-Electron Energy =                 120.5733007057233266
    Total Energy =                       -118.3052992287063745
  Basis Set: (AUG-CC-PVTZ AUX)
    Blend: AUG-CC-PVTZ-RI
    Molecular point group: c1

    Geometry (in Angstrom), charge = 0, multiplicity = 1:

       Center              X                  Y                   Z               Mass
    ------------   -----------------  -----------------  -----------------  -----------------
         C            0.004053311737     0.572643118660     0.012309648357    12.000000000000
         C            1.272661311737    -0.276075881340     0.012308648357    12.000000000000
         C           -1.279437388263    -0.252167081340    -0.032894151643    12.000000000000
         H            0.004056311737     1.229576118660     0.889580648357     1.007825032230
         H            0.004044311737     1.229556118660    -0.864976351643     1.007825032230
         H            1.309857311737    -0.920346881340     0.896315648357     1.007825032230
         H            1.309806311737    -0.920416881340    -0.871648351643     1.007825032230
         H            2.171864311737     0.346859118660     0.012260648357     1.007825032230
         H           -2.163753688263     0.346866118660     0.012334648357     1.007825032230
         H           -1.301718688263    -0.920371881340     0.896321648357     1.007825032230
         H           -1.301736688263    -0.920386881340    -0.871649351643     1.007825032230

  Basis Set: AUG-CC-PVTZ
    Blend: AUG-CC-PVTZ
  Basis Set: (AUG-CC-PVTZ AUX)
    Blend: AUG-CC-PVTZ-JKFIT
	 Reference Energy          =    -118.3052992287063745 [Eh]
	 Singles Energy            =      -0.0000000000000000 [Eh]
	 Same-Spin Energy          =      -0.1226555314292096 [Eh]
	 Opposite-Spin Energy      =      -0.4856019254885481 [Eh]
	 Correlation Energy        =      -0.6082574569177577 [Eh]
	 Total Energy              =    -118.9135566856241297 [Eh]

	 ================> DF-SCS-MP2 Energies <==================
	-----------------------------------------------------------
	 SCS Same-Spin Scale       =       0.3333333333333333 [-]
	 SCS Opposite-Spin Scale   =       1.2000000000000000 [-]
	 SCS Same-Spin Energy      =      -0.0408851771430699 [Eh]
	 SCS Opposite-Spin Energy  =      -0.5827223105862577 [Eh]
	 SCS Correlation Energy    =      -0.6236074877293275 [Eh]
	 SCS Total Energy          =    -118.9289067164357050 [Eh]
	-----------------------------------------------------------

  Dipole Moment: [D]
     X:     0.0024      Y:     0.1008      Z:    -0.0233     Total:     0.1035

*** Psi4 exiting successfully. Buy a developer a beer!
