                               Psi4 1.3.2 release

  ==> Input File <==

--------------------------------------------------------------------------
#psi4
#
memory 32 gb

molecule  {
0 1
  C        0.0000010     0.5882480    -0.0000070
  C        1.2686090    -0.2604710    -0.0000080
  C       -1.2686110    -0.2604730     0.0000140
  H        0.0000040     1.2451810     0.8772640
  H       -0.0000072     1.1852224    -0.7972470
  H        1.3058050    -0.9047420     0.8839990
  H        1.3057540    -0.9048120    -0.8839650
  H        2.1678120     0.3624640    -0.0000560
  H       -2.1678060     0.3624710     0.0000180
  H       -1.3057710    -0.9047670     0.8840050
  H       -1.3057890    -0.9047820    -0.8839660
units angstrom
no_reorient  #important for SAPT in psi4, default
symmetry c1  #important for SAPT in psi4, default
}

set PROPERTIES_ORIGIN ["COM"]
properties('MP2/aug-cc-pvtz', properties = ['dipole'])
--------------------------------------------------------------------------

    Molecular point group: c1
  Charge       = 0
  Multiplicity = 1
  Basis Set: AUG-CC-PVTZ
    Blend: AUG-CC-PVTZ
  Basis Set: (AUG-CC-PVTZ AUX)
    Blend: AUG-CC-PVTZ-JKFIT

    Orbital Energies [Eh]
    ---------------------

    Doubly Occupied:

       1A    -11.208730     2A    -11.208698     3A    -11.204194
       4A     -1.056684     5A     -0.922994     6A     -0.809651
       7A     -0.630108     8A     -0.596667     9A     -0.548161
      10A     -0.529129    11A     -0.481745    12A     -0.473365
      13A     -0.470013

  @DF-RHF Final Energy:  -118.30217031613189

   => Energetics <=

    Nuclear Repulsion Energy =             83.0158306815973503
    One-Electron Energy =                -322.3557252430514382
    Two-Electron Energy =                 121.0377242453221953
    Total Energy =                       -118.3021703161318925
  Basis Set: (AUG-CC-PVTZ AUX)
    Blend: AUG-CC-PVTZ-RI
    Molecular point group: c1

    Geometry (in Angstrom), charge = 0, multiplicity = 1:

       Center              X                  Y                   Z               Mass
    ------------   -----------------  -----------------  -----------------  -----------------
         C            0.000001231169     0.580525931283    -0.001837722858    12.000000000000
         C            1.268609231169    -0.268193068717    -0.001838722858    12.000000000000
         C           -1.268610768831    -0.268195068717    -0.001816722858    12.000000000000
         H            0.000004231169     1.237458931283     0.875433277142     1.007825032230
         H           -0.000006968831     1.177500331283    -0.799077722858     1.007825032230
         H            1.305805231169    -0.912464068717     0.882168277142     1.007825032230
         H            1.305754231169    -0.912534068717    -0.885795722858     1.007825032230
         H            2.167812231169     0.354741931283    -0.001886722858     1.007825032230
         H           -2.167805768831     0.354748931283    -0.001812722858     1.007825032230
         H           -1.305770768831    -0.912489068717     0.882174277142     1.007825032230
         H           -1.305788768831    -0.912504068717    -0.885796722858     1.007825032230

  Basis Set: AUG-CC-PVTZ
    Blend: AUG-CC-PVTZ
  Basis Set: (AUG-CC-PVTZ AUX)
    Blend: AUG-CC-PVTZ-JKFIT
	 Reference Energy          =    -118.3021703161318925 [Eh]
	 Singles Energy            =      -0.0000000000000000 [Eh]
	 Same-Spin Energy          =      -0.1226996789089165 [Eh]
	 Opposite-Spin Energy      =      -0.4850842601102482 [Eh]
	 Correlation Energy        =      -0.6077839390191646 [Eh]
	 Total Energy              =    -118.9099542551510638 [Eh]

	 ================> DF-SCS-MP2 Energies <==================
	-----------------------------------------------------------
	 SCS Same-Spin Scale       =       0.3333333333333333 [-]
	 SCS Opposite-Spin Scale   =       1.2000000000000000 [-]
	 SCS Same-Spin Energy      =      -0.0408998929696388 [Eh]
	 SCS Opposite-Spin Energy  =      -0.5821011121322978 [Eh]
	 SCS Correlation Energy    =      -0.6230010051019366 [Eh]
	 SCS Total Energy          =    -118.9251713212338331 [Eh]
	-----------------------------------------------------------

  Dipole Moment: [D]
     X:    -0.0000      Y:     0.1420      Z:    -0.0460     Total:     0.1493

*** Psi4 exiting successfully. Buy a developer a beer!
