                               Psi4 1.3.2 release

  ==> Input File <==

--------------------------------------------------------------------------
#psi4
#
memory 32 gb

molecule  {
0 1
  C        0.0000010     0.5882480    -0.0000070
  C        1.2686090    -0.2604710    -0.0000080
  C       -1.2686110    -0.2604730     0.0000140
  H        0.0000031     1.3332820     0.8037900
  H       -0.0000080     1.2451610    -0.8772930
  H        1.3058050    -0.9047420     0.8839990
  H        1.3057540    -0.9048120    -0.8839650
  H        2.1678120     0.3624640    -0.0000560
  H       -2.1678060     0.3624710     0.0000180
  H       -1.3057710    -0.9047670     0.8840050
  H       -1.3057890    -0.9047820    -0.8839660
units angstrom
no_reorient  #important for SAPT in psi4, default
symmetry c1  #important for SAPT in psi4, default
}

set PROPERTIES_ORIGIN ["COM"]
properties('MP2/aug-cc-pvtz', properties = ['dipole'])
--------------------------------------------------------------------------

    Molecular point group: c1
  Charge       = 0
  Multiplicity = 1
  Basis Set: AUG-CC-PVTZ
    Blend: AUG-CC-PVTZ
  Basis Set: (AUG-CC-PVTZ AUX)
    Blend: AUG-CC-PVTZ-JKFIT

    Orbital Energies [Eh]
    ---------------------

    Doubly Occupied:

       1A    -11.217082     2A    -11.210401     3A    -11.210362
       4A     -1.051636     5A     -0.923981     6A     -0.801475
       7A     -0.617300     8A     -0.599011     9A     -0.549042
      10A     -0.529909    11A     -0.481648    12A     -0.474726
      13A     -0.460284

  @DF-RHF Final Energy:  -118.30684794009068

   => Energetics <=

    Nuclear Repulsion Energy =             82.5303320778908756
    One-Electron Energy =                -321.4206467281724713
    Two-Electron Energy =                 120.5834667101909190
    Total Energy =                       -118.3068479400906767
  Basis Set: (AUG-CC-PVTZ AUX)
    Blend: AUG-CC-PVTZ-RI
    Molecular point group: c1

    Geometry (in Angstrom), charge = 0, multiplicity = 1:

       Center              X                  Y                   Z               Mass
    ------------   -----------------  -----------------  -----------------  -----------------
         C            0.000001270053     0.577139884754     0.001673674518    12.000000000000
         C            1.268609270053    -0.271579115246     0.001672674518    12.000000000000
         C           -1.268610729947    -0.271581115246     0.001694674518    12.000000000000
         H            0.000003370053     1.322173884754     0.805470674518     1.007825032230
         H           -0.000007729947     1.234052884754    -0.875612325482     1.007825032230
         H            1.305805270053    -0.915850115246     0.885679674518     1.007825032230
         H            1.305754270053    -0.915920115246    -0.882284325482     1.007825032230
         H            2.167812270053     0.351355884754     0.001624674518     1.007825032230
         H           -2.167805729947     0.351362884754     0.001698674518     1.007825032230
         H           -1.305770729947    -0.915875115246     0.885685674518     1.007825032230
         H           -1.305788729947    -0.915890115246    -0.882285325482     1.007825032230

  Basis Set: AUG-CC-PVTZ
    Blend: AUG-CC-PVTZ
  Basis Set: (AUG-CC-PVTZ AUX)
    Blend: AUG-CC-PVTZ-JKFIT
	 Reference Energy          =    -118.3068479400906767 [Eh]
	 Singles Energy            =      -0.0000000000000000 [Eh]
	 Same-Spin Energy          =      -0.1226774510083208 [Eh]
	 Opposite-Spin Energy      =      -0.4855135137558889 [Eh]
	 Correlation Energy        =      -0.6081909647642096 [Eh]
	 Total Energy              =    -118.9150389048548817 [Eh]

	 ================> DF-SCS-MP2 Energies <==================
	-----------------------------------------------------------
	 SCS Same-Spin Scale       =       0.3333333333333333 [-]
	 SCS Opposite-Spin Scale   =       1.2000000000000000 [-]
	 SCS Same-Spin Energy      =      -0.0408924836694403 [Eh]
	 SCS Opposite-Spin Energy  =      -0.5826162165070666 [Eh]
	 SCS Correlation Energy    =      -0.6235087001765069 [Eh]
	 SCS Total Energy          =    -118.9303566402671777 [Eh]
	-----------------------------------------------------------

  Dipole Moment: [D]
     X:     0.0000      Y:     0.1073      Z:    -0.0206     Total:     0.1092

*** Psi4 exiting successfully. Buy a developer a beer!
