                               Psi4 1.3.2 release

  ==> Input File <==

--------------------------------------------------------------------------
#psi4
#
memory 32 gb

molecule  {
0 1
  C        0.0000010     0.5882480    -0.0000070
  C        1.2382163    -0.3042278    -0.0000072
  C       -1.2686110    -0.2604730     0.0000140
  H        0.0000040     1.2451810     0.8772640
  H       -0.0000080     1.2451610    -0.8772930
  H        1.3058050    -0.9047420     0.8839990
  H        1.3057540    -0.9048120    -0.8839650
  H        2.1678120     0.3624640    -0.0000560
  H       -2.1678060     0.3624710     0.0000180
  H       -1.3057710    -0.9047670     0.8840050
  H       -1.3057890    -0.9047820    -0.8839660
units angstrom
no_reorient  #important for SAPT in psi4, default
symmetry c1  #important for SAPT in psi4, default
}

set PROPERTIES_ORIGIN ["COM"]
properties('MP2/aug-cc-pvtz', properties = ['dipole'])
--------------------------------------------------------------------------

    Molecular point group: c1
  Charge       = 0
  Multiplicity = 1
  Basis Set: AUG-CC-PVTZ
    Blend: AUG-CC-PVTZ
  Basis Set: (AUG-CC-PVTZ AUX)
    Blend: AUG-CC-PVTZ-JKFIT

    Orbital Energies [Eh]
    ---------------------

    Doubly Occupied:

       1A    -11.217599     2A    -11.210075     3A    -11.208848
       4A     -1.053165     5A     -0.922558     6A     -0.799700
       7A     -0.627363     8A     -0.590735     9A     -0.546813
      10A     -0.537451    11A     -0.478953    12A     -0.471437
      13A     -0.461881

  @DF-RHF Final Energy:  -118.30517010573277

   => Energetics <=

    Nuclear Repulsion Energy =             82.6900671751344021
    One-Electron Energy =                -321.7373153462922346
    Two-Electron Energy =                 120.7420780654250621
    Total Energy =                       -118.3051701057327705
  Basis Set: (AUG-CC-PVTZ AUX)
    Blend: AUG-CC-PVTZ-RI
    Molecular point group: c1

    Geometry (in Angstrom), charge = 0, multiplicity = 1:

       Center              X                  Y                   Z               Mass
    ------------   -----------------  -----------------  -----------------  -----------------
         C            0.008278391485     0.591071699708    -0.000007082767    12.000000000000
         C            1.246493691485    -0.301404100292    -0.000007282767    12.000000000000
         C           -1.260333608515    -0.257649300292     0.000013917233    12.000000000000
         H            0.008281391485     1.248004699708     0.877263917233     1.007825032230
         H            0.008269391485     1.247984699708    -0.877293082767     1.007825032230
         H            1.314082391485    -0.901918300292     0.883998917233     1.007825032230
         H            1.314031391485    -0.901988300292    -0.883965082767     1.007825032230
         H            2.176089391485     0.365287699708    -0.000056082767     1.007825032230
         H           -2.159528608515     0.365294699708     0.000017917233     1.007825032230
         H           -1.297493608515    -0.901943300292     0.884004917233     1.007825032230
         H           -1.297511608515    -0.901958300292    -0.883966082767     1.007825032230

  Basis Set: AUG-CC-PVTZ
    Blend: AUG-CC-PVTZ
  Basis Set: (AUG-CC-PVTZ AUX)
    Blend: AUG-CC-PVTZ-JKFIT
	 Reference Energy          =    -118.3051701057327705 [Eh]
	 Singles Energy            =      -0.0000000000000000 [Eh]
	 Same-Spin Energy          =      -0.1226872004912381 [Eh]
	 Opposite-Spin Energy      =      -0.4856690800474199 [Eh]
	 Correlation Energy        =      -0.6083562805386580 [Eh]
	 Total Energy              =    -118.9135263862714282 [Eh]

	 ================> DF-SCS-MP2 Energies <==================
	-----------------------------------------------------------
	 SCS Same-Spin Scale       =       0.3333333333333333 [-]
	 SCS Opposite-Spin Scale   =       1.2000000000000000 [-]
	 SCS Same-Spin Energy      =      -0.0408957334970794 [Eh]
	 SCS Opposite-Spin Energy  =      -0.5828028960569038 [Eh]
	 SCS Correlation Energy    =      -0.6236986295539831 [Eh]
	 SCS Total Energy          =    -118.9288687352867555 [Eh]
	-----------------------------------------------------------

  Dipole Moment: [D]
     X:    -0.0091      Y:     0.0732      Z:     0.0000     Total:     0.0737

*** Psi4 exiting successfully. Buy a developer a beer!
