                               Psi4 1.3.2 release

  ==> Input File <==

--------------------------------------------------------------------------
#psi4
#
memory 32 gb

molecule  {
0 1
  C        0.0000010     0.5882480    -0.0000070
  C        1.2686090    -0.2604710    -0.0000080
  C       -1.3517258    -0.3160781     0.0000154
  H        0.0000040     1.2451810     0.8772640
  H       -0.0000080     1.2451610    -0.8772930
  H        1.3058050    -0.9047420     0.8839990
  H        1.3057540    -0.9048120    -0.8839650
  H        2.1678120     0.3624640    -0.0000560
  H       -2.1678060     0.3624710     0.0000180
  H       -1.3057710    -0.9047670     0.8840050
  H       -1.3057890    -0.9047820    -0.8839660
units angstrom
no_reorient  #important for SAPT in psi4, default
symmetry c1  #important for SAPT in psi4, default
}

set PROPERTIES_ORIGIN ["COM"]
properties('MP2/aug-cc-pvtz', properties = ['dipole'])
--------------------------------------------------------------------------

    Molecular point group: c1
  Charge       = 0
  Multiplicity = 1
  Basis Set: AUG-CC-PVTZ
    Blend: AUG-CC-PVTZ
  Basis Set: (AUG-CC-PVTZ AUX)
    Blend: AUG-CC-PVTZ-JKFIT

    Orbital Energies [Eh]
    ---------------------

    Doubly Occupied:

       1A    -11.221077     2A    -11.209646     3A    -11.206342
       4A     -1.039946     5A     -0.925863     6A     -0.799576
       7A     -0.621181     8A     -0.595441     9A     -0.549650
      10A     -0.541638    11A     -0.484501    12A     -0.473137
      13A     -0.447168

  @DF-RHF Final Energy:  -118.30080746582746

   => Energetics <=

    Nuclear Repulsion Energy =             81.6429770410336175
    One-Electron Energy =                -319.6572378810081432
    Two-Electron Energy =                 119.7134533741470648
    Total Energy =                       -118.3008074658274609
  Basis Set: (AUG-CC-PVTZ AUX)
    Blend: AUG-CC-PVTZ-RI
    Molecular point group: c1

    Geometry (in Angstrom), charge = 0, multiplicity = 1:

       Center              X                  Y                   Z               Mass
    ------------   -----------------  -----------------  -----------------  -----------------
         C            0.022636717964     0.594298463429    -0.000007246171    12.000000000000
         C            1.291244717964    -0.254420536571    -0.000008246171    12.000000000000
         C           -1.329090082036    -0.310027636571     0.000015153829    12.000000000000
         H            0.022639717964     1.251231463429     0.877263753829     1.007825032230
         H            0.022627717964     1.251211463429    -0.877293246171     1.007825032230
         H            1.328440717964    -0.898691536571     0.883998753829     1.007825032230
         H            1.328389717964    -0.898761536571    -0.883965246171     1.007825032230
         H            2.190447717964     0.368514463429    -0.000056246171     1.007825032230
         H           -2.145170282036     0.368521463429     0.000017753829     1.007825032230
         H           -1.283135282036    -0.898716536571     0.884004753829     1.007825032230
         H           -1.283153282036    -0.898731536571    -0.883966246171     1.007825032230

  Basis Set: AUG-CC-PVTZ
    Blend: AUG-CC-PVTZ
  Basis Set: (AUG-CC-PVTZ AUX)
    Blend: AUG-CC-PVTZ-JKFIT
	 Reference Energy          =    -118.3008074658274609 [Eh]
	 Singles Energy            =      -0.0000000000000000 [Eh]
	 Same-Spin Energy          =      -0.1223468129013961 [Eh]
	 Opposite-Spin Energy      =      -0.4856185858803082 [Eh]
	 Correlation Energy        =      -0.6079653987817042 [Eh]
	 Total Energy              =    -118.9087728646091620 [Eh]

	 ================> DF-SCS-MP2 Energies <==================
	-----------------------------------------------------------
	 SCS Same-Spin Scale       =       0.3333333333333333 [-]
	 SCS Opposite-Spin Scale   =       1.2000000000000000 [-]
	 SCS Same-Spin Energy      =      -0.0407822709671320 [Eh]
	 SCS Opposite-Spin Energy  =      -0.5827423030563698 [Eh]
	 SCS Correlation Energy    =      -0.6235245740235018 [Eh]
	 SCS Total Energy          =    -118.9243320398509667 [Eh]
	-----------------------------------------------------------

  Dipole Moment: [D]
     X:     0.0213      Y:     0.0907      Z:    -0.0000     Total:     0.0932

*** Psi4 exiting successfully. Buy a developer a beer!
