                               Psi4 1.3.2 release

  ==> Input File <==

--------------------------------------------------------------------------
#psi4
#
memory 32 gb

molecule  {
0 1
  C        0.0000010     0.5882480    -0.0000070
  C        1.2686090    -0.2604710    -0.0000080
  C       -1.2686110    -0.2604730     0.0000140
  H        0.0000040     1.2451810     0.8772640
  H       -0.0000080     1.2451610    -0.8772930
  H        1.3058050    -0.9047420     0.8839990
  H        1.3057540    -0.9048120    -0.8839650
  H        2.1678120     0.3624640    -0.0000560
  H       -2.1678060     0.3624710     0.0000180
  H       -1.3057710    -0.9047670     0.8840050
  H       -1.3057890    -0.9047820    -0.8839660
units angstrom
no_reorient  #important for SAPT in psi4, default
symmetry c1  #important for SAPT in psi4, default
}

set PROPERTIES_ORIGIN ["COM"]
properties('MP2/aug-cc-pvtz', properties = ['dipole'])
--------------------------------------------------------------------------

    Molecular point group: c1
  Charge       = 0
  Multiplicity = 1
  Basis Set: AUG-CC-PVTZ
    Blend: AUG-CC-PVTZ
  Basis Set: (AUG-CC-PVTZ AUX)
    Blend: AUG-CC-PVTZ-JKFIT

    Orbital Energies [Eh]
    ---------------------

    Doubly Occupied:

       1A    -11.217305     2A    -11.209747     3A    -11.209711
       4A     -1.052278     5A     -0.923872     6A     -0.798354
       7A     -0.623264     8A     -0.596647     9A     -0.548883
      10A     -0.529869    11A     -0.474649    12A     -0.474619
      13A     -0.467248

  @DF-RHF Final Energy:  -118.30815945110393

   => Energetics <=

    Nuclear Repulsion Energy =             82.5801191946006412
    One-Electron Energy =                -321.5236617637547738
    Two-Electron Energy =                 120.6353831180502141
    Total Energy =                       -118.3081594511039327
  Basis Set: (AUG-CC-PVTZ AUX)
    Blend: AUG-CC-PVTZ-RI
    Molecular point group: c1

    Geometry (in Angstrom), charge = 0, multiplicity = 1:

       Center              X                  Y                   Z               Mass
    ------------   -----------------  -----------------  -----------------  -----------------
         C            0.000001249467     0.579154981290    -0.000006864896    12.000000000000
         C            1.268609249467    -0.269564018710    -0.000007864896    12.000000000000
         C           -1.268610750533    -0.269566018710     0.000014135104    12.000000000000
         H            0.000004249467     1.236087981290     0.877264135104     1.007825032230
         H           -0.000007750533     1.236067981290    -0.877292864896     1.007825032230
         H            1.305805249467    -0.913835018710     0.883999135104     1.007825032230
         H            1.305754249467    -0.913905018710    -0.883964864896     1.007825032230
         H            2.167812249467     0.353370981290    -0.000055864896     1.007825032230
         H           -2.167805750533     0.353377981290     0.000018135104     1.007825032230
         H           -1.305770750533    -0.913860018710     0.884005135104     1.007825032230
         H           -1.305788750533    -0.913875018710    -0.883965864896     1.007825032230

  Basis Set: AUG-CC-PVTZ
    Blend: AUG-CC-PVTZ
  Basis Set: (AUG-CC-PVTZ AUX)
    Blend: AUG-CC-PVTZ-JKFIT
	 Reference Energy          =    -118.3081594511039327 [Eh]
	 Singles Energy            =      -0.0000000000000000 [Eh]
	 Same-Spin Energy          =      -0.1226257442816624 [Eh]
	 Opposite-Spin Energy      =      -0.4854908115945668 [Eh]
	 Correlation Energy        =      -0.6081165558762291 [Eh]
	 Total Energy              =    -118.9162760069801550 [Eh]

	 ================> DF-SCS-MP2 Energies <==================
	-----------------------------------------------------------
	 SCS Same-Spin Scale       =       0.3333333333333333 [-]
	 SCS Opposite-Spin Scale   =       1.2000000000000000 [-]
	 SCS Same-Spin Energy      =      -0.0408752480938875 [Eh]
	 SCS Opposite-Spin Energy  =      -0.5825889739134801 [Eh]
	 SCS Correlation Energy    =      -0.6234642220073675 [Eh]
	 SCS Total Energy          =    -118.9316236731113037 [Eh]
	-----------------------------------------------------------

  Dipole Moment: [D]
     X:     0.0000      Y:     0.0886      Z:     0.0000     Total:     0.0886

*** Psi4 exiting successfully. Buy a developer a beer!
