                               Psi4 1.3.2 release

  ==> Input File <==

--------------------------------------------------------------------------
#psi4
#
memory 32 gb

molecule  {
0 1
  C        0.0000010     0.5882480    -0.0000070
  C        1.2686090    -0.2604710    -0.0000080
  C       -1.3085398    -0.1857563    -0.1354402
  H        0.0000040     1.2451810     0.8772640
  H       -0.0000080     1.2451610    -0.8772930
  H        1.3058050    -0.9047420     0.8839990
  H        1.3057540    -0.9048120    -0.8839650
  H        2.1678120     0.3624640    -0.0000560
  H       -2.1678060     0.3624710     0.0000180
  H       -1.3057710    -0.9047670     0.8840050
  H       -1.3057890    -0.9047820    -0.8839660
units angstrom
no_reorient  #important for SAPT in psi4, default
symmetry c1  #important for SAPT in psi4, default
}

set PROPERTIES_ORIGIN ["COM"]
properties('MP2/aug-cc-pvtz', properties = ['dipole'])
--------------------------------------------------------------------------

    Molecular point group: c1
  Charge       = 0
  Multiplicity = 1
  Basis Set: AUG-CC-PVTZ
    Blend: AUG-CC-PVTZ
  Basis Set: (AUG-CC-PVTZ AUX)
    Blend: AUG-CC-PVTZ-JKFIT

    Orbital Energies [Eh]
    ---------------------

    Doubly Occupied:

       1A    -11.219342     2A    -11.214660     3A    -11.211910
       4A     -1.053035     5A     -0.928484     6A     -0.800218
       7A     -0.627143     8A     -0.604966     9A     -0.563124
      10A     -0.513908    11A     -0.489867    12A     -0.481596
      13A     -0.434480

  @DF-RHF Final Energy:  -118.28524625098331

   => Energetics <=

    Nuclear Repulsion Energy =             82.4199815114951804
    One-Electron Energy =                -321.1249890801640277
    Two-Electron Energy =                 120.4197613176855555
    Total Energy =                       -118.2852462509833060
  Basis Set: (AUG-CC-PVTZ AUX)
    Blend: AUG-CC-PVTZ-RI
    Molecular point group: c1

    Geometry (in Angstrom), charge = 0, multiplicity = 1:

       Center              X                  Y                   Z               Mass
    ------------   -----------------  -----------------  -----------------  -----------------
         C            0.010875451108     0.558806649718     0.036882705636    12.000000000000
         C            1.279483451108    -0.289912350282     0.036881705636    12.000000000000
         C           -1.297665348892    -0.215197650282    -0.098550494364    12.000000000000
         H            0.010878451108     1.215739649718     0.914153705636     1.007825032230
         H            0.010866451108     1.215719649718    -0.840403294364     1.007825032230
         H            1.316679451108    -0.934183350282     0.920888705636     1.007825032230
         H            1.316628451108    -0.934253350282    -0.847075294364     1.007825032230
         H            2.178686451108     0.333022649718     0.036833705636     1.007825032230
         H           -2.156931548892     0.333029649718     0.036907705636     1.007825032230
         H           -1.294896548892    -0.934208350282     0.920894705636     1.007825032230
         H           -1.294914548892    -0.934223350282    -0.847076294364     1.007825032230

  Basis Set: AUG-CC-PVTZ
    Blend: AUG-CC-PVTZ
  Basis Set: (AUG-CC-PVTZ AUX)
    Blend: AUG-CC-PVTZ-JKFIT
	 Reference Energy          =    -118.2852462509833060 [Eh]
	 Singles Energy            =      -0.0000000000000000 [Eh]
	 Same-Spin Energy          =      -0.1229394622765516 [Eh]
	 Opposite-Spin Energy      =      -0.4865601381362410 [Eh]
	 Correlation Energy        =      -0.6094996004127926 [Eh]
	 Total Energy              =    -118.8947458513960953 [Eh]

	 ================> DF-SCS-MP2 Energies <==================
	-----------------------------------------------------------
	 SCS Same-Spin Scale       =       0.3333333333333333 [-]
	 SCS Opposite-Spin Scale   =       1.2000000000000000 [-]
	 SCS Same-Spin Energy      =      -0.0409798207588505 [Eh]
	 SCS Opposite-Spin Energy  =      -0.5838721657634892 [Eh]
	 SCS Correlation Energy    =      -0.6248519865223398 [Eh]
	 SCS Total Energy          =    -118.9100982375056503 [Eh]
	-----------------------------------------------------------

  Dipole Moment: [D]
     X:     0.0281      Y:     0.1445      Z:    -0.0821     Total:     0.1685

*** Psi4 exiting successfully. Buy a developer a beer!
