                               Psi4 1.3.2 release

  ==> Input File <==

--------------------------------------------------------------------------
#psi4
#
memory 32 gb

molecule  {
0 1
  C        0.0000010     0.5882480    -0.0000070
  C        1.2832280    -0.2382015    -0.0000084
  C       -1.2686110    -0.2604730     0.0000140
  H        0.0000040     1.2451810     0.8772640
  H       -0.0000080     1.2451610    -0.8772930
  H        1.3058050    -0.9047420     0.8839990
  H        1.3057540    -0.9048120    -0.8839650
  H        2.1678120     0.3624640    -0.0000560
  H       -2.1678060     0.3624710     0.0000180
  H       -1.3057710    -0.9047670     0.8840050
  H       -1.3057890    -0.9047820    -0.8839660
units angstrom
no_reorient  #important for SAPT in psi4, default
symmetry c1  #important for SAPT in psi4, default
}

set PROPERTIES_ORIGIN ["COM"]
properties('MP2/aug-cc-pvtz', properties = ['dipole'])
--------------------------------------------------------------------------

    Molecular point group: c1
  Charge       = 0
  Multiplicity = 1
  Basis Set: AUG-CC-PVTZ
    Blend: AUG-CC-PVTZ
  Basis Set: (AUG-CC-PVTZ AUX)
    Blend: AUG-CC-PVTZ-JKFIT

    Orbital Energies [Eh]
    ---------------------

    Doubly Occupied:

       1A    -11.217341     2A    -11.210268     3A    -11.209939
       4A     -1.052005     5A     -0.924780     6A     -0.797950
       7A     -0.621596     8A     -0.600623     9A     -0.549344
      10A     -0.526253    11A     -0.480586    12A     -0.472374
      13A     -0.464692

  @DF-RHF Final Energy:  -118.30739795606348

   => Energetics <=

    Nuclear Repulsion Energy =             82.5279141883573715
    One-Electron Energy =                -321.4151252465748030
    Two-Electron Energy =                 120.5798131021539348
    Total Energy =                       -118.3073979560634825
  Basis Set: (AUG-CC-PVTZ AUX)
    Blend: AUG-CC-PVTZ-RI
    Molecular point group: c1

    Geometry (in Angstrom), charge = 0, multiplicity = 1:

       Center              X                  Y                   Z               Mass
    ------------   -----------------  -----------------  -----------------  -----------------
         C           -0.003980086155     0.573090109984    -0.000006755960    12.000000000000
         C            1.279246913845    -0.253359390016    -0.000008155960    12.000000000000
         C           -1.272592086155    -0.275630890016     0.000014244040    12.000000000000
         H           -0.003977086155     1.230023109984     0.877264244040     1.007825032230
         H           -0.003989086155     1.230003109984    -0.877292755960     1.007825032230
         H            1.301823913845    -0.919899890016     0.883999244040     1.007825032230
         H            1.301772913845    -0.919969890016    -0.883964755960     1.007825032230
         H            2.163830913845     0.347306109984    -0.000055755960     1.007825032230
         H           -2.171787086155     0.347313109984     0.000018244040     1.007825032230
         H           -1.309752086155    -0.919924890016     0.884005244040     1.007825032230
         H           -1.309770086155    -0.919939890016    -0.883965755960     1.007825032230

  Basis Set: AUG-CC-PVTZ
    Blend: AUG-CC-PVTZ
  Basis Set: (AUG-CC-PVTZ AUX)
    Blend: AUG-CC-PVTZ-JKFIT
	 Reference Energy          =    -118.3073979560634825 [Eh]
	 Singles Energy            =      -0.0000000000000000 [Eh]
	 Same-Spin Energy          =      -0.1226273007320709 [Eh]
	 Opposite-Spin Energy      =      -0.4855082341567410 [Eh]
	 Correlation Energy        =      -0.6081355348888120 [Eh]
	 Total Energy              =    -118.9155334909522992 [Eh]

	 ================> DF-SCS-MP2 Energies <==================
	-----------------------------------------------------------
	 SCS Same-Spin Scale       =       0.3333333333333333 [-]
	 SCS Opposite-Spin Scale   =       1.2000000000000000 [-]
	 SCS Same-Spin Energy      =      -0.0408757669106903 [Eh]
	 SCS Opposite-Spin Energy  =      -0.5826098809880892 [Eh]
	 SCS Correlation Energy    =      -0.6234856478987795 [Eh]
	 SCS Total Energy          =    -118.9308836039622577 [Eh]
	-----------------------------------------------------------

  Dipole Moment: [D]
     X:    -0.0004      Y:     0.0967      Z:    -0.0000     Total:     0.0967

*** Psi4 exiting successfully. Buy a developer a beer!
