                               Psi4 1.3.2 release

  ==> Input File <==

--------------------------------------------------------------------------
#psi4
#
memory 32 gb

molecule  {
0 1
  C        0.0000010     0.5882480    -0.0000070
  C        1.2686090    -0.2604710    -0.0000080
  C       -1.2342367    -0.3051646     0.0904084
  H        0.0000040     1.2451810     0.8772640
  H       -0.0000080     1.2451610    -0.8772930
  H        1.3058050    -0.9047420     0.8839990
  H        1.3057540    -0.9048120    -0.8839650
  H        2.1678120     0.3624640    -0.0000560
  H       -2.1678060     0.3624710     0.0000180
  H       -1.3057710    -0.9047670     0.8840050
  H       -1.3057890    -0.9047820    -0.8839660
units angstrom
no_reorient  #important for SAPT in psi4, default
symmetry c1  #important for SAPT in psi4, default
}

set PROPERTIES_ORIGIN ["COM"]
properties('MP2/aug-cc-pvtz', properties = ['dipole'])
--------------------------------------------------------------------------

    Molecular point group: c1
  Charge       = 0
  Multiplicity = 1
  Basis Set: AUG-CC-PVTZ
    Blend: AUG-CC-PVTZ
  Basis Set: (AUG-CC-PVTZ AUX)
    Blend: AUG-CC-PVTZ-JKFIT

    Orbital Energies [Eh]
    ---------------------

    Doubly Occupied:

       1A    -11.218398     2A    -11.211553     3A    -11.208953
       4A     -1.053827     5A     -0.923541     6A     -0.801741
       7A     -0.628558     8A     -0.590228     9A     -0.561325
      10A     -0.526844    11A     -0.485826    12A     -0.462457
      13A     -0.458268

  @DF-RHF Final Energy:  -118.29461656441676

   => Energetics <=

    Nuclear Repulsion Energy =             82.7069056276504853
    One-Electron Energy =                -321.7400097463322481
    Two-Electron Energy =                 120.7384875542650065
    Total Energy =                       -118.2946165644167564
  Basis Set: (AUG-CC-PVTZ AUX)
    Blend: AUG-CC-PVTZ-RI
    Molecular point group: c1

    Geometry (in Angstrom), charge = 0, multiplicity = 1:

       Center              X                  Y                   Z               Mass
    ------------   -----------------  -----------------  -----------------  -----------------
         C           -0.009360240721     0.591326282958    -0.024624858243    12.000000000000
         C            1.259247759279    -0.257392717042    -0.024625858243    12.000000000000
         C           -1.243597940721    -0.302086317042     0.065790541757    12.000000000000
         H           -0.009357240721     1.248259282958     0.852646141757     1.007825032230
         H           -0.009369240721     1.248239282958    -0.901910858243     1.007825032230
         H            1.296443759279    -0.901663717042     0.859381141757     1.007825032230
         H            1.296392759279    -0.901733717042    -0.908582858243     1.007825032230
         H            2.158450759279     0.365542282958    -0.024673858243     1.007825032230
         H           -2.177167240721     0.365549282958    -0.024599858243     1.007825032230
         H           -1.315132240721    -0.901688717042     0.859387141757     1.007825032230
         H           -1.315150240721    -0.901703717042    -0.908583858243     1.007825032230

  Basis Set: AUG-CC-PVTZ
    Blend: AUG-CC-PVTZ
  Basis Set: (AUG-CC-PVTZ AUX)
    Blend: AUG-CC-PVTZ-JKFIT
	 Reference Energy          =    -118.2946165644167564 [Eh]
	 Singles Energy            =      -0.0000000000000000 [Eh]
	 Same-Spin Energy          =      -0.1228148624063235 [Eh]
	 Opposite-Spin Energy      =      -0.4860992041772951 [Eh]
	 Correlation Energy        =      -0.6089140665836186 [Eh]
	 Total Energy              =    -118.9035306310003790 [Eh]

	 ================> DF-SCS-MP2 Energies <==================
	-----------------------------------------------------------
	 SCS Same-Spin Scale       =       0.3333333333333333 [-]
	 SCS Opposite-Spin Scale   =       1.2000000000000000 [-]
	 SCS Same-Spin Energy      =      -0.0409382874687745 [Eh]
	 SCS Opposite-Spin Energy  =      -0.5833190450127541 [Eh]
	 SCS Correlation Energy    =      -0.6242573324815286 [Eh]
	 SCS Total Energy          =    -118.9188738968982904 [Eh]
	-----------------------------------------------------------

  Dipole Moment: [D]
     X:     0.0191      Y:     0.0875      Z:     0.0305     Total:     0.0946

*** Psi4 exiting successfully. Buy a developer a beer!
