                               Psi4 1.3.2 release

  ==> Input File <==

--------------------------------------------------------------------------
#psi4
#
memory 32 gb

molecule  {
0 1
  C        0.0000010     0.5882480    -0.0000070
  C        1.2686090    -0.2604710    -0.0000080
  C       -1.2968047    -0.2116465    -0.0903805
  H        0.0000040     1.2451810     0.8772640
  H       -0.0000080     1.2451610    -0.8772930
  H        1.3058050    -0.9047420     0.8839990
  H        1.3057540    -0.9048120    -0.8839650
  H        2.1678120     0.3624640    -0.0000560
  H       -2.1678060     0.3624710     0.0000180
  H       -1.3057710    -0.9047670     0.8840050
  H       -1.3057890    -0.9047820    -0.8839660
units angstrom
no_reorient  #important for SAPT in psi4, default
symmetry c1  #important for SAPT in psi4, default
}

set PROPERTIES_ORIGIN ["COM"]
properties('MP2/aug-cc-pvtz', properties = ['dipole'])
--------------------------------------------------------------------------

    Molecular point group: c1
  Charge       = 0
  Multiplicity = 1
  Basis Set: AUG-CC-PVTZ
    Blend: AUG-CC-PVTZ
  Basis Set: (AUG-CC-PVTZ AUX)
    Blend: AUG-CC-PVTZ-JKFIT

    Orbital Energies [Eh]
    ---------------------

    Doubly Occupied:

       1A    -11.218216     2A    -11.211977     3A    -11.211063
       4A     -1.052396     5A     -0.926592     6A     -0.798977
       7A     -0.623185     8A     -0.603560     9A     -0.557717
      10A     -0.518230    11A     -0.485796    12A     -0.478767
      13A     -0.448048

  @DF-RHF Final Energy:  -118.29732216485390

   => Energetics <=

    Nuclear Repulsion Energy =             82.4736670708309560
    One-Electron Energy =                -321.2729321401574794
    Two-Electron Energy =                 120.5019429044726138
    Total Energy =                       -118.2973221648538953
  Basis Set: (AUG-CC-PVTZ AUX)
    Blend: AUG-CC-PVTZ-RI
    Molecular point group: c1

    Geometry (in Angstrom), charge = 0, multiplicity = 1:

       Center              X                  Y                   Z               Mass
    ------------   -----------------  -----------------  -----------------  -----------------
         C            0.007679516252     0.565857581760     0.024611155685    12.000000000000
         C            1.276287516252    -0.282861418240     0.024610155685    12.000000000000
         C           -1.289126183748    -0.234036918240    -0.065762344315    12.000000000000
         H            0.007682516252     1.222790581760     0.901882155685     1.007825032230
         H            0.007670516252     1.222770581760    -0.852674844315     1.007825032230
         H            1.313483516252    -0.927132418240     0.908617155685     1.007825032230
         H            1.313432516252    -0.927202418240    -0.859346844315     1.007825032230
         H            2.175490516252     0.340073581760     0.024562155685     1.007825032230
         H           -2.160127483748     0.340080581760     0.024636155685     1.007825032230
         H           -1.298092483748    -0.927157418240     0.908623155685     1.007825032230
         H           -1.298110483748    -0.927172418240    -0.859347844315     1.007825032230

  Basis Set: AUG-CC-PVTZ
    Blend: AUG-CC-PVTZ
  Basis Set: (AUG-CC-PVTZ AUX)
    Blend: AUG-CC-PVTZ-JKFIT
	 Reference Energy          =    -118.2973221648538953 [Eh]
	 Singles Energy            =      -0.0000000000000000 [Eh]
	 Same-Spin Energy          =      -0.1227614348692317 [Eh]
	 Opposite-Spin Energy      =      -0.4859630503951727 [Eh]
	 Correlation Energy        =      -0.6087244852644045 [Eh]
	 Total Energy              =    -118.9060466501182987 [Eh]

	 ================> DF-SCS-MP2 Energies <==================
	-----------------------------------------------------------
	 SCS Same-Spin Scale       =       0.3333333333333333 [-]
	 SCS Opposite-Spin Scale   =       1.2000000000000000 [-]
	 SCS Same-Spin Energy      =      -0.0409204782897439 [Eh]
	 SCS Opposite-Spin Energy  =      -0.5831556604742073 [Eh]
	 SCS Correlation Energy    =      -0.6240761387639512 [Eh]
	 SCS Total Energy          =    -118.9213983036178490 [Eh]
	-----------------------------------------------------------

  Dipole Moment: [D]
     X:     0.0121      Y:     0.1198      Z:    -0.0512     Total:     0.1308

*** Psi4 exiting successfully. Buy a developer a beer!
