                               Psi4 1.3.2 release

  ==> Input File <==

--------------------------------------------------------------------------
#psi4
#
memory 32 gb

molecule  {
0 1
  C        0.0000010     0.5882480    -0.0000070
  C        1.2686090    -0.2604710    -0.0000080
  C       -1.1854962    -0.2048679     0.0000126
  H        0.0000040     1.2451810     0.8772640
  H       -0.0000080     1.2451610    -0.8772930
  H        1.3058050    -0.9047420     0.8839990
  H        1.3057540    -0.9048120    -0.8839650
  H        2.1678120     0.3624640    -0.0000560
  H       -2.1678060     0.3624710     0.0000180
  H       -1.3057710    -0.9047670     0.8840050
  H       -1.3057890    -0.9047820    -0.8839660
units angstrom
no_reorient  #important for SAPT in psi4, default
symmetry c1  #important for SAPT in psi4, default
}

set PROPERTIES_ORIGIN ["COM"]
properties('MP2/aug-cc-pvtz', properties = ['dipole'])
--------------------------------------------------------------------------

    Molecular point group: c1
  Charge       = 0
  Multiplicity = 1
  Basis Set: AUG-CC-PVTZ
    Blend: AUG-CC-PVTZ
  Basis Set: (AUG-CC-PVTZ AUX)
    Blend: AUG-CC-PVTZ-JKFIT

    Orbital Energies [Eh]
    ---------------------

    Doubly Occupied:

       1A    -11.216200     2A    -11.212919     3A    -11.210360
       4A     -1.069846     5A     -0.923342     6A     -0.795683
       7A     -0.627858     8A     -0.604121     9A     -0.552471
      10A     -0.521362    11A     -0.495967    12A     -0.459196
      13A     -0.455739

  @DF-RHF Final Energy:  -118.29662286970222

   => Energetics <=

    Nuclear Repulsion Energy =             83.6028646168939105
    One-Electron Energy =                -323.5088451858504754
    Two-Electron Energy =                 121.6093576992543603
    Total Energy =                       -118.2966228697022188
  Basis Set: (AUG-CC-PVTZ AUX)
    Blend: AUG-CC-PVTZ-RI
    Molecular point group: c1

    Geometry (in Angstrom), charge = 0, multiplicity = 1:

       Center              X                  Y                   Z               Mass
    ------------   -----------------  -----------------  -----------------  -----------------
         C           -0.022634219029     0.564011499152    -0.000006483620    12.000000000000
         C            1.245973780971    -0.284707500848    -0.000007483620    12.000000000000
         C           -1.208131419029    -0.229104400848     0.000013116380    12.000000000000
         H           -0.022631219029     1.220944499152     0.877264516380     1.007825032230
         H           -0.022643219029     1.220924499152    -0.877292483620     1.007825032230
         H            1.283169780971    -0.928978500848     0.883999516380     1.007825032230
         H            1.283118780971    -0.929048500848    -0.883964483620     1.007825032230
         H            2.145176780971     0.338227499152    -0.000055483620     1.007825032230
         H           -2.190441219029     0.338234499152     0.000018516380     1.007825032230
         H           -1.328406219029    -0.929003500848     0.884005516380     1.007825032230
         H           -1.328424219029    -0.929018500848    -0.883965483620     1.007825032230

  Basis Set: AUG-CC-PVTZ
    Blend: AUG-CC-PVTZ
  Basis Set: (AUG-CC-PVTZ AUX)
    Blend: AUG-CC-PVTZ-JKFIT
	 Reference Energy          =    -118.2966228697022188 [Eh]
	 Singles Energy            =      -0.0000000000000000 [Eh]
	 Same-Spin Energy          =      -0.1235770340385124 [Eh]
	 Opposite-Spin Energy      =      -0.4865870163272953 [Eh]
	 Correlation Energy        =      -0.6101640503658077 [Eh]
	 Total Energy              =    -118.9067869200680292 [Eh]

	 ================> DF-SCS-MP2 Energies <==================
	-----------------------------------------------------------
	 SCS Same-Spin Scale       =       0.3333333333333333 [-]
	 SCS Opposite-Spin Scale   =       1.2000000000000000 [-]
	 SCS Same-Spin Energy      =      -0.0411923446795041 [Eh]
	 SCS Opposite-Spin Energy  =      -0.5839044195927543 [Eh]
	 SCS Correlation Energy    =      -0.6250967642722585 [Eh]
	 SCS Total Energy          =    -118.9217196339744760 [Eh]
	-----------------------------------------------------------

  Dipole Moment: [D]
     X:     0.0132      Y:     0.1068      Z:    -0.0000     Total:     0.1076

*** Psi4 exiting successfully. Buy a developer a beer!
