                               Psi4 1.4a3.dev225

  ==> Input File <==

--------------------------------------------------------------------------
#psi4
#
memory 32 gb

molecule  {
0 1
  C        0.0000000     0.5883640    -0.0000100
  C        1.2682510    -0.2604390    -0.0000090
  C       -1.2516300    -0.2493151     0.0000176
  H        0.0000090     1.2456610     0.8770720
  H       -0.0000090     1.2456310    -0.8771150
  H        1.3048980    -0.9049500     0.8838910
  H        1.3048740    -0.9049890    -0.8838810
  H        2.1678780     0.3618350    -0.0000340
  H       -2.1678780     0.3618350     0.0000190
  H       -1.3048760    -0.9049560     0.8839140
  H       -1.3048960    -0.9049840    -0.8838580
units angstrom
no_reorient  #important for SAPT in psi4, default
symmetry c1  #important for SAPT in psi4, default
}

set PROPERTIES_ORIGIN ["COM"]
properties('MP2/aug-cc-pvtz', properties = ['dipole'])
--------------------------------------------------------------------------

    Molecular point group: c1
  Charge       = 0
  Multiplicity = 1
  Basis Set: AUG-CC-PVTZ
    Blend: AUG-CC-PVTZ
  Basis Set: (AUG-CC-PVTZ AUX)
    Blend: AUG-CC-PVTZ-JKFIT

    Orbital Energies [Eh]
    ---------------------

    Doubly Occupied:

       1A    -11.216468     2A    -11.210772     3A    -11.209800
       4A     -1.055416     5A     -0.923616     6A     -0.797978
       7A     -0.623946     8A     -0.597739     9A     -0.549164
      10A     -0.527716    11A     -0.479587    12A     -0.472081
      13A     -0.465379

  @DF-RHF Final Energy:  -118.30757976208891

   => Energetics <=

    Nuclear Repulsion Energy =             82.7855510596411648
    One-Electron Energy =                -321.9269413860448026
    Two-Electron Energy =                 120.8338105643147316
    Total Energy =                       -118.3075797620889063
  Basis Set: (AUG-CC-PVTZ AUX)
    Blend: AUG-CC-PVTZ-RI
    Molecular point group: c1

    Geometry (in Angstrom), charge = 0, multiplicity = 1:

       Center              X                  Y                   Z               Mass
    ------------   -----------------  -----------------  -----------------  -----------------
         C           -0.004526559913     0.576216888656    -0.000009801705    12.000000000000
         C            1.263724440087    -0.272586111344    -0.000008801705    12.000000000000
         C           -1.256156559913    -0.261462211344     0.000017798295    12.000000000000
         H           -0.004517559913     1.233513888656     0.877072198295     1.007825032230
         H           -0.004535559913     1.233483888656    -0.877114801705     1.007825032230
         H            1.300371440087    -0.917097111344     0.883891198295     1.007825032230
         H            1.300347440087    -0.917136111344    -0.883880801705     1.007825032230
         H            2.163351440087     0.349687888656    -0.000033801705     1.007825032230
         H           -2.172404559913     0.349687888656     0.000019198295     1.007825032230
         H           -1.309402559913    -0.917103111344     0.883914198295     1.007825032230
         H           -1.309422559913    -0.917131111344    -0.883857801705     1.007825032230

  Basis Set: AUG-CC-PVTZ
    Blend: AUG-CC-PVTZ
  Basis Set: (AUG-CC-PVTZ AUX)
    Blend: AUG-CC-PVTZ-JKFIT
	 Reference Energy          =    -118.3075797620889063 [Eh]
	 Singles Energy            =      -0.0000000000000000 [Eh]
	 Same-Spin Energy          =      -0.1227638362695119 [Eh]
	 Opposite-Spin Energy      =      -0.4856103206308185 [Eh]
	 Correlation Energy        =      -0.6083741569003305 [Eh]
	 Total Energy              =    -118.9159539189892314 [Eh]

	 ================> DF-SCS-MP2 Energies <==================
	-----------------------------------------------------------
	 SCS Same-Spin Scale       =       0.3333333333333333 [-]
	 SCS Opposite-Spin Scale   =       1.2000000000000000 [-]
	 SCS Same-Spin Energy      =      -0.0409212787565040 [Eh]
	 SCS Opposite-Spin Energy  =      -0.5827323847569822 [Eh]
	 SCS Correlation Energy    =      -0.6236536635134862 [Eh]
	 SCS Total Energy          =    -118.9312334256023860 [Eh]
	-----------------------------------------------------------

  Dipole Moment: [D]
     X:    -0.0002      Y:     0.0904      Z:    -0.0000     Total:     0.0904

*** Psi4 exiting successfully. Buy a developer a beer!
