                               Psi4 1.3.2 release

  ==> Input File <==

--------------------------------------------------------------------------
#psi4
#
memory 32 gb

molecule  {
0 1
  C        0.0000010     0.5882480    -0.0000070
  C        1.2686090    -0.2604710    -0.0000080
  C       -1.2686110    -0.2604730     0.0000140
  H        0.0000040     1.2451810     0.8772640
  H       -0.0000096     1.3650382    -1.0373851
  H        1.3058050    -0.9047420     0.8839990
  H        1.3057540    -0.9048120    -0.8839650
  H        2.1678120     0.3624640    -0.0000560
  H       -2.1678060     0.3624710     0.0000180
  H       -1.3057710    -0.9047670     0.8840050
  H       -1.3057890    -0.9047820    -0.8839660
units angstrom
no_reorient  #important for SAPT in psi4, default
symmetry c1  #important for SAPT in psi4, default
}

set PROPERTIES_ORIGIN ["COM"]
properties('MP2/aug-cc-pvtz', properties = ['dipole'])
--------------------------------------------------------------------------

    Molecular point group: c1
  Charge       = 0
  Multiplicity = 1
  Basis Set: AUG-CC-PVTZ
    Blend: AUG-CC-PVTZ
  Basis Set: (AUG-CC-PVTZ AUX)
    Blend: AUG-CC-PVTZ-JKFIT

    Orbital Energies [Eh]
    ---------------------

    Doubly Occupied:

       1A    -11.241640     2A    -11.212802     3A    -11.212784
       4A     -1.048953     5A     -0.926524     6A     -0.785345
       7A     -0.614657     8A     -0.595463     9A     -0.551329
      10A     -0.532105    11A     -0.478306    12A     -0.476122
      13A     -0.443328

  @DF-RHF Final Energy:  -118.28887575720131

   => Energetics <=

    Nuclear Repulsion Energy =             81.8592667564958276
    One-Electron Energy =                -320.0575716120418974
    Two-Electron Energy =                 119.9094290983447593
    Total Energy =                       -118.2888757572013105
  Basis Set: (AUG-CC-PVTZ AUX)
    Blend: AUG-CC-PVTZ-RI
    Molecular point group: c1

    Geometry (in Angstrom), charge = 0, multiplicity = 1:

       Center              X                  Y                   Z               Mass
    ------------   -----------------  -----------------  -----------------  -----------------
         C            0.000001286063     0.576413081306     0.003654853317    12.000000000000
         C            1.268609286063    -0.272305918694     0.003653853317    12.000000000000
         C           -1.268610713937    -0.272307918694     0.003675853317    12.000000000000
         H            0.000004286063     1.233346081306     0.880925853317     1.007825032230
         H           -0.000009313937     1.353203281306    -1.033723246683     1.007825032230
         H            1.305805286063    -0.916576918694     0.887660853317     1.007825032230
         H            1.305754286063    -0.916646918694    -0.880303146683     1.007825032230
         H            2.167812286063     0.350629081306     0.003605853317     1.007825032230
         H           -2.167805713937     0.350636081306     0.003679853317     1.007825032230
         H           -1.305770713937    -0.916601918694     0.887666853317     1.007825032230
         H           -1.305788713937    -0.916616918694    -0.880304146683     1.007825032230

  Basis Set: AUG-CC-PVTZ
    Blend: AUG-CC-PVTZ
  Basis Set: (AUG-CC-PVTZ AUX)
    Blend: AUG-CC-PVTZ-JKFIT
	 Reference Energy          =    -118.2888757572013105 [Eh]
	 Singles Energy            =      -0.0000000000000000 [Eh]
	 Same-Spin Energy          =      -0.1224990970148884 [Eh]
	 Opposite-Spin Energy      =      -0.4868966718588345 [Eh]
	 Correlation Energy        =      -0.6093957688737229 [Eh]
	 Total Energy              =    -118.8982715260750354 [Eh]

	 ================> DF-SCS-MP2 Energies <==================
	-----------------------------------------------------------
	 SCS Same-Spin Scale       =       0.3333333333333333 [-]
	 SCS Opposite-Spin Scale   =       1.2000000000000000 [-]
	 SCS Same-Spin Energy      =      -0.0408330323382961 [Eh]
	 SCS Opposite-Spin Energy  =      -0.5842760062306014 [Eh]
	 SCS Correlation Energy    =      -0.6251090385688975 [Eh]
	 SCS Total Energy          =    -118.9139847957702045 [Eh]
	-----------------------------------------------------------

  Dipole Moment: [D]
     X:     0.0000      Y:    -0.0657      Z:     0.1400     Total:     0.1547

*** Psi4 exiting successfully. Buy a developer a beer!
