                               Psi4 1.3.2 release

  ==> Input File <==

--------------------------------------------------------------------------
#psi4
#
memory 32 gb

molecule  {
0 1
  C        0.0000010     0.5882480    -0.0000070
  C        1.3247224    -0.1699099    -0.0000096
  C       -1.2686110    -0.2604730     0.0000140
  H        0.0000040     1.2451810     0.8772640
  H       -0.0000080     1.2451610    -0.8772930
  H        1.3058050    -0.9047420     0.8839990
  H        1.3057540    -0.9048120    -0.8839650
  H        2.1678120     0.3624640    -0.0000560
  H       -2.1678060     0.3624710     0.0000180
  H       -1.3057710    -0.9047670     0.8840050
  H       -1.3057890    -0.9047820    -0.8839660
units angstrom
no_reorient  #important for SAPT in psi4, default
symmetry c1  #important for SAPT in psi4, default
}

set PROPERTIES_ORIGIN ["COM"]
properties('MP2/aug-cc-pvtz', properties = ['dipole'])
--------------------------------------------------------------------------

    Molecular point group: c1
  Charge       = 0
  Multiplicity = 1
  Basis Set: AUG-CC-PVTZ
    Blend: AUG-CC-PVTZ
  Basis Set: (AUG-CC-PVTZ AUX)
    Blend: AUG-CC-PVTZ-JKFIT

    Orbital Energies [Eh]
    ---------------------

    Doubly Occupied:

       1A    -11.218216     2A    -11.212256     3A    -11.212057
       4A     -1.051874     5A     -0.928649     6A     -0.798330
       7A     -0.618015     8A     -0.614982     9A     -0.549121
      10A     -0.517061    11A     -0.496874    12A     -0.465074
      13A     -0.454760

  @DF-RHF Final Energy:  -118.29472036245551

   => Energetics <=

    Nuclear Repulsion Energy =             82.3862617788909830
    One-Electron Energy =                -321.0874257249515722
    Two-Electron Energy =                 120.4064435836050961
    Total Energy =                       -118.2947203624555073
  Basis Set: (AUG-CC-PVTZ AUX)
    Blend: AUG-CC-PVTZ-RI
    Molecular point group: c1

    Geometry (in Angstrom), charge = 0, multiplicity = 1:

       Center              X                  Y                   Z               Mass
    ------------   -----------------  -----------------  -----------------  -----------------
         C           -0.015280662995     0.554491588898    -0.000006429152    12.000000000000
         C            1.309440737005    -0.203666311102    -0.000009029152    12.000000000000
         C           -1.283892662995    -0.294229411102     0.000014570848    12.000000000000
         H           -0.015277662995     1.211424588898     0.877264570848     1.007825032230
         H           -0.015289662995     1.211404588898    -0.877292429152     1.007825032230
         H            1.290523337005    -0.938498411102     0.883999570848     1.007825032230
         H            1.290472337005    -0.938568411102    -0.883964429152     1.007825032230
         H            2.152530337005     0.328707588898    -0.000055429152     1.007825032230
         H           -2.183087662995     0.328714588898     0.000018570848     1.007825032230
         H           -1.321052662995    -0.938523411102     0.884005570848     1.007825032230
         H           -1.321070662995    -0.938538411102    -0.883965429152     1.007825032230

  Basis Set: AUG-CC-PVTZ
    Blend: AUG-CC-PVTZ
  Basis Set: (AUG-CC-PVTZ AUX)
    Blend: AUG-CC-PVTZ-JKFIT
	 Reference Energy          =    -118.2947203624555073 [Eh]
	 Singles Energy            =      -0.0000000000000000 [Eh]
	 Same-Spin Energy          =      -0.1227671221405400 [Eh]
	 Opposite-Spin Energy      =      -0.4860114417019087 [Eh]
	 Correlation Energy        =      -0.6087785638424487 [Eh]
	 Total Energy              =    -118.9034989262979565 [Eh]

	 ================> DF-SCS-MP2 Energies <==================
	-----------------------------------------------------------
	 SCS Same-Spin Scale       =       0.3333333333333333 [-]
	 SCS Opposite-Spin Scale   =       1.2000000000000000 [-]
	 SCS Same-Spin Energy      =      -0.0409223740468467 [Eh]
	 SCS Opposite-Spin Energy  =      -0.5832137300422904 [Eh]
	 SCS Correlation Energy    =      -0.6241361040891370 [Eh]
	 SCS Total Energy          =    -118.9188564665446393 [Eh]
	-----------------------------------------------------------

  Dipole Moment: [D]
     X:    -0.0227      Y:     0.1230      Z:     0.0000     Total:     0.1250

*** Psi4 exiting successfully. Buy a developer a beer!
