                               Psi4 1.3.2 release

  ==> Input File <==

--------------------------------------------------------------------------
#psi4
#
memory 32 gb

molecule  {
0 1
  C        0.0000010     0.5882480    -0.0000070
  C        1.2686090    -0.2604710    -0.0000080
  C       -1.2605908    -0.2720424     0.0226298
  H        0.0000040     1.2451810     0.8772640
  H       -0.0000080     1.2451610    -0.8772930
  H        1.3058050    -0.9047420     0.8839990
  H        1.3057540    -0.9048120    -0.8839650
  H        2.1678120     0.3624640    -0.0000560
  H       -2.1678060     0.3624710     0.0000180
  H       -1.3057710    -0.9047670     0.8840050
  H       -1.3057890    -0.9047820    -0.8839660
units angstrom
no_reorient  #important for SAPT in psi4, default
symmetry c1  #important for SAPT in psi4, default
}

set PROPERTIES_ORIGIN ["COM"]
properties('MP2/aug-cc-pvtz', properties = ['dipole'])
--------------------------------------------------------------------------

    Molecular point group: c1
  Charge       = 0
  Multiplicity = 1
  Basis Set: AUG-CC-PVTZ
    Blend: AUG-CC-PVTZ
  Basis Set: (AUG-CC-PVTZ AUX)
    Blend: AUG-CC-PVTZ-JKFIT

    Orbital Energies [Eh]
    ---------------------

    Doubly Occupied:

       1A    -11.217383     2A    -11.209813     3A    -11.209479
       4A     -1.052505     5A     -0.923516     6A     -0.798753
       7A     -0.624342     8A     -0.594752     9A     -0.549616
      10A     -0.530980    11A     -0.476880    12A     -0.471319
      13A     -0.467085

  @DF-RHF Final Energy:  -118.30735964702482

   => Energetics <=

    Nuclear Repulsion Energy =             82.6089661836037124
    One-Electron Energy =                -321.5798037082062137
    Two-Electron Energy =                 120.6634778775776766
    Total Energy =                       -118.3073596470248248
  Basis Set: (AUG-CC-PVTZ AUX)
    Blend: AUG-CC-PVTZ-RI
    Molecular point group: c1

    Geometry (in Angstrom), charge = 0, multiplicity = 1:

       Center              X                  Y                   Z               Mass
    ------------   -----------------  -----------------  -----------------  -----------------
         C           -0.002182970244     0.582305789440    -0.006166047477    12.000000000000
         C            1.266425029756    -0.266413210560    -0.006167047477    12.000000000000
         C           -1.262774770244    -0.277984610560     0.016470752523    12.000000000000
         H           -0.002179970244     1.239238789440     0.871104952523     1.007825032230
         H           -0.002191970244     1.239218789440    -0.883452047477     1.007825032230
         H            1.303621029756    -0.910684210560     0.877839952523     1.007825032230
         H            1.303570029756    -0.910754210560    -0.890124047477     1.007825032230
         H            2.165628029756     0.356521789440    -0.006215047477     1.007825032230
         H           -2.169989970244     0.356528789440    -0.006141047477     1.007825032230
         H           -1.307954970244    -0.910709210560     0.877845952523     1.007825032230
         H           -1.307972970244    -0.910724210560    -0.890125047477     1.007825032230

  Basis Set: AUG-CC-PVTZ
    Blend: AUG-CC-PVTZ
  Basis Set: (AUG-CC-PVTZ AUX)
    Blend: AUG-CC-PVTZ-JKFIT
	 Reference Energy          =    -118.3073596470248248 [Eh]
	 Singles Energy            =      -0.0000000000000000 [Eh]
	 Same-Spin Energy          =      -0.1226409473088445 [Eh]
	 Opposite-Spin Energy      =      -0.4855347021802439 [Eh]
	 Correlation Energy        =      -0.6081756494890884 [Eh]
	 Total Energy              =    -118.9155352965139087 [Eh]

	 ================> DF-SCS-MP2 Energies <==================
	-----------------------------------------------------------
	 SCS Same-Spin Scale       =       0.3333333333333333 [-]
	 SCS Opposite-Spin Scale   =       1.2000000000000000 [-]
	 SCS Same-Spin Energy      =      -0.0408803157696148 [Eh]
	 SCS Opposite-Spin Energy  =      -0.5826416426162926 [Eh]
	 SCS Correlation Energy    =      -0.6235219583859074 [Eh]
	 SCS Total Energy          =    -118.9308816054107325 [Eh]
	-----------------------------------------------------------

  Dipole Moment: [D]
     X:     0.0017      Y:     0.0854      Z:     0.0097     Total:     0.0860

*** Psi4 exiting successfully. Buy a developer a beer!
