                               Psi4 1.3.2 release

  ==> Input File <==

--------------------------------------------------------------------------
#psi4
#
memory 32 gb

molecule  {
0 1
  C        0.0000010     0.5882480    -0.0000070
  C        1.2686090    -0.2604710    -0.0000080
  C       -1.2686110    -0.2604730     0.0000140
  H        0.0000034     1.3047761     0.8293017
  H       -0.0000080     1.2451610    -0.8772930
  H        1.3058050    -0.9047420     0.8839990
  H        1.3057540    -0.9048120    -0.8839650
  H        2.1678120     0.3624640    -0.0000560
  H       -2.1678060     0.3624710     0.0000180
  H       -1.3057710    -0.9047670     0.8840050
  H       -1.3057890    -0.9047820    -0.8839660
units angstrom
no_reorient  #important for SAPT in psi4, default
symmetry c1  #important for SAPT in psi4, default
}

set PROPERTIES_ORIGIN ["COM"]
properties('MP2/aug-cc-pvtz', properties = ['dipole'])
--------------------------------------------------------------------------

    Molecular point group: c1
  Charge       = 0
  Multiplicity = 1
  Basis Set: AUG-CC-PVTZ
    Blend: AUG-CC-PVTZ
  Basis Set: (AUG-CC-PVTZ AUX)
    Blend: AUG-CC-PVTZ-JKFIT

    Orbital Energies [Eh]
    ---------------------

    Doubly Occupied:

       1A    -11.217153     2A    -11.210175     3A    -11.210137
       4A     -1.051816     5A     -0.923941     6A     -0.800390
       7A     -0.619231     8A     -0.598206     9A     -0.548986
      10A     -0.529891    11A     -0.479327    12A     -0.474685
      13A     -0.462810

  @DF-RHF Final Energy:  -118.30758282520088

   => Energetics <=

    Nuclear Repulsion Energy =             82.5457751204295249
    One-Electron Energy =                -321.4532247557849587
    Two-Electron Energy =                 120.5998668101545377
    Total Energy =                       -118.3075828252008819
  Basis Set: (AUG-CC-PVTZ AUX)
    Blend: AUG-CC-PVTZ-RI
    Molecular point group: c1

    Geometry (in Angstrom), charge = 0, multiplicity = 1:

       Center              X                  Y                   Z               Mass
    ------------   -----------------  -----------------  -----------------  -----------------
         C            0.000001263191     0.577791888027     0.001090156303    12.000000000000
         C            1.268609263191    -0.270927111973     0.001089156303    12.000000000000
         C           -1.268610736809    -0.270929111973     0.001111156303    12.000000000000
         H            0.000003663191     1.294319988027     0.830398856303     1.007825032230
         H           -0.000007736809     1.234704888027    -0.876195843697     1.007825032230
         H            1.305805263191    -0.915198111973     0.885096156303     1.007825032230
         H            1.305754263191    -0.915268111973    -0.882867843697     1.007825032230
         H            2.167812263191     0.352007888027     0.001041156303     1.007825032230
         H           -2.167805736809     0.352014888027     0.001115156303     1.007825032230
         H           -1.305770736809    -0.915223111973     0.885102156303     1.007825032230
         H           -1.305788736809    -0.915238111973    -0.882868843697     1.007825032230

  Basis Set: AUG-CC-PVTZ
    Blend: AUG-CC-PVTZ
  Basis Set: (AUG-CC-PVTZ AUX)
    Blend: AUG-CC-PVTZ-JKFIT
	 Reference Energy          =    -118.3075828252008819 [Eh]
	 Singles Energy            =      -0.0000000000000000 [Eh]
	 Same-Spin Energy          =      -0.1226469154353408 [Eh]
	 Opposite-Spin Energy      =      -0.4854834553825346 [Eh]
	 Correlation Energy        =      -0.6081303708178754 [Eh]
	 Total Energy              =    -118.9157131960187570 [Eh]

	 ================> DF-SCS-MP2 Energies <==================
	-----------------------------------------------------------
	 SCS Same-Spin Scale       =       0.3333333333333333 [-]
	 SCS Opposite-Spin Scale   =       1.2000000000000000 [-]
	 SCS Same-Spin Energy      =      -0.0408823051451136 [Eh]
	 SCS Opposite-Spin Energy  =      -0.5825801464590414 [Eh]
	 SCS Correlation Energy    =      -0.6234624516041550 [Eh]
	 SCS Total Energy          =    -118.9310452768050368 [Eh]
	-----------------------------------------------------------

  Dipole Moment: [D]
     X:     0.0000      Y:     0.1008      Z:    -0.0129     Total:     0.1016

*** Psi4 exiting successfully. Buy a developer a beer!
