                               Psi4 1.3.2 release

  ==> Input File <==

--------------------------------------------------------------------------
#psi4
#
memory 32 gb

molecule  {
0 1
  C        0.0000010     0.5882480    -0.0000070
  C        1.2686090    -0.2604710    -0.0000080
  C       -1.2686110    -0.2604730     0.0000140
  H        0.0000037     1.2753971     0.8538030
  H       -0.0000080     1.2451610    -0.8772930
  H        1.3058050    -0.9047420     0.8839990
  H        1.3057540    -0.9048120    -0.8839650
  H        2.1678120     0.3624640    -0.0000560
  H       -2.1678060     0.3624710     0.0000180
  H       -1.3057710    -0.9047670     0.8840050
  H       -1.3057890    -0.9047820    -0.8839660
units angstrom
no_reorient  #important for SAPT in psi4, default
symmetry c1  #important for SAPT in psi4, default
}

set PROPERTIES_ORIGIN ["COM"]
properties('MP2/aug-cc-pvtz', properties = ['dipole'])
--------------------------------------------------------------------------

    Molecular point group: c1
  Charge       = 0
  Multiplicity = 1
  Basis Set: AUG-CC-PVTZ
    Blend: AUG-CC-PVTZ
  Basis Set: (AUG-CC-PVTZ AUX)
    Blend: AUG-CC-PVTZ-JKFIT

    Orbital Energies [Eh]
    ---------------------

    Doubly Occupied:

       1A    -11.217227     2A    -11.209956     3A    -11.209919
       4A     -1.052030     5A     -0.923904     6A     -0.799351
       7A     -0.621220     8A     -0.597418     9A     -0.548933
      10A     -0.529877    11A     -0.476974    12A     -0.474649
      13A     -0.465151

  @DF-RHF Final Energy:  -118.30802024228527

   => Energetics <=

    Nuclear Repulsion Energy =             82.5623705288398071
    One-Electron Energy =                -321.4875645818268026
    Two-Electron Energy =                 120.6171738107017291
    Total Energy =                       -118.3080202422852665
  Basis Set: (AUG-CC-PVTZ AUX)
    Blend: AUG-CC-PVTZ-RI
    Molecular point group: c1

    Geometry (in Angstrom), charge = 0, multiplicity = 1:

       Center              X                  Y                   Z               Mass
    ------------   -----------------  -----------------  -----------------  -----------------
         C            0.000001256329     0.578463861343     0.000529748535    12.000000000000
         C            1.268609256329    -0.270255138657     0.000528748535    12.000000000000
         C           -1.268610743671    -0.270257138657     0.000550748535    12.000000000000
         H            0.000003956329     1.265612961343     0.854339748535     1.007825032230
         H           -0.000007743671     1.235376861343    -0.876756251465     1.007825032230
         H            1.305805256329    -0.914526138657     0.884535748535     1.007825032230
         H            1.305754256329    -0.914596138657    -0.883428251465     1.007825032230
         H            2.167812256329     0.352679861343     0.000480748535     1.007825032230
         H           -2.167805743671     0.352686861343     0.000554748535     1.007825032230
         H           -1.305770743671    -0.914551138657     0.884541748535     1.007825032230
         H           -1.305788743671    -0.914566138657    -0.883429251465     1.007825032230

  Basis Set: AUG-CC-PVTZ
    Blend: AUG-CC-PVTZ
  Basis Set: (AUG-CC-PVTZ AUX)
    Blend: AUG-CC-PVTZ-JKFIT
	 Reference Energy          =    -118.3080202422852665 [Eh]
	 Singles Energy            =      -0.0000000000000000 [Eh]
	 Same-Spin Energy          =      -0.1226297214637097 [Eh]
	 Opposite-Spin Energy      =      -0.4854761605045316 [Eh]
	 Correlation Energy        =      -0.6081058819682412 [Eh]
	 Total Energy              =    -118.9161261242535090 [Eh]

	 ================> DF-SCS-MP2 Energies <==================
	-----------------------------------------------------------
	 SCS Same-Spin Scale       =       0.3333333333333333 [-]
	 SCS Opposite-Spin Scale   =       1.2000000000000000 [-]
	 SCS Same-Spin Energy      =      -0.0408765738212366 [Eh]
	 SCS Opposite-Spin Energy  =      -0.5825713926054379 [Eh]
	 SCS Correlation Energy    =      -0.6234479664266744 [Eh]
	 SCS Total Energy          =    -118.9314682087119479 [Eh]
	-----------------------------------------------------------

  Dipole Moment: [D]
     X:     0.0000      Y:     0.0946      Z:    -0.0061     Total:     0.0948

*** Psi4 exiting successfully. Buy a developer a beer!
