                               Psi4 1.3.2 release

  ==> Input File <==

--------------------------------------------------------------------------
#psi4
#
memory 32 gb

molecule  {
0 1
  C        0.0000010     0.5882480    -0.0000070
  C        1.2686090    -0.2604710    -0.0000080
  C       -1.2147830    -0.3258909     0.1354679
  H        0.0000040     1.2451810     0.8772640
  H       -0.0000080     1.2451610    -0.8772930
  H        1.3058050    -0.9047420     0.8839990
  H        1.3057540    -0.9048120    -0.8839650
  H        2.1678120     0.3624640    -0.0000560
  H       -2.1678060     0.3624710     0.0000180
  H       -1.3057710    -0.9047670     0.8840050
  H       -1.3057890    -0.9047820    -0.8839660
units angstrom
no_reorient  #important for SAPT in psi4, default
symmetry c1  #important for SAPT in psi4, default
}

set PROPERTIES_ORIGIN ["COM"]
properties('MP2/aug-cc-pvtz', properties = ['dipole'])
--------------------------------------------------------------------------

    Molecular point group: c1
  Charge       = 0
  Multiplicity = 1
  Basis Set: AUG-CC-PVTZ
    Blend: AUG-CC-PVTZ
  Basis Set: (AUG-CC-PVTZ AUX)
    Blend: AUG-CC-PVTZ-JKFIT

    Orbital Energies [Eh]
    ---------------------

    Doubly Occupied:

       1A    -11.219752     2A    -11.213932     3A    -11.208796
       4A     -1.055249     5A     -0.924688     6A     -0.805417
       7A     -0.631674     8A     -0.589435     9A     -0.570191
      10A     -0.522945    11A     -0.490654    12A     -0.457425
      13A     -0.449121

  @DF-RHF Final Energy:  -118.27640249797994

   => Energetics <=

    Nuclear Repulsion Energy =             82.7847516867651763
    One-Electron Energy =                -321.8437485901630453
    Two-Electron Energy =                 120.7825944054179388
    Total Energy =                       -118.2764024979799444
  Basis Set: (AUG-CC-PVTZ AUX)
    Blend: AUG-CC-PVTZ-RI
    Molecular point group: c1

    Geometry (in Angstrom), charge = 0, multiplicity = 1:

       Center              X                  Y                   Z               Mass
    ------------   -----------------  -----------------  -----------------  -----------------
         C           -0.014658257603     0.596970879476    -0.036896353725    12.000000000000
         C            1.253949742397    -0.251748120524    -0.036897353725    12.000000000000
         C           -1.229442257603    -0.317168020524     0.098578546275    12.000000000000
         H           -0.014655257603     1.253903879476     0.840374646275     1.007825032230
         H           -0.014667257603     1.253883879476    -0.914182353725     1.007825032230
         H            1.291145742397    -0.896019120524     0.847109646275     1.007825032230
         H            1.291094742397    -0.896089120524    -0.920854353725     1.007825032230
         H            2.153152742397     0.371186879476    -0.036945353725     1.007825032230
         H           -2.182465257603     0.371193879476    -0.036871353725     1.007825032230
         H           -1.320430257603    -0.896044120524     0.847115646275     1.007825032230
         H           -1.320448257603    -0.896059120524    -0.920855353725     1.007825032230

  Basis Set: AUG-CC-PVTZ
    Blend: AUG-CC-PVTZ
  Basis Set: (AUG-CC-PVTZ AUX)
    Blend: AUG-CC-PVTZ-JKFIT
	 Reference Energy          =    -118.2764024979799444 [Eh]
	 Singles Energy            =      -0.0000000000000000 [Eh]
	 Same-Spin Energy          =      -0.1230440810431047 [Eh]
	 Opposite-Spin Energy      =      -0.4868712923856493 [Eh]
	 Correlation Energy        =      -0.6099153734287539 [Eh]
	 Total Energy              =    -118.8863178714086928 [Eh]

	 ================> DF-SCS-MP2 Energies <==================
	-----------------------------------------------------------
	 SCS Same-Spin Scale       =       0.3333333333333333 [-]
	 SCS Opposite-Spin Scale   =       1.2000000000000000 [-]
	 SCS Same-Spin Energy      =      -0.0410146936810349 [Eh]
	 SCS Opposite-Spin Energy  =      -0.5842455508627792 [Eh]
	 SCS Correlation Energy    =      -0.6252602445438140 [Eh]
	 SCS Total Energy          =    -118.9016627425237544 [Eh]
	-----------------------------------------------------------

  Dipole Moment: [D]
     X:     0.0416      Y:     0.0989      Z:     0.0378     Total:     0.1138

*** Psi4 exiting successfully. Buy a developer a beer!
