                               Psi4 1.3.2 release

  ==> Input File <==

--------------------------------------------------------------------------
#psi4
#
memory 32 gb

molecule  {
0 1
  C        0.0000010     0.5882480    -0.0000070
  C        1.2063151    -0.3468972    -0.0000064
  C       -1.2686110    -0.2604730     0.0000140
  H        0.0000040     1.2451810     0.8772640
  H       -0.0000080     1.2451610    -0.8772930
  H        1.3058050    -0.9047420     0.8839990
  H        1.3057540    -0.9048120    -0.8839650
  H        2.1678120     0.3624640    -0.0000560
  H       -2.1678060     0.3624710     0.0000180
  H       -1.3057710    -0.9047670     0.8840050
  H       -1.3057890    -0.9047820    -0.8839660
units angstrom
no_reorient  #important for SAPT in psi4, default
symmetry c1  #important for SAPT in psi4, default
}

set PROPERTIES_ORIGIN ["COM"]
properties('MP2/aug-cc-pvtz', properties = ['dipole'])
--------------------------------------------------------------------------

    Molecular point group: c1
  Charge       = 0
  Multiplicity = 1
  Basis Set: AUG-CC-PVTZ
    Blend: AUG-CC-PVTZ
  Basis Set: (AUG-CC-PVTZ AUX)
    Blend: AUG-CC-PVTZ-JKFIT

    Orbital Energies [Eh]
    ---------------------

    Doubly Occupied:

       1A    -11.218353     2A    -11.211462     3A    -11.208229
       4A     -1.054497     5A     -0.921822     6A     -0.801527
       7A     -0.632459     8A     -0.587891     9A     -0.544930
      10A     -0.543193    11A     -0.482923    12A     -0.474700
      13A     -0.448185

  @DF-RHF Final Energy:  -118.29697133767972

   => Energetics <=

    Nuclear Repulsion Energy =             82.8049643891480827
    One-Electron Energy =                -321.9435306530454568
    Two-Electron Energy =                 120.8415949262176383
    Total Energy =                       -118.2969713376797216
  Basis Set: (AUG-CC-PVTZ AUX)
    Blend: AUG-CC-PVTZ-RI
    Molecular point group: c1

    Geometry (in Angstrom), charge = 0, multiplicity = 1:

       Center              X                  Y                   Z               Mass
    ------------   -----------------  -----------------  -----------------  -----------------
         C            0.016966358100     0.602692275820    -0.000007300639    12.000000000000
         C            1.223280458100    -0.332452924180    -0.000006700639    12.000000000000
         C           -1.251645641900    -0.246028724180     0.000013699361    12.000000000000
         H            0.016969358100     1.259625275820     0.877263699361     1.007825032230
         H            0.016957358100     1.259605275820    -0.877293300639     1.007825032230
         H            1.322770358100    -0.890297724180     0.883998699361     1.007825032230
         H            1.322719358100    -0.890367724180    -0.883965300639     1.007825032230
         H            2.184777358100     0.376908275820    -0.000056300639     1.007825032230
         H           -2.150840641900     0.376915275820     0.000017699361     1.007825032230
         H           -1.288805641900    -0.890322724180     0.884004699361     1.007825032230
         H           -1.288823641900    -0.890337724180    -0.883966300639     1.007825032230

  Basis Set: AUG-CC-PVTZ
    Blend: AUG-CC-PVTZ
  Basis Set: (AUG-CC-PVTZ AUX)
    Blend: AUG-CC-PVTZ-JKFIT
	 Reference Energy          =    -118.2969713376797216 [Eh]
	 Singles Energy            =      -0.0000000000000000 [Eh]
	 Same-Spin Energy          =      -0.1228318259447380 [Eh]
	 Opposite-Spin Energy      =      -0.4861186792660113 [Eh]
	 Correlation Energy        =      -0.6089505052107492 [Eh]
	 Total Energy              =    -118.9059218428904643 [Eh]

	 ================> DF-SCS-MP2 Energies <==================
	-----------------------------------------------------------
	 SCS Same-Spin Scale       =       0.3333333333333333 [-]
	 SCS Opposite-Spin Scale   =       1.2000000000000000 [-]
	 SCS Same-Spin Energy      =      -0.0409439419815793 [Eh]
	 SCS Opposite-Spin Energy  =      -0.5833424151192135 [Eh]
	 SCS Correlation Energy    =      -0.6242863571007928 [Eh]
	 SCS Total Energy          =    -118.9212576947805076 [Eh]
	-----------------------------------------------------------

  Dipole Moment: [D]
     X:    -0.0305      Y:     0.0588      Z:     0.0000     Total:     0.0662

*** Psi4 exiting successfully. Buy a developer a beer!
