                               Psi4 1.4a3.dev225

  ==> Input File <==

--------------------------------------------------------------------------
#psi4
#
memory 32 gb

molecule  {
0 1
  C        0.0000000     0.5883640    -0.0000100
  C        1.2682510    -0.2604390    -0.0000090
  C       -1.2682510    -0.2604390     0.0000180
  H        0.0000090     1.2456610     0.8770720
  H       -0.0000094     1.2756146    -0.9171273
  H        1.3048980    -0.9049500     0.8838910
  H        1.3048740    -0.9049890    -0.8838810
  H        2.1678780     0.3618350    -0.0000340
  H       -2.1678780     0.3618350     0.0000190
  H       -1.3048760    -0.9049560     0.8839140
  H       -1.3048960    -0.9049840    -0.8838580
units angstrom
no_reorient  #important for SAPT in psi4, default
symmetry c1  #important for SAPT in psi4, default
}

set PROPERTIES_ORIGIN ["COM"]
properties('MP2/aug-cc-pvtz', properties = ['dipole'])
--------------------------------------------------------------------------

    Molecular point group: c1
  Charge       = 0
  Multiplicity = 1
  Basis Set: AUG-CC-PVTZ
    Blend: AUG-CC-PVTZ
  Basis Set: (AUG-CC-PVTZ AUX)
    Blend: AUG-CC-PVTZ-JKFIT

    Orbital Energies [Eh]
    ---------------------

    Doubly Occupied:

       1A    -11.223618     2A    -11.210384     3A    -11.210359
       4A     -1.050942     5A     -0.924415     6A     -0.793993
       7A     -0.620325     8A     -0.596655     9A     -0.549367
      10A     -0.530249    11A     -0.475485    12A     -0.474169
      13A     -0.462380

  @DF-RHF Final Energy:  -118.30614979714315

   => Energetics <=

    Nuclear Repulsion Energy =             82.3921606118781398
    One-Electron Energy =                -321.1519423880061481
    Two-Electron Energy =                 120.4536319789848733
    Total Energy =                       -118.3061497971431493
  Basis Set: (AUG-CC-PVTZ AUX)
    Blend: AUG-CC-PVTZ-RI
    Molecular point group: c1

    Geometry (in Angstrom), charge = 0, multiplicity = 1:

       Center              X                  Y                   Z               Mass
    ------------   -----------------  -----------------  -----------------  -----------------
         C            0.000000009149     0.578560567349     0.000905273604    12.000000000000
         C            1.268251009149    -0.270242432651     0.000906273604    12.000000000000
         C           -1.268250990851    -0.270242432651     0.000933273604    12.000000000000
         H            0.000009009149     1.235857567349     0.877987273604     1.007825032230
         H           -0.000009390851     1.265811167349    -0.916212026396     1.007825032230
         H            1.304898009149    -0.914753432651     0.884806273604     1.007825032230
         H            1.304874009149    -0.914792432651    -0.882965726396     1.007825032230
         H            2.167878009149     0.352031567349     0.000881273604     1.007825032230
         H           -2.167877990851     0.352031567349     0.000934273604     1.007825032230
         H           -1.304875990851    -0.914759432651     0.884829273604     1.007825032230
         H           -1.304895990851    -0.914787432651    -0.882942726396     1.007825032230

  Basis Set: AUG-CC-PVTZ
    Blend: AUG-CC-PVTZ
  Basis Set: (AUG-CC-PVTZ AUX)
    Blend: AUG-CC-PVTZ-JKFIT
	 Reference Energy          =    -118.3061497971431493 [Eh]
	 Singles Energy            =      -0.0000000000000000 [Eh]
	 Same-Spin Energy          =      -0.1226023554142948 [Eh]
	 Opposite-Spin Energy      =      -0.4857913085233160 [Eh]
	 Correlation Energy        =      -0.6083936639376107 [Eh]
	 Total Energy              =    -118.9145434610807541 [Eh]

	 ================> DF-SCS-MP2 Energies <==================
	-----------------------------------------------------------
	 SCS Same-Spin Scale       =       0.3333333333333333 [-]
	 SCS Opposite-Spin Scale   =       1.2000000000000000 [-]
	 SCS Same-Spin Energy      =      -0.0408674518047649 [Eh]
	 SCS Opposite-Spin Energy  =      -0.5829495702279791 [Eh]
	 SCS Correlation Energy    =      -0.6238170220327440 [Eh]
	 SCS Total Energy          =    -118.9299668191758883 [Eh]
	-----------------------------------------------------------

  Dipole Moment: [D]
     X:     0.0000      Y:     0.0557      Z:     0.0292     Total:     0.0629

*** Psi4 exiting successfully. Buy a developer a beer!
