                               Psi4 1.3.2 release

  ==> Input File <==

--------------------------------------------------------------------------
#psi4
#
memory 32 gb

molecule  {
0 1
  C        0.0000010     0.5882480    -0.0000070
  C        1.2974561    -0.2156802    -0.0000088
  C       -1.2686110    -0.2604730     0.0000140
  H        0.0000040     1.2451810     0.8772640
  H       -0.0000080     1.2451610    -0.8772930
  H        1.3058050    -0.9047420     0.8839990
  H        1.3057540    -0.9048120    -0.8839650
  H        2.1678120     0.3624640    -0.0000560
  H       -2.1678060     0.3624710     0.0000180
  H       -1.3057710    -0.9047670     0.8840050
  H       -1.3057890    -0.9047820    -0.8839660
units angstrom
no_reorient  #important for SAPT in psi4, default
symmetry c1  #important for SAPT in psi4, default
}

set PROPERTIES_ORIGIN ["COM"]
properties('MP2/aug-cc-pvtz', properties = ['dipole'])
--------------------------------------------------------------------------

    Molecular point group: c1
  Charge       = 0
  Multiplicity = 1
  Basis Set: AUG-CC-PVTZ
    Blend: AUG-CC-PVTZ
  Basis Set: (AUG-CC-PVTZ AUX)
    Blend: AUG-CC-PVTZ-JKFIT

    Orbital Energies [Eh]
    ---------------------

    Doubly Occupied:

       1A    -11.217502     2A    -11.210868     3A    -11.210400
       4A     -1.051846     5A     -0.925871     6A     -0.797780
       7A     -0.620173     8A     -0.605109     9A     -0.549494
      10A     -0.522869    11A     -0.486277    12A     -0.470021
      13A     -0.461773

  @DF-RHF Final Energy:  -118.30497742620878

   => Energetics <=

    Nuclear Repulsion Energy =             82.4780056457557436
    One-Electron Energy =                -321.3059981747020402
    Two-Electron Energy =                 120.5230151027375314
    Total Energy =                       -118.3049774262087794
  Basis Set: (AUG-CC-PVTZ AUX)
    Blend: AUG-CC-PVTZ-RI
    Molecular point group: c1

    Geometry (in Angstrom), charge = 0, multiplicity = 1:

       Center              X                  Y                   Z               Mass
    ------------   -----------------  -----------------  -----------------  -----------------
         C           -0.007854964146     0.566956663514    -0.000006647024    12.000000000000
         C            1.289600135854    -0.236971536486    -0.000008447024    12.000000000000
         C           -1.276466964146    -0.281764336486     0.000014352976    12.000000000000
         H           -0.007851964146     1.223889663514     0.877264352976     1.007825032230
         H           -0.007863964146     1.223869663514    -0.877292647024     1.007825032230
         H            1.297949035854    -0.926033336486     0.883999352976     1.007825032230
         H            1.297898035854    -0.926103336486    -0.883964647024     1.007825032230
         H            2.159956035854     0.341172663514    -0.000055647024     1.007825032230
         H           -2.175661964146     0.341179663514     0.000018352976     1.007825032230
         H           -1.313626964146    -0.926058336486     0.884005352976     1.007825032230
         H           -1.313644964146    -0.926073336486    -0.883965647024     1.007825032230

  Basis Set: AUG-CC-PVTZ
    Blend: AUG-CC-PVTZ
  Basis Set: (AUG-CC-PVTZ AUX)
    Blend: AUG-CC-PVTZ-JKFIT
	 Reference Energy          =    -118.3049774262087794 [Eh]
	 Singles Energy            =      -0.0000000000000000 [Eh]
	 Same-Spin Energy          =      -0.1226510461961762 [Eh]
	 Opposite-Spin Energy      =      -0.4855992509586466 [Eh]
	 Correlation Energy        =      -0.6082502971548227 [Eh]
	 Total Energy              =    -118.9132277233636046 [Eh]

	 ================> DF-SCS-MP2 Energies <==================
	-----------------------------------------------------------
	 SCS Same-Spin Scale       =       0.3333333333333333 [-]
	 SCS Opposite-Spin Scale   =       1.2000000000000000 [-]
	 SCS Same-Spin Energy      =      -0.0408836820653921 [Eh]
	 SCS Opposite-Spin Energy  =      -0.5827191011503758 [Eh]
	 SCS Correlation Energy    =      -0.6236027832157679 [Eh]
	 SCS Total Energy          =    -118.9285802094245525 [Eh]
	-----------------------------------------------------------

  Dipole Moment: [D]
     X:    -0.0043      Y:     0.1051      Z:    -0.0000     Total:     0.1052

*** Psi4 exiting successfully. Buy a developer a beer!
