                               Psi4 1.3.2 release

  ==> Input File <==

--------------------------------------------------------------------------
#psi4
#
memory 32 gb

molecule  {
0 1
  C        0.0000010     0.5882480    -0.0000070
  C        1.3503747    -0.1232160    -0.0000103
  C       -1.2686110    -0.2604730     0.0000140
  H        0.0000040     1.2451810     0.8772640
  H       -0.0000080     1.2451610    -0.8772930
  H        1.3058050    -0.9047420     0.8839990
  H        1.3057540    -0.9048120    -0.8839650
  H        2.1678120     0.3624640    -0.0000560
  H       -2.1678060     0.3624710     0.0000180
  H       -1.3057710    -0.9047670     0.8840050
  H       -1.3057890    -0.9047820    -0.8839660
units angstrom
no_reorient  #important for SAPT in psi4, default
symmetry c1  #important for SAPT in psi4, default
}

set PROPERTIES_ORIGIN ["COM"]
properties('MP2/aug-cc-pvtz', properties = ['dipole'])
--------------------------------------------------------------------------

    Molecular point group: c1
  Charge       = 0
  Multiplicity = 1
  Basis Set: AUG-CC-PVTZ
    Blend: AUG-CC-PVTZ
  Basis Set: (AUG-CC-PVTZ AUX)
    Blend: AUG-CC-PVTZ-JKFIT

    Orbital Energies [Eh]
    ---------------------

    Doubly Occupied:

       1A    -11.219468     2A    -11.214685     3A    -11.213878
       4A     -1.052361     5A     -0.932284     6A     -0.800381
       7A     -0.625017     8A     -0.616676     9A     -0.548192
      10A     -0.512760    11A     -0.506542    12A     -0.459794
      13A     -0.446235

  @DF-RHF Final Energy:  -118.27656931144688

   => Energetics <=

    Nuclear Repulsion Energy =             82.3068919268132220
    One-Electron Energy =                -320.8703758065739748
    Two-Electron Energy =                 120.2869145683138754
    Total Energy =                       -118.2765693114468775
  Basis Set: (AUG-CC-PVTZ AUX)
    Blend: AUG-CC-PVTZ-RI
    Molecular point group: c1

    Geometry (in Angstrom), charge = 0, multiplicity = 1:

       Center              X                  Y                   Z               Mass
    ------------   -----------------  -----------------  -----------------  -----------------
         C           -0.022266805397     0.541774981237    -0.000006238514    12.000000000000
         C            1.328106894603    -0.169689018763    -0.000009538514    12.000000000000
         C           -1.290878805397    -0.306946018763     0.000014761486    12.000000000000
         H           -0.022263805397     1.198707981237     0.877264761486     1.007825032230
         H           -0.022275805397     1.198687981237    -0.877292238514     1.007825032230
         H            1.283537194603    -0.951215018763     0.883999761486     1.007825032230
         H            1.283486194603    -0.951285018763    -0.883964238514     1.007825032230
         H            2.145544194603     0.315990981237    -0.000055238514     1.007825032230
         H           -2.190073805397     0.315997981237     0.000018761486     1.007825032230
         H           -1.328038805397    -0.951240018763     0.884005761486     1.007825032230
         H           -1.328056805397    -0.951255018763    -0.883965238514     1.007825032230

  Basis Set: AUG-CC-PVTZ
    Blend: AUG-CC-PVTZ
  Basis Set: (AUG-CC-PVTZ AUX)
    Blend: AUG-CC-PVTZ-JKFIT
	 Reference Energy          =    -118.2765693114468775 [Eh]
	 Singles Energy            =      -0.0000000000000000 [Eh]
	 Same-Spin Energy          =      -0.1229777858308821 [Eh]
	 Opposite-Spin Energy      =      -0.4867491977506685 [Eh]
	 Correlation Energy        =      -0.6097269835815506 [Eh]
	 Total Energy              =    -118.8862962950284299 [Eh]

	 ================> DF-SCS-MP2 Energies <==================
	-----------------------------------------------------------
	 SCS Same-Spin Scale       =       0.3333333333333333 [-]
	 SCS Opposite-Spin Scale   =       1.2000000000000000 [-]
	 SCS Same-Spin Energy      =      -0.0409925952769607 [Eh]
	 SCS Opposite-Spin Energy  =      -0.5840990373008021 [Eh]
	 SCS Correlation Energy    =      -0.6250916325777629 [Eh]
	 SCS Total Energy          =    -118.9016609440246413 [Eh]
	-----------------------------------------------------------

  Dipole Moment: [D]
     X:    -0.0551      Y:     0.1426      Z:     0.0000     Total:     0.1529

*** Psi4 exiting successfully. Buy a developer a beer!
