                               Psi4 1.3.2 release

  ==> Input File <==

--------------------------------------------------------------------------
#psi4
#
memory 32 gb

molecule  {
0 1
  C        0.0000010     0.5882480    -0.0000070
  C        1.2686090    -0.2604710    -0.0000080
  C       -1.2686110    -0.2604730     0.0000140
  H        0.0000043     1.2141645     0.8996562
  H       -0.0000080     1.2451610    -0.8772930
  H        1.3058050    -0.9047420     0.8839990
  H        1.3057540    -0.9048120    -0.8839650
  H        2.1678120     0.3624640    -0.0000560
  H       -2.1678060     0.3624710     0.0000180
  H       -1.3057710    -0.9047670     0.8840050
  H       -1.3057890    -0.9047820    -0.8839660
units angstrom
no_reorient  #important for SAPT in psi4, default
symmetry c1  #important for SAPT in psi4, default
}

set PROPERTIES_ORIGIN ["COM"]
properties('MP2/aug-cc-pvtz', properties = ['dipole'])
--------------------------------------------------------------------------

    Molecular point group: c1
  Charge       = 0
  Multiplicity = 1
  Basis Set: AUG-CC-PVTZ
    Blend: AUG-CC-PVTZ
  Basis Set: (AUG-CC-PVTZ AUX)
    Blend: AUG-CC-PVTZ-JKFIT

    Orbital Energies [Eh]
    ---------------------

    Doubly Occupied:

       1A    -11.217386     2A    -11.209549     3A    -11.209514
       4A     -1.052562     5A     -0.923847     6A     -0.797397
       7A     -0.625360     8A     -0.595893     9A     -0.548837
      10A     -0.529869    11A     -0.474595    12A     -0.472713
      13A     -0.468743

  @DF-RHF Final Energy:  -118.30799965677258

   => Energetics <=

    Nuclear Repulsion Energy =             82.5990237499171087
    One-Electron Energy =                -321.5615140484881067
    Two-Electron Energy =                 120.6544906417984180
    Total Energy =                       -118.3079996567725800
  Basis Set: (AUG-CC-PVTZ AUX)
    Blend: AUG-CC-PVTZ-RI
    Molecular point group: c1

    Geometry (in Angstrom), charge = 0, multiplicity = 1:

       Center              X                  Y                   Z               Mass
    ------------   -----------------  -----------------  -----------------  -----------------
         C            0.000001242605     0.579864408445    -0.000519032120    12.000000000000
         C            1.268609242605    -0.268854591555    -0.000520032120    12.000000000000
         C           -1.268610757395    -0.268856591555    -0.000498032120    12.000000000000
         H            0.000004542605     1.205780908445     0.899144167880     1.007825032230
         H           -0.000007757395     1.236777408445    -0.877805032120     1.007825032230
         H            1.305805242605    -0.913125591555     0.883486967880     1.007825032230
         H            1.305754242605    -0.913195591555    -0.884477032120     1.007825032230
         H            2.167812242605     0.354080408445    -0.000568032120     1.007825032230
         H           -2.167805757395     0.354087408445    -0.000494032120     1.007825032230
         H           -1.305770757395    -0.913150591555     0.883492967880     1.007825032230
         H           -1.305788757395    -0.913165591555    -0.884478032120     1.007825032230

  Basis Set: AUG-CC-PVTZ
    Blend: AUG-CC-PVTZ
  Basis Set: (AUG-CC-PVTZ AUX)
    Blend: AUG-CC-PVTZ-JKFIT
	 Reference Energy          =    -118.3079996567725800 [Eh]
	 Singles Energy            =      -0.0000000000000000 [Eh]
	 Same-Spin Energy          =      -0.1226348987138720 [Eh]
	 Opposite-Spin Energy      =      -0.4855266331025923 [Eh]
	 Correlation Energy        =      -0.6081615318164643 [Eh]
	 Total Energy              =    -118.9161611885890437 [Eh]

	 ================> DF-SCS-MP2 Energies <==================
	-----------------------------------------------------------
	 SCS Same-Spin Scale       =       0.3333333333333333 [-]
	 SCS Opposite-Spin Scale   =       1.2000000000000000 [-]
	 SCS Same-Spin Energy      =      -0.0408782995712907 [Eh]
	 SCS Opposite-Spin Energy  =      -0.5826319597231107 [Eh]
	 SCS Correlation Energy    =      -0.6235102592944013 [Eh]
	 SCS Total Energy          =    -118.9315099160669860 [Eh]
	-----------------------------------------------------------

  Dipole Moment: [D]
     X:     0.0000      Y:     0.0829      Z:     0.0053     Total:     0.0831

*** Psi4 exiting successfully. Buy a developer a beer!
