                               Psi4 1.3.2 release

  ==> Input File <==

--------------------------------------------------------------------------
#psi4
#
memory 32 gb

molecule  {
0 1
  C        0.0000010     0.5882480    -0.0000070
  C        1.2686090    -0.2604710    -0.0000080
  C       -1.2762447    -0.2486451    -0.0226018
  H        0.0000040     1.2451810     0.8772640
  H       -0.0000080     1.2451610    -0.8772930
  H        1.3058050    -0.9047420     0.8839990
  H        1.3057540    -0.9048120    -0.8839650
  H        2.1678120     0.3624640    -0.0000560
  H       -2.1678060     0.3624710     0.0000180
  H       -1.3057710    -0.9047670     0.8840050
  H       -1.3057890    -0.9047820    -0.8839660
units angstrom
no_reorient  #important for SAPT in psi4, default
symmetry c1  #important for SAPT in psi4, default
}

set PROPERTIES_ORIGIN ["COM"]
properties('MP2/aug-cc-pvtz', properties = ['dipole'])
--------------------------------------------------------------------------

    Molecular point group: c1
  Charge       = 0
  Multiplicity = 1
  Basis Set: AUG-CC-PVTZ
    Blend: AUG-CC-PVTZ
  Basis Set: (AUG-CC-PVTZ AUX)
    Blend: AUG-CC-PVTZ-JKFIT

    Orbital Energies [Eh]
    ---------------------

    Doubly Occupied:

       1A    -11.217354     2A    -11.210016     3A    -11.209899
       4A     -1.052156     5A     -0.924376     6A     -0.798207
       7A     -0.622480     8A     -0.598602     9A     -0.550037
      10A     -0.527328    11A     -0.477747    12A     -0.474621
      13A     -0.464479

  @DF-RHF Final Energy:  -118.30743174074159

   => Energetics <=

    Nuclear Repulsion Energy =             82.5525699277964975
    One-Electron Energy =                -321.4653979801485661
    Two-Electron Energy =                 120.6053963116104768
    Total Energy =                       -118.3074317407415919
  Basis Set: (AUG-CC-PVTZ AUX)
    Blend: AUG-CC-PVTZ-RI
    Molecular point group: c1

    Geometry (in Angstrom), charge = 0, multiplicity = 1:

       Center              X                  Y                   Z               Mass
    ------------   -----------------  -----------------  -----------------  -----------------
         C            0.002080209843     0.575933773301     0.006152317686    12.000000000000
         C            1.270688209843    -0.272785226699     0.006151317686    12.000000000000
         C           -1.274165490157    -0.260959326699    -0.016442482314    12.000000000000
         H            0.002083209843     1.232866773301     0.883423317686     1.007825032230
         H            0.002071209843     1.232846773301    -0.871133682314     1.007825032230
         H            1.307884209843    -0.917056226699     0.890158317686     1.007825032230
         H            1.307833209843    -0.917126226699    -0.877805682314     1.007825032230
         H            2.169891209843     0.350149773301     0.006103317686     1.007825032230
         H           -2.165726790157     0.350156773301     0.006177317686     1.007825032230
         H           -1.303691790157    -0.917081226699     0.890164317686     1.007825032230
         H           -1.303709790157    -0.917096226699    -0.877806682314     1.007825032230

  Basis Set: AUG-CC-PVTZ
    Blend: AUG-CC-PVTZ
  Basis Set: (AUG-CC-PVTZ AUX)
    Blend: AUG-CC-PVTZ-JKFIT
	 Reference Energy          =    -118.3074317407415919 [Eh]
	 Singles Energy            =      -0.0000000000000000 [Eh]
	 Same-Spin Energy          =      -0.1226308229818829 [Eh]
	 Opposite-Spin Energy      =      -0.4855140458337520 [Eh]
	 Correlation Energy        =      -0.6081448688156349 [Eh]
	 Total Energy              =    -118.9155766095572204 [Eh]

	 ================> DF-SCS-MP2 Energies <==================
	-----------------------------------------------------------
	 SCS Same-Spin Scale       =       0.3333333333333333 [-]
	 SCS Opposite-Spin Scale   =       1.2000000000000000 [-]
	 SCS Same-Spin Energy      =      -0.0408769409939610 [Eh]
	 SCS Opposite-Spin Energy  =      -0.5826168550005024 [Eh]
	 SCS Correlation Energy    =      -0.6234937959944634 [Eh]
	 SCS Total Energy          =    -118.9309255367360549 [Eh]
	-----------------------------------------------------------

  Dipole Moment: [D]
     X:     0.0003      Y:     0.0938      Z:    -0.0110     Total:     0.0944

*** Psi4 exiting successfully. Buy a developer a beer!
