                               Psi4 1.3.2 release

  ==> Input File <==

--------------------------------------------------------------------------
#psi4
#
memory 32 gb

molecule  {
0 1
  C        0.0000010     0.5882480    -0.0000070
  C        1.2686090    -0.2604710    -0.0000080
  C       -1.2686110    -0.2604730     0.0000140
  H        0.0000039     1.2603914     0.8656653
  H       -0.0000080     1.2451610    -0.8772930
  H        1.3058050    -0.9047420     0.8839990
  H        1.3057540    -0.9048120    -0.8839650
  H        2.1678120     0.3624640    -0.0000560
  H       -2.1678060     0.3624710     0.0000180
  H       -1.3057710    -0.9047670     0.8840050
  H       -1.3057890    -0.9047820    -0.8839660
units angstrom
no_reorient  #important for SAPT in psi4, default
symmetry c1  #important for SAPT in psi4, default
}

set PROPERTIES_ORIGIN ["COM"]
properties('MP2/aug-cc-pvtz', properties = ['dipole'])
--------------------------------------------------------------------------

    Molecular point group: c1
  Charge       = 0
  Multiplicity = 1
  Basis Set: AUG-CC-PVTZ
    Blend: AUG-CC-PVTZ
  Basis Set: (AUG-CC-PVTZ AUX)
    Blend: AUG-CC-PVTZ-JKFIT

    Orbital Energies [Eh]
    ---------------------

    Doubly Occupied:

       1A    -11.217266     2A    -11.209850     3A    -11.209814
       4A     -1.052149     5A     -0.923888     6A     -0.798848
       7A     -0.622235     8A     -0.597030     9A     -0.548907
      10A     -0.529872    11A     -0.475799    12A     -0.474633
      13A     -0.466239

  @DF-RHF Final Energy:  -118.30812717154211

   => Energetics <=

    Nuclear Repulsion Energy =             82.5711007570443059
    One-Electron Energy =                -321.5053940402654007
    Two-Electron Energy =                 120.6261661116789980
    Total Energy =                       -118.3081271715421110
  Basis Set: (AUG-CC-PVTZ AUX)
    Blend: AUG-CC-PVTZ-RI
    Molecular point group: c1

    Geometry (in Angstrom), charge = 0, multiplicity = 1:

       Center              X                  Y                   Z               Mass
    ------------   -----------------  -----------------  -----------------  -----------------
         C            0.000001251754     0.578807080309     0.000258427215    12.000000000000
         C            1.268609251754    -0.269911919691     0.000257427215    12.000000000000
         C           -1.268610748246    -0.269913919691     0.000279427215    12.000000000000
         H            0.000004151754     1.250950480309     0.865930727215     1.007825032230
         H           -0.000007748246     1.235720080309    -0.877027572785     1.007825032230
         H            1.305805251754    -0.914182919691     0.884264427215     1.007825032230
         H            1.305754251754    -0.914252919691    -0.883699572785     1.007825032230
         H            2.167812251754     0.353023080309     0.000209427215     1.007825032230
         H           -2.167805748246     0.353030080309     0.000283427215     1.007825032230
         H           -1.305770748246    -0.914207919691     0.884270427215     1.007825032230
         H           -1.305788748246    -0.914222919691    -0.883700572785     1.007825032230

  Basis Set: AUG-CC-PVTZ
    Blend: AUG-CC-PVTZ
  Basis Set: (AUG-CC-PVTZ AUX)
    Blend: AUG-CC-PVTZ-JKFIT
	 Reference Energy          =    -118.3081271715421110 [Eh]
	 Singles Energy            =      -0.0000000000000000 [Eh]
	 Same-Spin Energy          =      -0.1226260871277981 [Eh]
	 Opposite-Spin Energy      =      -0.4854807926012031 [Eh]
	 Correlation Energy        =      -0.6081068797290012 [Eh]
	 Total Energy              =    -118.9162340512711182 [Eh]

	 ================> DF-SCS-MP2 Energies <==================
	-----------------------------------------------------------
	 SCS Same-Spin Scale       =       0.3333333333333333 [-]
	 SCS Opposite-Spin Scale   =       1.2000000000000000 [-]
	 SCS Same-Spin Energy      =      -0.0408753623759327 [Eh]
	 SCS Opposite-Spin Energy  =      -0.5825769511214437 [Eh]
	 SCS Correlation Energy    =      -0.6234523134973764 [Eh]
	 SCS Total Energy          =    -118.9315794850394923 [Eh]
	-----------------------------------------------------------

  Dipole Moment: [D]
     X:     0.0000      Y:     0.0916      Z:    -0.0029     Total:     0.0916

*** Psi4 exiting successfully. Buy a developer a beer!
