                               Psi4 1.3.2 release

  ==> Input File <==

--------------------------------------------------------------------------
#psi4
#
memory 32 gb

molecule  {
0 1
  I       -1.8193480    -0.0907570     0.0000000
  I        1.8193480    -0.0907590     0.0000000
  C       -0.0847400     0.9960955     0.0000000
  H        0.0000010     1.6626080     0.8962200
  H        0.0000010     1.6626080    -0.8962200
units angstrom
no_reorient  #important for SAPT in psi4, default
symmetry c1  #important for SAPT in psi4, default
}

set PROPERTIES_ORIGIN ["COM"]

basis mybas {
    assign aug-cc-pvtz
    assign I aug-cc-pvtz-pp
}
properties('MP2/mybas', properties = ['dipole'])
--------------------------------------------------------------------------

    Molecular point group: c1
  Charge       = 0
  Multiplicity = 1
  Basis Set: MYBAS
    Blend: AUG-CC-PVTZ + AUG-CC-PVTZ-PP
  Basis Set: (MYBAS AUX)
    Blend: AUG-CC-PVTZ-JKFIT + DEF2-QZVPP-JKFIT

    Orbital Energies [Eh]
    ---------------------

    Doubly Occupied:

       1A    -11.340604     2A     -7.737409     3A     -7.727005
       4A     -5.569856     5A     -5.559286     6A     -5.559071
       7A     -5.559045     8A     -5.548834     9A     -5.548695
      10A     -2.300065    11A     -2.294433    12A     -2.294172
      13A     -2.288295    14A     -2.283600    15A     -2.283455
      16A     -2.282522    17A     -2.282522    18A     -2.272119
      19A     -2.272117    20A     -1.033190    21A     -0.896471
      22A     -0.817399    23A     -0.623330    24A     -0.537062
      25A     -0.484789    26A     -0.382323    27A     -0.381723
      28A     -0.370712    29A     -0.361892

  @DF-RHF Final Energy:  -628.35368111331809

   => Energetics <=

    Nuclear Repulsion Energy =            191.5789775689827366
    One-Electron Energy =               -1462.0813277465983901
    Two-Electron Energy =                 642.1486690642975645
    Total Energy =                       -628.3536811133180890
  Basis Set: (MYBAS AUX)
    Blend: AUG-CC-PVTZ-RI + DEF2-QZVPP-RI
    Molecular point group: c1

    Geometry (in Angstrom), charge = 0, multiplicity = 1:

       Center              X                  Y                   Z               Mass
    ------------   -----------------  -----------------  -----------------  -----------------
         I           -1.815551194152    -0.061891801000     0.000000000000   126.904471900000
         I            1.823144805848    -0.061893801000     0.000000000000   126.904471900000
         C           -0.080943194152     1.024960699000     0.000000000000    12.000000000000
         H            0.003797805848     1.691473199000     0.896220000000     1.007825032230
         H            0.003797805848     1.691473199000    -0.896220000000     1.007825032230

  Basis Set: MYBAS
    Blend: AUG-CC-PVTZ + AUG-CC-PVTZ-PP
  Basis Set: (MYBAS AUX)
    Blend: AUG-CC-PVTZ-JKFIT + DEF2-QZVPP-JKFIT
	 Reference Energy          =    -628.3536811133180890 [Eh]
	 Singles Energy            =      -0.0000000000000000 [Eh]
	 Same-Spin Energy          =      -0.1942452491795517 [Eh]
	 Opposite-Spin Energy      =      -0.5019175477782110 [Eh]
	 Correlation Energy        =      -0.6961627969577626 [Eh]
	 Total Energy              =    -629.0498439102758539 [Eh]

	 ================> DF-SCS-MP2 Energies <==================
	-----------------------------------------------------------
	 SCS Same-Spin Scale       =       0.3333333333333333 [-]
	 SCS Opposite-Spin Scale   =       1.2000000000000000 [-]
	 SCS Same-Spin Energy      =      -0.0647484163931839 [Eh]
	 SCS Opposite-Spin Energy  =      -0.6023010573338531 [Eh]
	 SCS Correlation Energy    =      -0.6670494737270369 [Eh]
	 SCS Total Energy          =    -629.0207305870451364 [Eh]
	-----------------------------------------------------------

  Dipole Moment: [D]
     X:    -0.3626      Y:     1.1074      Z:    -0.0000     Total:     1.1653

*** Psi4 exiting successfully. Buy a developer a beer!
