                               Psi4 1.3.2 release

  ==> Input File <==

--------------------------------------------------------------------------
#psi4
#
memory 32 gb

molecule  {
0 1
  I       -1.8193480    -0.0907570     0.0000000
  I        1.8193480    -0.0907590     0.0000000
  C       -0.1694800     0.9430000     0.0000000
  H        0.0000010     1.6626080     0.8962200
  H        0.0000010     1.6626080    -0.8962200
units angstrom
no_reorient  #important for SAPT in psi4, default
symmetry c1  #important for SAPT in psi4, default
}

set PROPERTIES_ORIGIN ["COM"]

basis mybas {
    assign aug-cc-pvtz
    assign I aug-cc-pvtz-pp
}
properties('MP2/mybas', properties = ['dipole'])
--------------------------------------------------------------------------

    Molecular point group: c1
  Charge       = 0
  Multiplicity = 1
  Basis Set: MYBAS
    Blend: AUG-CC-PVTZ + AUG-CC-PVTZ-PP
  Basis Set: (MYBAS AUX)
    Blend: AUG-CC-PVTZ-JKFIT + DEF2-QZVPP-JKFIT

    Orbital Energies [Eh]
    ---------------------

    Doubly Occupied:

       1A    -11.345074     2A     -7.742791     3A     -7.722782
       4A     -5.575506     5A     -5.564822     6A     -5.564416
       7A     -5.554724     8A     -5.544643     9A     -5.544475
      10A     -2.306770    11A     -2.300212    12A     -2.299783
      13A     -2.288118    14A     -2.288115    15A     -2.283720
      16A     -2.279287    17A     -2.279117    18A     -2.267951
      19A     -2.267947    20A     -1.042856    21A     -0.897092
      22A     -0.808742    23A     -0.606150    24A     -0.552317
      25A     -0.486975    26A     -0.383884    27A     -0.376367
      28A     -0.365706    29A     -0.361719

  @DF-RHF Final Energy:  -628.33359038846720

   => Energetics <=

    Nuclear Repulsion Energy =            192.5756295817849661
    One-Electron Energy =               -1464.0143145264976283
    Two-Electron Energy =                 643.1050945562453762
    Total Energy =                       -628.3335903884672007
  Basis Set: (MYBAS AUX)
    Blend: AUG-CC-PVTZ-RI + DEF2-QZVPP-RI
    Molecular point group: c1

    Geometry (in Angstrom), charge = 0, multiplicity = 1:

       Center              X                  Y                   Z               Mass
    ------------   -----------------  -----------------  -----------------  -----------------
         I           -1.811754380777    -0.059512833517     0.000000000000   126.904471900000
         I            1.826941619223    -0.059514833517     0.000000000000   126.904471900000
         C           -0.161886380777     0.974244166483     0.000000000000    12.000000000000
         H            0.007594619223     1.693852166483     0.896220000000     1.007825032230
         H            0.007594619223     1.693852166483    -0.896220000000     1.007825032230

  Basis Set: MYBAS
    Blend: AUG-CC-PVTZ + AUG-CC-PVTZ-PP
  Basis Set: (MYBAS AUX)
    Blend: AUG-CC-PVTZ-JKFIT + DEF2-QZVPP-JKFIT
	 Reference Energy          =    -628.3335903884672007 [Eh]
	 Singles Energy            =      -0.0000000000000000 [Eh]
	 Same-Spin Energy          =      -0.1956839279203666 [Eh]
	 Opposite-Spin Energy      =      -0.5036660808918361 [Eh]
	 Correlation Energy        =      -0.6993500088122027 [Eh]
	 Total Energy              =    -629.0329403972793898 [Eh]

	 ================> DF-SCS-MP2 Energies <==================
	-----------------------------------------------------------
	 SCS Same-Spin Scale       =       0.3333333333333333 [-]
	 SCS Opposite-Spin Scale   =       1.2000000000000000 [-]
	 SCS Same-Spin Energy      =      -0.0652279759734555 [Eh]
	 SCS Opposite-Spin Energy  =      -0.6043992970702032 [Eh]
	 SCS Correlation Energy    =      -0.6696272730436588 [Eh]
	 SCS Total Energy          =    -629.0032176615108028 [Eh]
	-----------------------------------------------------------

  Dipole Moment: [D]
     X:    -0.7329      Y:     1.0997      Z:     0.0000     Total:     1.3216

*** Psi4 exiting successfully. Buy a developer a beer!
