                               Psi4 1.3.2 release

  ==> Input File <==

--------------------------------------------------------------------------
#psi4
#
memory 32 gb

molecule  {
0 1
  I       -1.8944349     0.0389312     0.0000000
  I        1.8193480    -0.0907590     0.0000000
  C        0.0000000     1.0491910     0.0000000
  H        0.0000010     1.6626080     0.8962200
  H        0.0000010     1.6626080    -0.8962200
units angstrom
no_reorient  #important for SAPT in psi4, default
symmetry c1  #important for SAPT in psi4, default
}

set PROPERTIES_ORIGIN ["COM"]

basis mybas {
    assign aug-cc-pvtz
    assign I aug-cc-pvtz-pp
}
properties('MP2/mybas', properties = ['dipole'])
--------------------------------------------------------------------------

    Molecular point group: c1
  Charge       = 0
  Multiplicity = 1
  Basis Set: MYBAS
    Blend: AUG-CC-PVTZ + AUG-CC-PVTZ-PP
  Basis Set: (MYBAS AUX)
    Blend: AUG-CC-PVTZ-JKFIT + DEF2-QZVPP-JKFIT

    Orbital Energies [Eh]
    ---------------------

    Doubly Occupied:

       1A    -11.338243     2A     -7.733064     3A     -7.731490
       4A     -5.565289     5A     -5.563656     6A     -5.554868
       7A     -5.554688     8A     -5.553343     9A     -5.553146
      10A     -2.294764    11A     -2.293120    12A     -2.289790
      13A     -2.289599    14A     -2.288207    15A     -2.288000
      16A     -2.278065    17A     -2.278064    18A     -2.276585
      19A     -2.276583    20A     -1.030070    21A     -0.895902
      22A     -0.822942    23A     -0.641561    24A     -0.523590
      25A     -0.483784    26A     -0.382045    27A     -0.381476
      28A     -0.373421    29A     -0.364502

  @DF-RHF Final Energy:  -628.35922367672572

   => Energetics <=

    Nuclear Repulsion Energy =            188.9363955202086913
    One-Electron Energy =               -1456.7915272178333908
    Two-Electron Energy =                 639.4959080208990372
    Total Energy =                       -628.3592236767257191
  Basis Set: (MYBAS AUX)
    Blend: AUG-CC-PVTZ-RI + DEF2-QZVPP-RI
    Molecular point group: c1

    Geometry (in Angstrom), charge = 0, multiplicity = 1:

       Center              X                  Y                   Z               Mass
    ------------   -----------------  -----------------  -----------------  -----------------
         I           -1.858856160804     0.003966717469     0.000000000000   126.904471900000
         I            1.854926739196    -0.125723482531     0.000000000000   126.904471900000
         C            0.035578739196     1.014226517469     0.000000000000    12.000000000000
         H            0.035579739196     1.627643517469     0.896220000000     1.007825032230
         H            0.035579739196     1.627643517469    -0.896220000000     1.007825032230

  Basis Set: MYBAS
    Blend: AUG-CC-PVTZ + AUG-CC-PVTZ-PP
  Basis Set: (MYBAS AUX)
    Blend: AUG-CC-PVTZ-JKFIT + DEF2-QZVPP-JKFIT
	 Reference Energy          =    -628.3592236767257191 [Eh]
	 Singles Energy            =      -0.0000000000000000 [Eh]
	 Same-Spin Energy          =      -0.1933714346758928 [Eh]
	 Opposite-Spin Energy      =      -0.5010666077896900 [Eh]
	 Correlation Energy        =      -0.6944380424655828 [Eh]
	 Total Energy              =    -629.0536617191912683 [Eh]

	 ================> DF-SCS-MP2 Energies <==================
	-----------------------------------------------------------
	 SCS Same-Spin Scale       =       0.3333333333333333 [-]
	 SCS Opposite-Spin Scale   =       1.2000000000000000 [-]
	 SCS Same-Spin Energy      =      -0.0644571448919643 [Eh]
	 SCS Opposite-Spin Energy  =      -0.6012799293476280 [Eh]
	 SCS Correlation Energy    =      -0.6657370742395923 [Eh]
	 SCS Total Energy          =    -629.0249607509653060 [Eh]
	-----------------------------------------------------------

  Dipole Moment: [D]
     X:     0.0730      Y:     1.1009      Z:    -0.0000     Total:     1.1033

*** Psi4 exiting successfully. Buy a developer a beer!
