                               Psi4 1.3.2 release

  ==> Input File <==

--------------------------------------------------------------------------
#psi4
#
memory 32 gb

molecule  {
0 1
  I       -1.8193480    -0.0907570     0.0000000
  I        1.8193480    -0.0907590     0.0000000
  C        0.0847400     1.1022865     0.0000000
  H        0.0000010     1.6626080     0.8962200
  H        0.0000010     1.6626080    -0.8962200
units angstrom
no_reorient  #important for SAPT in psi4, default
symmetry c1  #important for SAPT in psi4, default
}

set PROPERTIES_ORIGIN ["COM"]

basis mybas {
    assign aug-cc-pvtz
    assign I aug-cc-pvtz-pp
}
properties('MP2/mybas', properties = ['dipole'])
--------------------------------------------------------------------------

    Molecular point group: c1
  Charge       = 0
  Multiplicity = 1
  Basis Set: MYBAS
    Blend: AUG-CC-PVTZ + AUG-CC-PVTZ-PP
  Basis Set: (MYBAS AUX)
    Blend: AUG-CC-PVTZ-JKFIT + DEF2-QZVPP-JKFIT

    Orbital Energies [Eh]
    ---------------------

    Doubly Occupied:

       1A    -11.340311     2A     -7.736919     3A     -7.724897
       4A     -5.569258     5A     -5.558717     6A     -5.558546
       7A     -5.556814     8A     -5.546719     9A     -5.546650
      10A     -2.299025    11A     -2.293768    12A     -2.293571
      13A     -2.285792    14A     -2.281921    15A     -2.281918
      16A     -2.281328    17A     -2.281250    18A     -2.270071
      19A     -2.270070    20A     -1.032484    21A     -0.890381
      22A     -0.830680    23A     -0.659421    24A     -0.525665
      25A     -0.474526    26A     -0.383530    27A     -0.382628
      28A     -0.373358    29A     -0.357972

  @DF-RHF Final Energy:  -628.35648301982462

   => Energetics <=

    Nuclear Repulsion Energy =            189.9457603781610260
    One-Electron Energy =               -1458.8281077553444902
    Two-Electron Energy =                 640.5258643573589552
    Total Energy =                       -628.3564830198246227
  Basis Set: (MYBAS AUX)
    Blend: AUG-CC-PVTZ-RI + DEF2-QZVPP-RI
    Molecular point group: c1

    Geometry (in Angstrom), charge = 0, multiplicity = 1:

       Center              X                  Y                   Z               Mass
    ------------   -----------------  -----------------  -----------------  -----------------
         I           -1.823144820900    -0.066649735966     0.000000000000   126.904471900000
         I            1.815551179100    -0.066651735966     0.000000000000   126.904471900000
         C            0.080943179100     1.126393764034     0.000000000000    12.000000000000
         H           -0.003795820900     1.686715264034     0.896220000000     1.007825032230
         H           -0.003795820900     1.686715264034    -0.896220000000     1.007825032230

  Basis Set: MYBAS
    Blend: AUG-CC-PVTZ + AUG-CC-PVTZ-PP
  Basis Set: (MYBAS AUX)
    Blend: AUG-CC-PVTZ-JKFIT + DEF2-QZVPP-JKFIT
	 Reference Energy          =    -628.3564830198246227 [Eh]
	 Singles Energy            =      -0.0000000000000000 [Eh]
	 Same-Spin Energy          =      -0.1931724117116538 [Eh]
	 Opposite-Spin Energy      =      -0.5008626535033437 [Eh]
	 Correlation Energy        =      -0.6940350652149976 [Eh]
	 Total Energy              =    -629.0505180850395845 [Eh]

	 ================> DF-SCS-MP2 Energies <==================
	-----------------------------------------------------------
	 SCS Same-Spin Scale       =       0.3333333333333333 [-]
	 SCS Opposite-Spin Scale   =       1.2000000000000000 [-]
	 SCS Same-Spin Energy      =      -0.0643908039038846 [Eh]
	 SCS Opposite-Spin Energy  =      -0.6010351842040124 [Eh]
	 SCS Correlation Energy    =      -0.6654259881078970 [Eh]
	 SCS Total Energy          =    -629.0219090079325497 [Eh]
	-----------------------------------------------------------

  Dipole Moment: [D]
     X:     0.3730      Y:     1.1240      Z:     0.0000     Total:     1.1843

*** Psi4 exiting successfully. Buy a developer a beer!
