                               Psi4 1.3.2 release

  ==> Input File <==

--------------------------------------------------------------------------
#psi4
#
memory 32 gb

molecule  {
0 1
  I       -1.8691648     0.0109015     0.1941303
  I        1.8193480    -0.0907590     0.0000000
  C        0.0000000     1.0491910     0.0000000
  H        0.0000010     1.6626080     0.8962200
  H        0.0000010     1.6626080    -0.8962200
units angstrom
no_reorient  #important for SAPT in psi4, default
symmetry c1  #important for SAPT in psi4, default
}

set PROPERTIES_ORIGIN ["COM"]

basis mybas {
    assign aug-cc-pvtz
    assign I aug-cc-pvtz-pp
}
properties('MP2/mybas', properties = ['dipole'])
--------------------------------------------------------------------------

    Molecular point group: c1
  Charge       = 0
  Multiplicity = 1
  Basis Set: MYBAS
    Blend: AUG-CC-PVTZ + AUG-CC-PVTZ-PP
  Basis Set: (MYBAS AUX)
    Blend: AUG-CC-PVTZ-JKFIT + DEF2-QZVPP-JKFIT

    Orbital Energies [Eh]
    ---------------------

    Doubly Occupied:

       1A    -11.338317     2A     -7.732658     3A     -7.731634
       4A     -5.564875     5A     -5.563822     6A     -5.554463
       7A     -5.554295     8A     -5.553472     9A     -5.553282
      10A     -2.294354    11A     -2.293288    12A     -2.289378
      13A     -2.289198    14A     -2.288359    15A     -2.288166
      16A     -2.277676    17A     -2.277675    18A     -2.276707
      19A     -2.276704    20A     -1.030297    21A     -0.895434
      22A     -0.823361    23A     -0.641726    24A     -0.524297
      25A     -0.483027    26A     -0.382555    27A     -0.381659
      28A     -0.373203    29A     -0.363533

  @DF-RHF Final Energy:  -628.35861380322740

   => Energetics <=

    Nuclear Repulsion Energy =            189.4276980728479032
    One-Electron Energy =               -1457.7777913811974031
    Two-Electron Energy =                 639.9914795051220153
    Total Energy =                       -628.3586138032273993
  Basis Set: (MYBAS AUX)
    Blend: AUG-CC-PVTZ-RI + DEF2-QZVPP-RI
    Molecular point group: c1

    Geometry (in Angstrom), charge = 0, multiplicity = 1:

       Center              X                  Y                   Z               Mass
    ------------   -----------------  -----------------  -----------------  -----------------
         I           -1.845559900282    -0.010781549991     0.102144710306   126.904471900000
         I            1.842952899718    -0.112442049991    -0.091985589694   126.904471900000
         C            0.023604899718     1.027507950009    -0.091985589694    12.000000000000
         H            0.023605899718     1.640924950009     0.804234410306     1.007825032230
         H            0.023605899718     1.640924950009    -0.988205589694     1.007825032230

  Basis Set: MYBAS
    Blend: AUG-CC-PVTZ + AUG-CC-PVTZ-PP
  Basis Set: (MYBAS AUX)
    Blend: AUG-CC-PVTZ-JKFIT + DEF2-QZVPP-JKFIT
	 Reference Energy          =    -628.3586138032273993 [Eh]
	 Singles Energy            =      -0.0000000000000000 [Eh]
	 Same-Spin Energy          =      -0.1934347456244205 [Eh]
	 Opposite-Spin Energy      =      -0.5011410405242388 [Eh]
	 Correlation Energy        =      -0.6945757861486593 [Eh]
	 Total Energy              =    -629.0531895893760748 [Eh]

	 ================> DF-SCS-MP2 Energies <==================
	-----------------------------------------------------------
	 SCS Same-Spin Scale       =       0.3333333333333333 [-]
	 SCS Opposite-Spin Scale   =       1.2000000000000000 [-]
	 SCS Same-Spin Energy      =      -0.0644782485414735 [Eh]
	 SCS Opposite-Spin Energy  =      -0.6013692486290866 [Eh]
	 SCS Correlation Energy    =      -0.6658474971705601 [Eh]
	 SCS Total Energy          =    -629.0244613003980021 [Eh]
	-----------------------------------------------------------

  Dipole Moment: [D]
     X:     0.0521      Y:     1.1042      Z:    -0.0378     Total:     1.1061

*** Psi4 exiting successfully. Buy a developer a beer!
