                               Psi4 1.4a3.dev225

  ==> Input File <==

--------------------------------------------------------------------------
#psi4
#
memory 32 gb

molecule  {
0 1
  I       -1.8193480    -0.0907570     0.0000000
  I        1.8193480    -0.0907590     0.0000000
  C       -0.0423700     1.0226432     0.0000000
  H        0.0000010     1.6626080     0.8962200
  H        0.0000010     1.6626080    -0.8962200
units angstrom
no_reorient  #important for SAPT in psi4, default
symmetry c1  #important for SAPT in psi4, default
}

set PROPERTIES_ORIGIN ["COM"]
properties('MP2/aug-cc-pvtz', properties = ['dipole'])
--------------------------------------------------------------------------

    Molecular point group: c1
  Charge       = 0
  Multiplicity = 1
  Basis Set: AUG-CC-PVTZ
    Blend: AUG-CC-PVTZ
  Basis Set: (AUG-CC-PVTZ AUX)
    Blend: AUG-CC-PVTZ-JKFIT + DEF2-UNIVERSAL-JKFIT

    Orbital Energies [Eh]
    ---------------------

    Doubly Occupied:

       1A    -11.339348     2A     -7.734595     3A     -7.729228
       4A     -5.566918     5A     -5.561357     6A     -5.556427
       7A     -5.556244     8A     -5.551045     9A     -5.550912
      10A     -2.296731    11A     -2.291457    12A     -2.291254
      13A     -2.290701    14A     -2.285875    15A     -2.285733
      16A     -2.279662    17A     -2.279661    18A     -2.274316
      19A     -2.274315    20A     -1.031035    21A     -0.895303
      22A     -0.821260    23A     -0.632480    24A     -0.530881
      25A     -0.483588    26A     -0.383429    27A     -0.381257
      28A     -0.372920    29A     -0.361416

  @DF-RHF Final Energy:  -628.35833059171398

   => Energetics <=

    Nuclear Repulsion Energy =            191.1341623996989938
    One-Electron Energy =               -1461.2062888918164845
    Two-Electron Energy =                 641.7137959004036247
    Total Energy =                       -628.3583305917139796
  Basis Set: (AUG-CC-PVTZ AUX)
    Blend: AUG-CC-PVTZ-RI + DEF2-QZVPP-RI
    Molecular point group: c1

    Geometry (in Angstrom), charge = 0, multiplicity = 1:

       Center              X                  Y                   Z               Mass
    ------------   -----------------  -----------------  -----------------  -----------------
         I           -1.817449600839    -0.063081282501     0.000000000000   126.904471900000
         I            1.821246399161    -0.063083282501     0.000000000000   126.904471900000
         C           -0.040471600839     1.050318917499     0.000000000000    12.000000000000
         H            0.001899399161     1.690283717499     0.896220000000     1.007825032230
         H            0.001899399161     1.690283717499    -0.896220000000     1.007825032230

  Basis Set: AUG-CC-PVTZ
    Blend: AUG-CC-PVTZ
  Basis Set: (AUG-CC-PVTZ AUX)
    Blend: AUG-CC-PVTZ-JKFIT + DEF2-UNIVERSAL-JKFIT
	 Reference Energy          =    -628.3583305917139796 [Eh]
	 Singles Energy            =      -0.0000000000000000 [Eh]
	 Same-Spin Energy          =      -0.1937806624120592 [Eh]
	 Opposite-Spin Energy      =      -0.5013946309129019 [Eh]
	 Correlation Energy        =      -0.6951752933249611 [Eh]
	 Total Energy              =    -629.0535058850389305 [Eh]

	 ================> DF-SCS-MP2 Energies <==================
	-----------------------------------------------------------
	 SCS Same-Spin Scale       =       0.3333333333333333 [-]
	 SCS Opposite-Spin Scale   =       1.2000000000000000 [-]
	 SCS Same-Spin Energy      =      -0.0645935541373531 [Eh]
	 SCS Opposite-Spin Energy  =      -0.6016735570954823 [Eh]
	 SCS Correlation Energy    =      -0.6662671112328353 [Eh]
	 SCS Total Energy          =    -629.0245977029468349 [Eh]
	-----------------------------------------------------------

  Dipole Moment: [D]
     X:    -0.1820      Y:     1.1116      Z:    -0.0000     Total:     1.1264

*** Psi4 exiting successfully. Buy a developer a beer!
