                               Psi4 1.3.2 release

  ==> Input File <==

--------------------------------------------------------------------------
#psi4
#
memory 32 gb

molecule  {
0 1
  I       -1.8548122    -0.0243063     0.1295518
  I        1.8193480    -0.0907590     0.0000000
  C        0.0000000     1.0491910     0.0000000
  H        0.0000010     1.6626080     0.8962200
  H        0.0000010     1.6626080    -0.8962200
units angstrom
no_reorient  #important for SAPT in psi4, default
symmetry c1  #important for SAPT in psi4, default
}

set PROPERTIES_ORIGIN ["COM"]

basis mybas {
    assign aug-cc-pvtz
    assign I aug-cc-pvtz-pp
}
properties('MP2/mybas', properties = ['dipole'])
--------------------------------------------------------------------------

    Molecular point group: c1
  Charge       = 0
  Multiplicity = 1
  Basis Set: MYBAS
    Blend: AUG-CC-PVTZ + AUG-CC-PVTZ-PP
  Basis Set: (MYBAS AUX)
    Blend: AUG-CC-PVTZ-JKFIT + DEF2-QZVPP-JKFIT

    Orbital Energies [Eh]
    ---------------------

    Doubly Occupied:

       1A    -11.338523     2A     -7.732317     3A     -7.731593
       4A     -5.564526     5A     -5.563778     6A     -5.554123
       7A     -5.553966     8A     -5.553423     9A     -5.553252
      10A     -2.294011    11A     -2.293245    12A     -2.289032
      13A     -2.288862    14A     -2.288307    15A     -2.288129
      16A     -2.277350    17A     -2.277349    18A     -2.276666
      19A     -2.276665    20A     -1.030266    21A     -0.894881
      22A     -0.823840    23A     -0.641685    24A     -0.525088
      25A     -0.482627    26A     -0.383037    27A     -0.381242
      28A     -0.373787    29A     -0.362607

  @DF-RHF Final Energy:  -628.35937509015969

   => Energetics <=

    Nuclear Repulsion Energy =            189.8297935930438882
    One-Electron Energy =               -1458.5899859409273631
    Two-Electron Energy =                 640.4008172577238156
    Total Energy =                       -628.3593750901596877
  Basis Set: (MYBAS AUX)
    Blend: AUG-CC-PVTZ-RI + DEF2-QZVPP-RI
    Molecular point group: c1

    Geometry (in Angstrom), charge = 0, multiplicity = 1:

       Center              X                  Y                   Z               Mass
    ------------   -----------------  -----------------  -----------------  -----------------
         I           -1.838008054078    -0.029306687651     0.068165716947   126.904471900000
         I            1.836152145922    -0.095759387651    -0.061386083053   126.904471900000
         C            0.016804145922     1.044190612349    -0.061386083053    12.000000000000
         H            0.016805145922     1.657607612349     0.834833916947     1.007825032230
         H            0.016805145922     1.657607612349    -0.957606083053     1.007825032230

  Basis Set: MYBAS
    Blend: AUG-CC-PVTZ + AUG-CC-PVTZ-PP
  Basis Set: (MYBAS AUX)
    Blend: AUG-CC-PVTZ-JKFIT + DEF2-QZVPP-JKFIT
	 Reference Energy          =    -628.3593750901596877 [Eh]
	 Singles Energy            =      -0.0000000000000000 [Eh]
	 Same-Spin Energy          =      -0.1934280400669632 [Eh]
	 Opposite-Spin Energy      =      -0.5010880911372565 [Eh]
	 Correlation Energy        =      -0.6945161312042197 [Eh]
	 Total Energy              =    -629.0538912213638696 [Eh]

	 ================> DF-SCS-MP2 Energies <==================
	-----------------------------------------------------------
	 SCS Same-Spin Scale       =       0.3333333333333333 [-]
	 SCS Opposite-Spin Scale   =       1.2000000000000000 [-]
	 SCS Same-Spin Energy      =      -0.0644760133556544 [Eh]
	 SCS Opposite-Spin Energy  =      -0.6013057093647077 [Eh]
	 SCS Correlation Energy    =      -0.6657817227203622 [Eh]
	 SCS Total Energy          =    -629.0251568128800272 [Eh]
	-----------------------------------------------------------

  Dipole Moment: [D]
     X:     0.0353      Y:     1.1088      Z:    -0.0247     Total:     1.1096

*** Psi4 exiting successfully. Buy a developer a beer!
