                               Psi4 1.3.2 release

  ==> Input File <==

--------------------------------------------------------------------------
#psi4
#
memory 32 gb

molecule  {
0 1
  I       -1.7353974    -0.2148914     0.0000000
  I        1.8193480    -0.0907590     0.0000000
  C        0.0000000     1.0491910     0.0000000
  H        0.0000010     1.6626080     0.8962200
  H        0.0000010     1.6626080    -0.8962200
units angstrom
no_reorient  #important for SAPT in psi4, default
symmetry c1  #important for SAPT in psi4, default
}

set PROPERTIES_ORIGIN ["COM"]

basis mybas {
    assign aug-cc-pvtz
    assign I aug-cc-pvtz-pp
}
properties('MP2/mybas', properties = ['dipole'])
--------------------------------------------------------------------------

    Molecular point group: c1
  Charge       = 0
  Multiplicity = 1
  Basis Set: MYBAS
    Blend: AUG-CC-PVTZ + AUG-CC-PVTZ-PP
  Basis Set: (MYBAS AUX)
    Blend: AUG-CC-PVTZ-JKFIT + DEF2-QZVPP-JKFIT

    Orbital Energies [Eh]
    ---------------------

    Doubly Occupied:

       1A    -11.339338     2A     -7.731735     3A     -7.730123
       4A     -5.563981     5A     -5.562302     6A     -5.553481
       7A     -5.553414     8A     -5.551924     9A     -5.551839
      10A     -2.293488    11A     -2.291793    12A     -2.288445
      13A     -2.288357    14A     -2.286817    15A     -2.286715
      16A     -2.276744    17A     -2.276740    18A     -2.275235
      19A     -2.275232    20A     -1.030875    21A     -0.891470
      22A     -0.826742    23A     -0.641858    24A     -0.529768
      25A     -0.479134    26A     -0.387614    27A     -0.378843
      28A     -0.375755    29A     -0.356072

  @DF-RHF Final Energy:  -628.35952449804881

   => Energetics <=

    Nuclear Repulsion Energy =            192.7043005311996922
    One-Electron Energy =               -1464.3759776116451121
    Two-Electron Energy =                 643.3121525823967204
    Total Energy =                       -628.3595244980488133
  Basis Set: (MYBAS AUX)
    Blend: AUG-CC-PVTZ-RI + DEF2-QZVPP-RI
    Molecular point group: c1

    Geometry (in Angstrom), charge = 0, multiplicity = 1:

       Center              X                  Y                   Z               Mass
    ------------   -----------------  -----------------  -----------------  -----------------
         I           -1.775176079100    -0.129586035224     0.000000000000   126.904471900000
         I            1.779569320900    -0.005453635224     0.000000000000   126.904471900000
         C           -0.039778679100     1.134496364776     0.000000000000    12.000000000000
         H           -0.039777679100     1.747913364776     0.896220000000     1.007825032230
         H           -0.039777679100     1.747913364776    -0.896220000000     1.007825032230

  Basis Set: MYBAS
    Blend: AUG-CC-PVTZ + AUG-CC-PVTZ-PP
  Basis Set: (MYBAS AUX)
    Blend: AUG-CC-PVTZ-JKFIT + DEF2-QZVPP-JKFIT
	 Reference Energy          =    -628.3595244980488133 [Eh]
	 Singles Energy            =      -0.0000000000000000 [Eh]
	 Same-Spin Energy          =      -0.1936275834774812 [Eh]
	 Opposite-Spin Energy      =      -0.5012056567027288 [Eh]
	 Correlation Energy        =      -0.6948332401802100 [Eh]
	 Total Energy              =    -629.0543577382289868 [Eh]

	 ================> DF-SCS-MP2 Energies <==================
	-----------------------------------------------------------
	 SCS Same-Spin Scale       =       0.3333333333333333 [-]
	 SCS Opposite-Spin Scale   =       1.2000000000000000 [-]
	 SCS Same-Spin Energy      =      -0.0645425278258270 [Eh]
	 SCS Opposite-Spin Energy  =      -0.6014467880432744 [Eh]
	 SCS Correlation Energy    =      -0.6659893158691015 [Eh]
	 SCS Total Energy          =    -629.0255138139178825 [Eh]
	-----------------------------------------------------------

  Dipole Moment: [D]
     X:    -0.0711      Y:     1.1248      Z:    -0.0000     Total:     1.1271

*** Psi4 exiting successfully. Buy a developer a beer!
