                               Psi4 1.3.2 release

  ==> Input File <==

--------------------------------------------------------------------------
#psi4
#
memory 32 gb

molecule  {
0 1
  I       -1.8193480    -0.0907570     0.0000000
  I        1.8193480    -0.0907590     0.0000000
  C        0.1694800     1.1553820     0.0000000
  H        0.0000010     1.6626080     0.8962200
  H        0.0000010     1.6626080    -0.8962200
units angstrom
no_reorient  #important for SAPT in psi4, default
symmetry c1  #important for SAPT in psi4, default
}

set PROPERTIES_ORIGIN ["COM"]

basis mybas {
    assign aug-cc-pvtz
    assign I aug-cc-pvtz-pp
}
properties('MP2/mybas', properties = ['dipole'])
--------------------------------------------------------------------------

    Molecular point group: c1
  Charge       = 0
  Multiplicity = 1
  Basis Set: MYBAS
    Blend: AUG-CC-PVTZ + AUG-CC-PVTZ-PP
  Basis Set: (MYBAS AUX)
    Blend: AUG-CC-PVTZ-JKFIT + DEF2-QZVPP-JKFIT

    Orbital Energies [Eh]
    ---------------------

    Doubly Occupied:

       1A    -11.345025     2A     -7.743073     3A     -7.717194
       4A     -5.575559     5A     -5.564884     6A     -5.564622
       7A     -5.548785     8A     -5.539106     9A     -5.539077
      10A     -2.305631    11A     -2.300097    12A     -2.299792
      13A     -2.288011    14A     -2.288006    15A     -2.277412
      16A     -2.273366    17A     -2.273334    18A     -2.262627
      19A     -2.262626    20A     -1.037767    21A     -0.887704
      22A     -0.834440    23A     -0.674686    24A     -0.532405
      25A     -0.466505    26A     -0.387756    27A     -0.378926
      28A     -0.368471    29A     -0.353913

  @DF-RHF Final Energy:  -628.34657382893033

   => Energetics <=

    Nuclear Repulsion Energy =            189.2237875371202165
    One-Electron Energy =               -1457.3591252124126640
    Two-Electron Energy =                 639.7887638463621442
    Total Energy =                       -628.3465738289303317
  Basis Set: (MYBAS AUX)
    Blend: AUG-CC-PVTZ-RI + DEF2-QZVPP-RI
    Molecular point group: c1

    Geometry (in Angstrom), charge = 0, multiplicity = 1:

       Center              X                  Y                   Z               Mass
    ------------   -----------------  -----------------  -----------------  -----------------
         I           -1.826941634275    -0.069028703449     0.000000000000   126.904471900000
         I            1.811754365725    -0.069030703449     0.000000000000   126.904471900000
         C            0.161886365725     1.177110296551     0.000000000000    12.000000000000
         H           -0.007592634275     1.684336296551     0.896220000000     1.007825032230
         H           -0.007592634275     1.684336296551    -0.896220000000     1.007825032230

  Basis Set: MYBAS
    Blend: AUG-CC-PVTZ + AUG-CC-PVTZ-PP
  Basis Set: (MYBAS AUX)
    Blend: AUG-CC-PVTZ-JKFIT + DEF2-QZVPP-JKFIT
	 Reference Energy          =    -628.3465738289303317 [Eh]
	 Singles Energy            =      -0.0000000000000000 [Eh]
	 Same-Spin Energy          =      -0.1932265986808623 [Eh]
	 Opposite-Spin Energy      =      -0.5010672418709519 [Eh]
	 Correlation Energy        =      -0.6942938405518142 [Eh]
	 Total Energy              =    -629.0408676694821679 [Eh]

	 ================> DF-SCS-MP2 Energies <==================
	-----------------------------------------------------------
	 SCS Same-Spin Scale       =       0.3333333333333333 [-]
	 SCS Opposite-Spin Scale   =       1.2000000000000000 [-]
	 SCS Same-Spin Energy      =      -0.0644088662269541 [Eh]
	 SCS Opposite-Spin Energy  =      -0.6012806902451422 [Eh]
	 SCS Correlation Energy    =      -0.6656895564720963 [Eh]
	 SCS Total Energy          =    -629.0122633854024343 [Eh]
	-----------------------------------------------------------

  Dipole Moment: [D]
     X:     0.7529      Y:     1.1235      Z:    -0.0000     Total:     1.3525

*** Psi4 exiting successfully. Buy a developer a beer!
