                               Psi4 1.3.2 release

  ==> Input File <==

--------------------------------------------------------------------------
#psi4
#
memory 32 gb

molecule  {
0 1
  I       -1.6902244    -0.2746859     0.0000000
  I        1.8193480    -0.0907590     0.0000000
  C        0.0000000     1.0491910     0.0000000
  H        0.0000010     1.6626080     0.8962200
  H        0.0000010     1.6626080    -0.8962200
units angstrom
no_reorient  #important for SAPT in psi4, default
symmetry c1  #important for SAPT in psi4, default
}

set PROPERTIES_ORIGIN ["COM"]

basis mybas {
    assign aug-cc-pvtz
    assign I aug-cc-pvtz-pp
}
properties('MP2/mybas', properties = ['dipole'])
--------------------------------------------------------------------------

    Molecular point group: c1
  Charge       = 0
  Multiplicity = 1
  Basis Set: MYBAS
    Blend: AUG-CC-PVTZ + AUG-CC-PVTZ-PP
  Basis Set: (MYBAS AUX)
    Blend: AUG-CC-PVTZ-JKFIT + DEF2-QZVPP-JKFIT

    Orbital Energies [Eh]
    ---------------------

    Doubly Occupied:

       1A    -11.339528     2A     -7.731811     3A     -7.729385
       4A     -5.564090     5A     -5.561560     6A     -5.553521
       7A     -5.553491     8A     -5.551180     9A     -5.551121
      10A     -2.293606    11A     -2.291061    12A     -2.288529
      13A     -2.288473    14A     -2.286078    15A     -2.285999
      16A     -2.276787    17A     -2.276781    18A     -2.274518
      19A     -2.274513    20A     -1.031225    21A     -0.890238
      22A     -0.827769    23A     -0.641942    24A     -0.531314
      25A     -0.477813    26A     -0.389431    27A     -0.378382
      28A     -0.376024    29A     -0.353531

  @DF-RHF Final Energy:  -628.35872603715848

   => Energetics <=

    Nuclear Repulsion Energy =            193.7809472109386775
    One-Electron Energy =               -1466.5399444935510473
    Two-Electron Energy =                 644.4002712454539505
    Total Energy =                       -628.3587260371584762
  Basis Set: (MYBAS AUX)
    Blend: AUG-CC-PVTZ-RI + DEF2-QZVPP-RI
    Molecular point group: c1

    Geometry (in Angstrom), charge = 0, multiplicity = 1:

       Center              X                  Y                   Z               Mass
    ------------   -----------------  -----------------  -----------------  -----------------
         I           -1.751407594743    -0.161047851748     0.000000000000   126.904471900000
         I            1.758164805257     0.022879048252     0.000000000000   126.904471900000
         C           -0.061183194743     1.162829048252     0.000000000000    12.000000000000
         H           -0.061182194743     1.776246048252     0.896220000000     1.007825032230
         H           -0.061182194743     1.776246048252    -0.896220000000     1.007825032230

  Basis Set: MYBAS
    Blend: AUG-CC-PVTZ + AUG-CC-PVTZ-PP
  Basis Set: (MYBAS AUX)
    Blend: AUG-CC-PVTZ-JKFIT + DEF2-QZVPP-JKFIT
	 Reference Energy          =    -628.3587260371584762 [Eh]
	 Singles Energy            =      -0.0000000000000000 [Eh]
	 Same-Spin Energy          =      -0.1937446041329248 [Eh]
	 Opposite-Spin Energy      =      -0.5013342932395288 [Eh]
	 Correlation Energy        =      -0.6950788973724537 [Eh]
	 Total Energy              =    -629.0538049345309446 [Eh]

	 ================> DF-SCS-MP2 Energies <==================
	-----------------------------------------------------------
	 SCS Same-Spin Scale       =       0.3333333333333333 [-]
	 SCS Opposite-Spin Scale   =       1.2000000000000000 [-]
	 SCS Same-Spin Energy      =      -0.0645815347109749 [Eh]
	 SCS Opposite-Spin Energy  =      -0.6016011518874346 [Eh]
	 SCS Correlation Energy    =      -0.6661826865984095 [Eh]
	 SCS Total Energy          =    -629.0249087237568801 [Eh]
	-----------------------------------------------------------

  Dipole Moment: [D]
     X:    -0.1056      Y:     1.1265      Z:    -0.0000     Total:     1.1314

*** Psi4 exiting successfully. Buy a developer a beer!
