                               Psi4 1.3.2 release

  ==> Input File <==

--------------------------------------------------------------------------
#psi4
#
memory 32 gb

molecule  {
0 1
  I       -1.8580233    -0.0265682     0.0000000
  I        1.8193480    -0.0907590     0.0000000
  C        0.0000000     1.0491910     0.0000000
  H        0.0000010     1.6626080     0.8962200
  H        0.0000010     1.6626080    -0.8962200
units angstrom
no_reorient  #important for SAPT in psi4, default
symmetry c1  #important for SAPT in psi4, default
}

set PROPERTIES_ORIGIN ["COM"]

basis mybas {
    assign aug-cc-pvtz
    assign I aug-cc-pvtz-pp
}
properties('MP2/mybas', properties = ['dipole'])
--------------------------------------------------------------------------

    Molecular point group: c1
  Charge       = 0
  Multiplicity = 1
  Basis Set: MYBAS
    Blend: AUG-CC-PVTZ + AUG-CC-PVTZ-PP
  Basis Set: (MYBAS AUX)
    Blend: AUG-CC-PVTZ-JKFIT + DEF2-QZVPP-JKFIT

    Orbital Energies [Eh]
    ---------------------

    Doubly Occupied:

       1A    -11.338561     2A     -7.732334     3A     -7.731541
       4A     -5.564543     5A     -5.563720     6A     -5.554141
       7A     -5.553982     8A     -5.553373     9A     -5.553206
      10A     -2.294027    11A     -2.293186    12A     -2.289049
      13A     -2.288878    14A     -2.288250    15A     -2.288072
      16A     -2.277366    17A     -2.277366    18A     -2.276622
      19A     -2.276621    20A     -1.030190    21A     -0.894860
      22A     -0.823857    23A     -0.641626    24A     -0.525116
      25A     -0.482730    26A     -0.382870    27A     -0.381233
      28A     -0.374007    29A     -0.362628

  @DF-RHF Final Energy:  -628.35978672385397

   => Energetics <=

    Nuclear Repulsion Energy =            189.8021744639972894
    One-Electron Energy =               -1458.5360109744622150
    Two-Electron Energy =                 640.3740497866109536
    Total Energy =                       -628.3597867238539720
  Basis Set: (MYBAS AUX)
    Blend: AUG-CC-PVTZ-RI + DEF2-QZVPP-RI
    Molecular point group: c1

    Geometry (in Angstrom), charge = 0, multiplicity = 1:

       Center              X                  Y                   Z               Mass
    ------------   -----------------  -----------------  -----------------  -----------------
         I           -1.839697624842    -0.030496821908     0.000000000000   126.904471900000
         I            1.837673675158    -0.094687621908     0.000000000000   126.904471900000
         C            0.018325675158     1.045262378092     0.000000000000    12.000000000000
         H            0.018326675158     1.658679378092     0.896220000000     1.007825032230
         H            0.018326675158     1.658679378092    -0.896220000000     1.007825032230

  Basis Set: MYBAS
    Blend: AUG-CC-PVTZ + AUG-CC-PVTZ-PP
  Basis Set: (MYBAS AUX)
    Blend: AUG-CC-PVTZ-JKFIT + DEF2-QZVPP-JKFIT
	 Reference Energy          =    -628.3597867238539720 [Eh]
	 Singles Energy            =      -0.0000000000000000 [Eh]
	 Same-Spin Energy          =      -0.1934069517443407 [Eh]
	 Opposite-Spin Energy      =      -0.5010495764277687 [Eh]
	 Correlation Energy        =      -0.6944565281721093 [Eh]
	 Total Energy              =    -629.0542432520260263 [Eh]

	 ================> DF-SCS-MP2 Energies <==================
	-----------------------------------------------------------
	 SCS Same-Spin Scale       =       0.3333333333333333 [-]
	 SCS Opposite-Spin Scale   =       1.2000000000000000 [-]
	 SCS Same-Spin Energy      =      -0.0644689839147802 [Eh]
	 SCS Opposite-Spin Energy  =      -0.6012594917133224 [Eh]
	 SCS Correlation Energy    =      -0.6657284756281026 [Eh]
	 SCS Total Energy          =    -629.0255151994821290 [Eh]
	-----------------------------------------------------------

  Dipole Moment: [D]
     X:     0.0363      Y:     1.1092      Z:    -0.0000     Total:     1.1098

*** Psi4 exiting successfully. Buy a developer a beer!
