                               Psi4 1.3.2 release

  ==> Input File <==

--------------------------------------------------------------------------
#psi4
#
memory 32 gb

molecule  {
0 1
  I       -1.7982795    -0.1219189    -0.0648154
  I        1.8193480    -0.0907590     0.0000000
  C        0.0000000     1.0491910     0.0000000
  H        0.0000010     1.6626080     0.8962200
  H        0.0000010     1.6626080    -0.8962200
units angstrom
no_reorient  #important for SAPT in psi4, default
symmetry c1  #important for SAPT in psi4, default
}

set PROPERTIES_ORIGIN ["COM"]

basis mybas {
    assign aug-cc-pvtz
    assign I aug-cc-pvtz-pp
}
properties('MP2/mybas', properties = ['dipole'])
--------------------------------------------------------------------------

    Molecular point group: c1
  Charge       = 0
  Multiplicity = 1
  Basis Set: MYBAS
    Blend: AUG-CC-PVTZ + AUG-CC-PVTZ-PP
  Basis Set: (MYBAS AUX)
    Blend: AUG-CC-PVTZ-JKFIT + DEF2-QZVPP-JKFIT

    Orbital Energies [Eh]
    ---------------------

    Doubly Occupied:

       1A    -11.338978     2A     -7.731643     3A     -7.731225
       4A     -5.563851     5A     -5.563415     6A     -5.553436
       7A     -5.553316     8A     -5.553032     9A     -5.552909
      10A     -2.293356    11A     -2.292884    12A     -2.288352
      13A     -2.288216    14A     -2.287925    15A     -2.287790
      16A     -2.276692    17A     -2.276690    18A     -2.276301
      19A     -2.276299    20A     -1.030487    21A     -0.893220
      22A     -0.825267    23A     -0.641751    24A     -0.527433
      25A     -0.480979    26A     -0.385164    27A     -0.379997
      28A     -0.374867    29A     -0.359525

  @DF-RHF Final Energy:  -628.35993499487211

   => Energetics <=

    Nuclear Repulsion Energy =            191.2034060390617469
    One-Electron Energy =               -1461.3566832330964189
    Two-Electron Energy =                 641.7933421991625664
    Total Energy =                       -628.3599349948721056
  Basis Set: (MYBAS AUX)
    Blend: AUG-CC-PVTZ-RI + DEF2-QZVPP-RI
    Molecular point group: c1

    Geometry (in Angstrom), charge = 0, multiplicity = 1:

       Center              X                  Y                   Z               Mass
    ------------   -----------------  -----------------  -----------------  -----------------
         I           -1.808262484920    -0.080667092231    -0.034103642020   126.904471900000
         I            1.809365015080    -0.049507192231     0.030711757980   126.904471900000
         C           -0.009982984920     1.090442807769     0.030711757980    12.000000000000
         H           -0.009981984920     1.703859807769     0.926931757980     1.007825032230
         H           -0.009981984920     1.703859807769    -0.865508242020     1.007825032230

  Basis Set: MYBAS
    Blend: AUG-CC-PVTZ + AUG-CC-PVTZ-PP
  Basis Set: (MYBAS AUX)
    Blend: AUG-CC-PVTZ-JKFIT + DEF2-QZVPP-JKFIT
	 Reference Energy          =    -628.3599349948721056 [Eh]
	 Singles Energy            =      -0.0000000000000000 [Eh]
	 Same-Spin Energy          =      -0.1934998483591722 [Eh]
	 Opposite-Spin Energy      =      -0.5010964358178442 [Eh]
	 Correlation Energy        =      -0.6945962841770164 [Eh]
	 Total Energy              =    -629.0545312790491153 [Eh]

	 ================> DF-SCS-MP2 Energies <==================
	-----------------------------------------------------------
	 SCS Same-Spin Scale       =       0.3333333333333333 [-]
	 SCS Opposite-Spin Scale   =       1.2000000000000000 [-]
	 SCS Same-Spin Energy      =      -0.0644999494530574 [Eh]
	 SCS Opposite-Spin Energy  =      -0.6013157229814131 [Eh]
	 SCS Correlation Energy    =      -0.6658156724344705 [Eh]
	 SCS Total Energy          =    -629.0257506673066246 [Eh]
	-----------------------------------------------------------

  Dipole Moment: [D]
     X:    -0.0183      Y:     1.1188      Z:     0.0115     Total:     1.1190

*** Psi4 exiting successfully. Buy a developer a beer!
