                               Psi4 1.4a3.dev225

  ==> Input File <==

--------------------------------------------------------------------------
#psi4
#
memory 32 gb

molecule  {
0 1
  I       -1.8193480    -0.0907570     0.0000000
  I        1.8193480    -0.0907590     0.0000000
  C        0.0423700     1.0757388     0.0000000
  H        0.0000010     1.6626080     0.8962200
  H        0.0000010     1.6626080    -0.8962200
units angstrom
no_reorient  #important for SAPT in psi4, default
symmetry c1  #important for SAPT in psi4, default
}

set PROPERTIES_ORIGIN ["COM"]
properties('MP2/aug-cc-pvtz', properties = ['dipole'])
--------------------------------------------------------------------------

    Molecular point group: c1
  Charge       = 0
  Multiplicity = 1
  Basis Set: AUG-CC-PVTZ
    Blend: AUG-CC-PVTZ
  Basis Set: (AUG-CC-PVTZ AUX)
    Blend: AUG-CC-PVTZ-JKFIT + DEF2-UNIVERSAL-JKFIT

    Orbital Energies [Eh]
    ---------------------

    Doubly Occupied:

       1A    -11.339165     2A     -7.734156     3A     -7.728375
       4A     -5.566422     5A     -5.560436     6A     -5.555956
       7A     -5.555809     8A     -5.550179     9A     -5.550081
      10A     -2.296044    11A     -2.290932    12A     -2.290763
      13A     -2.289641    14A     -2.284940    15A     -2.284831
      16A     -2.279189    17A     -2.279187    18A     -2.273473
      19A     -2.273472    20A     -1.030923    21A     -0.892074
      22A     -0.827955    23A     -0.650754    24A     -0.524936
      25A     -0.478500    26A     -0.384403    27A     -0.380795
      28A     -0.374814    29A     -0.359463

  @DF-RHF Final Energy:  -628.35926678632177

   => Energetics <=

    Nuclear Repulsion Energy =            190.3229086630230427
    One-Electron Energy =               -1459.5890148650523770
    Two-Electron Energy =                 640.9068394157075090
    Total Energy =                       -628.3592667863217684
  Basis Set: (AUG-CC-PVTZ AUX)
    Blend: AUG-CC-PVTZ-RI + DEF2-QZVPP-RI
    Molecular point group: c1

    Geometry (in Angstrom), charge = 0, multiplicity = 1:

       Center              X                  Y                   Z               Mass
    ------------   -----------------  -----------------  -----------------  -----------------
         I           -1.821246414213    -0.065460254465     0.000000000000   126.904471900000
         I            1.817449585787    -0.065462254465     0.000000000000   126.904471900000
         C            0.040471585787     1.101035545535     0.000000000000    12.000000000000
         H           -0.001897414213     1.687904745535     0.896220000000     1.007825032230
         H           -0.001897414213     1.687904745535    -0.896220000000     1.007825032230

  Basis Set: AUG-CC-PVTZ
    Blend: AUG-CC-PVTZ
  Basis Set: (AUG-CC-PVTZ AUX)
    Blend: AUG-CC-PVTZ-JKFIT + DEF2-UNIVERSAL-JKFIT
	 Reference Energy          =    -628.3592667863217684 [Eh]
	 Singles Energy            =      -0.0000000000000000 [Eh]
	 Same-Spin Energy          =      -0.1932644558250859 [Eh]
	 Opposite-Spin Energy      =      -0.5008989612493825 [Eh]
	 Correlation Energy        =      -0.6941634170744684 [Eh]
	 Total Energy              =    -629.0534302033962604 [Eh]

	 ================> DF-SCS-MP2 Energies <==================
	-----------------------------------------------------------
	 SCS Same-Spin Scale       =       0.3333333333333333 [-]
	 SCS Opposite-Spin Scale   =       1.2000000000000000 [-]
	 SCS Same-Spin Energy      =      -0.0644214852750286 [Eh]
	 SCS Opposite-Spin Energy  =      -0.6010787534992590 [Eh]
	 SCS Correlation Energy    =      -0.6655002387742877 [Eh]
	 SCS Total Energy          =    -629.0247670250960255 [Eh]
	-----------------------------------------------------------

  Dipole Moment: [D]
     X:     0.1849      Y:     1.1205      Z:     0.0000     Total:     1.1356

*** Psi4 exiting successfully. Buy a developer a beer!
