                               Psi4 1.3.2 release

  ==> Input File <==

--------------------------------------------------------------------------
#psi4
#
memory 32 gb

molecule  {
0 1
  I       -1.8090893    -0.1065140    -0.0324126
  I        1.8193480    -0.0907590     0.0000000
  C        0.0000000     1.0491910     0.0000000
  H        0.0000010     1.6626080     0.8962200
  H        0.0000010     1.6626080    -0.8962200
units angstrom
no_reorient  #important for SAPT in psi4, default
symmetry c1  #important for SAPT in psi4, default
}

set PROPERTIES_ORIGIN ["COM"]

basis mybas {
    assign aug-cc-pvtz
    assign I aug-cc-pvtz-pp
}
properties('MP2/mybas', properties = ['dipole'])
--------------------------------------------------------------------------

    Molecular point group: c1
  Charge       = 0
  Multiplicity = 1
  Basis Set: MYBAS
    Blend: AUG-CC-PVTZ + AUG-CC-PVTZ-PP
  Basis Set: (MYBAS AUX)
    Blend: AUG-CC-PVTZ-JKFIT + DEF2-QZVPP-JKFIT

    Orbital Energies [Eh]
    ---------------------

    Doubly Occupied:

       1A    -11.338918     2A     -7.731618     3A     -7.731413
       4A     -5.563819     5A     -5.563606     6A     -5.553418
       7A     -5.553291     8A     -5.553221     9A     -5.553091
      10A     -2.293336    11A     -2.293059    12A     -2.288327
      13A     -2.288183    14A     -2.288114    15A     -2.287974
      16A     -2.276674    17A     -2.276673    18A     -2.276482
      19A     -2.276481    20A     -1.030418    21A     -0.893499
      22A     -0.825030    23A     -0.641721    24A     -0.527048
      25A     -0.481298    26A     -0.384744    27A     -0.380203
      28A     -0.374750    29A     -0.360073

  @DF-RHF Final Energy:  -628.36002089060491

   => Energetics <=

    Nuclear Repulsion Energy =            190.9567852869262481
    One-Electron Energy =               -1460.8606504273016071
    Two-Electron Energy =                 641.5438442497703591
    Total Energy =                       -628.3600208906049147
  Basis Set: (MYBAS AUX)
    Blend: AUG-CC-PVTZ-RI + DEF2-QZVPP-RI
    Molecular point group: c1

    Geometry (in Angstrom), charge = 0, multiplicity = 1:

       Center              X                  Y                   Z               Mass
    ------------   -----------------  -----------------  -----------------  -----------------
         I           -1.813950231189    -0.072561561833    -0.017054399222   126.904471900000
         I            1.814487068811    -0.056806561833     0.015358200778   126.904471900000
         C           -0.004860931189     1.083143438167     0.015358200778    12.000000000000
         H           -0.004859931189     1.696560438167     0.911578200778     1.007825032230
         H           -0.004859931189     1.696560438167    -0.880861799222     1.007825032230

  Basis Set: MYBAS
    Blend: AUG-CC-PVTZ + AUG-CC-PVTZ-PP
  Basis Set: (MYBAS AUX)
    Blend: AUG-CC-PVTZ-JKFIT + DEF2-QZVPP-JKFIT
	 Reference Energy          =    -628.3600208906049147 [Eh]
	 Singles Energy            =      -0.0000000000000000 [Eh]
	 Same-Spin Energy          =      -0.1934782087717470 [Eh]
	 Opposite-Spin Energy      =      -0.5010775239339744 [Eh]
	 Correlation Energy        =      -0.6945557327057215 [Eh]
	 Total Energy              =    -629.0545766233105951 [Eh]

	 ================> DF-SCS-MP2 Energies <==================
	-----------------------------------------------------------
	 SCS Same-Spin Scale       =       0.3333333333333333 [-]
	 SCS Opposite-Spin Scale   =       1.2000000000000000 [-]
	 SCS Same-Spin Energy      =      -0.0644927362572490 [Eh]
	 SCS Opposite-Spin Energy  =      -0.6012930287207693 [Eh]
	 SCS Correlation Energy    =      -0.6657857649780183 [Eh]
	 SCS Total Energy          =    -629.0258066555829828 [Eh]
	-----------------------------------------------------------

  Dipole Moment: [D]
     X:    -0.0091      Y:     1.1175      Z:     0.0058     Total:     1.1175

*** Psi4 exiting successfully. Buy a developer a beer!
