                               Psi4 1.3.2 release

  ==> Input File <==

--------------------------------------------------------------------------
#psi4
#
memory 32 gb

molecule  {
0 1
  I       -1.8381999    -0.0582063     0.0648154
  I        1.8193480    -0.0907590     0.0000000
  C        0.0000000     1.0491910     0.0000000
  H        0.0000010     1.6626080     0.8962200
  H        0.0000010     1.6626080    -0.8962200
units angstrom
no_reorient  #important for SAPT in psi4, default
symmetry c1  #important for SAPT in psi4, default
}

set PROPERTIES_ORIGIN ["COM"]

basis mybas {
    assign aug-cc-pvtz
    assign I aug-cc-pvtz-pp
}
properties('MP2/mybas', properties = ['dipole'])
--------------------------------------------------------------------------

    Molecular point group: c1
  Charge       = 0
  Multiplicity = 1
  Basis Set: MYBAS
    Blend: AUG-CC-PVTZ + AUG-CC-PVTZ-PP
  Basis Set: (MYBAS AUX)
    Blend: AUG-CC-PVTZ-JKFIT + DEF2-QZVPP-JKFIT

    Orbital Energies [Eh]
    ---------------------

    Doubly Occupied:

       1A    -11.338701     2A     -7.731963     3A     -7.731582
       4A     -5.564166     5A     -5.563770     6A     -5.553771
       7A     -5.553624     8A     -5.553402     9A     -5.553249
      10A     -2.293662    11A     -2.293232    12A     -2.288675
      13A     -2.288514    14A     -2.288289    15A     -2.288127
      16A     -2.277011    17A     -2.277011    18A     -2.276652
      19A     -2.276651    20A     -1.030288    21A     -0.894330
      22A     -0.824317    23A     -0.641676    24A     -0.525878
      25A     -0.482149    26A     -0.383636    27A     -0.380825
      28A     -0.374253    29A     -0.361633

  @DF-RHF Final Energy:  -628.35984852878687

   => Energetics <=

    Nuclear Repulsion Energy =            190.2595485206699379
    One-Electron Energy =               -1459.4567241998681766
    Two-Electron Energy =                 640.8373271504112836
    Total Energy =                       -628.3598485287868698
  Basis Set: (MYBAS AUX)
    Blend: AUG-CC-PVTZ-RI + DEF2-QZVPP-RI
    Molecular point group: c1

    Geometry (in Angstrom), charge = 0, multiplicity = 1:

       Center              X                  Y                   Z               Mass
    ------------   -----------------  -----------------  -----------------  -----------------
         I           -1.829267231183    -0.047143705774     0.034103642020   126.904471900000
         I            1.828280668817    -0.079696405774    -0.030711757980   126.904471900000
         C            0.008932668817     1.060253594226    -0.030711757980    12.000000000000
         H            0.008933668817     1.673670594226     0.865508242020     1.007825032230
         H            0.008933668817     1.673670594226    -0.926931757980     1.007825032230

  Basis Set: MYBAS
    Blend: AUG-CC-PVTZ + AUG-CC-PVTZ-PP
  Basis Set: (MYBAS AUX)
    Blend: AUG-CC-PVTZ-JKFIT + DEF2-QZVPP-JKFIT
	 Reference Energy          =    -628.3598485287868698 [Eh]
	 Singles Energy            =      -0.0000000000000000 [Eh]
	 Same-Spin Energy          =      -0.1934365786005245 [Eh]
	 Opposite-Spin Energy      =      -0.5010629346867967 [Eh]
	 Correlation Energy        =      -0.6944995132873213 [Eh]
	 Total Energy              =    -629.0543480420741389 [Eh]

	 ================> DF-SCS-MP2 Energies <==================
	-----------------------------------------------------------
	 SCS Same-Spin Scale       =       0.3333333333333333 [-]
	 SCS Opposite-Spin Scale   =       1.2000000000000000 [-]
	 SCS Same-Spin Energy      =      -0.0644788595335082 [Eh]
	 SCS Opposite-Spin Energy  =      -0.6012755216241561 [Eh]
	 SCS Correlation Energy    =      -0.6657543811576643 [Eh]
	 SCS Total Energy          =    -629.0256029099444959 [Eh]
	-----------------------------------------------------------

  Dipole Moment: [D]
     X:     0.0179      Y:     1.1127      Z:    -0.0121     Total:     1.1129

*** Psi4 exiting successfully. Buy a developer a beer!
