                               Psi4 1.3.2 release

  ==> Input File <==

--------------------------------------------------------------------------
#psi4
#
memory 32 gb

molecule  {
0 1
  I       -1.8389657    -0.0588314     0.0000000
  I        1.8193480    -0.0907590     0.0000000
  C        0.0000000     1.0491910     0.0000000
  H        0.0000010     1.6626080     0.8962200
  H        0.0000010     1.6626080    -0.8962200
units angstrom
no_reorient  #important for SAPT in psi4, default
symmetry c1  #important for SAPT in psi4, default
}

set PROPERTIES_ORIGIN ["COM"]

basis mybas {
    assign aug-cc-pvtz
    assign I aug-cc-pvtz-pp
}
properties('MP2/mybas', properties = ['dipole'])
--------------------------------------------------------------------------

    Molecular point group: c1
  Charge       = 0
  Multiplicity = 1
  Basis Set: MYBAS
    Blend: AUG-CC-PVTZ + AUG-CC-PVTZ-PP
  Basis Set: (MYBAS AUX)
    Blend: AUG-CC-PVTZ-JKFIT + DEF2-QZVPP-JKFIT

    Orbital Energies [Eh]
    ---------------------

    Doubly Occupied:

       1A    -11.338710     2A     -7.731967     3A     -7.731569
       4A     -5.564169     5A     -5.563756     6A     -5.553774
       7A     -5.553627     8A     -5.553390     9A     -5.553238
      10A     -2.293665    11A     -2.293218    12A     -2.288678
      13A     -2.288517    14A     -2.288276    15A     -2.288113
      16A     -2.277014    17A     -2.277014    18A     -2.276641
      19A     -2.276641    20A     -1.030269    21A     -0.894323
      22A     -0.824322    23A     -0.641661    24A     -0.525887
      25A     -0.482174    26A     -0.383598    27A     -0.380822
      28A     -0.374307    29A     -0.361637

  @DF-RHF Final Energy:  -628.35995112135788

   => Energetics <=

    Nuclear Repulsion Energy =            190.2534406747060132
    One-Electron Energy =               -1459.4448297156959597
    Two-Electron Energy =                 640.8314379196319805
    Total Energy =                       -628.3599511213578808
  Basis Set: (MYBAS AUX)
    Blend: AUG-CC-PVTZ-RI + DEF2-QZVPP-RI
    Molecular point group: c1

    Geometry (in Angstrom), charge = 0, multiplicity = 1:

       Center              X                  Y                   Z               Mass
    ------------   -----------------  -----------------  -----------------  -----------------
         I           -1.829670168896    -0.047472611970     0.000000000000   126.904471900000
         I            1.828643531104    -0.079400211970     0.000000000000   126.904471900000
         C            0.009295531104     1.060549788030     0.000000000000    12.000000000000
         H            0.009296531104     1.673966788030     0.896220000000     1.007825032230
         H            0.009296531104     1.673966788030    -0.896220000000     1.007825032230

  Basis Set: MYBAS
    Blend: AUG-CC-PVTZ + AUG-CC-PVTZ-PP
  Basis Set: (MYBAS AUX)
    Blend: AUG-CC-PVTZ-JKFIT + DEF2-QZVPP-JKFIT
	 Reference Energy          =    -628.3599511213578808 [Eh]
	 Singles Energy            =      -0.0000000000000000 [Eh]
	 Same-Spin Energy          =      -0.1934313696928118 [Eh]
	 Opposite-Spin Energy      =      -0.5010533526717919 [Eh]
	 Correlation Energy        =      -0.6944847223646036 [Eh]
	 Total Energy              =    -629.0544358437224446 [Eh]

	 ================> DF-SCS-MP2 Energies <==================
	-----------------------------------------------------------
	 SCS Same-Spin Scale       =       0.3333333333333333 [-]
	 SCS Opposite-Spin Scale   =       1.2000000000000000 [-]
	 SCS Same-Spin Energy      =      -0.0644771232309373 [Eh]
	 SCS Opposite-Spin Energy  =      -0.6012640232061502 [Eh]
	 SCS Correlation Energy    =      -0.6657411464370875 [Eh]
	 SCS Total Energy          =    -629.0256922677949660 [Eh]
	-----------------------------------------------------------

  Dipole Moment: [D]
     X:     0.0181      Y:     1.1128      Z:    -0.0000     Total:     1.1130

*** Psi4 exiting successfully. Buy a developer a beer!
