                               Psi4 1.4a3.dev225

  ==> Input File <==

--------------------------------------------------------------------------
#psi4
#
memory 32 gb

molecule  {
0 1
  I       -1.8193480    -0.0907570     0.0000000
  I        1.8193480    -0.0907590     0.0000000
  C        0.0169480     1.0598101     0.0000000
  H        0.0000010     1.6626080     0.8962200
  H        0.0000010     1.6626080    -0.8962200
units angstrom
no_reorient  #important for SAPT in psi4, default
symmetry c1  #important for SAPT in psi4, default
}

set PROPERTIES_ORIGIN ["COM"]
properties('MP2/aug-cc-pvtz', properties = ['dipole'])
--------------------------------------------------------------------------

    Molecular point group: c1
  Charge       = 0
  Multiplicity = 1
  Basis Set: AUG-CC-PVTZ
    Blend: AUG-CC-PVTZ
  Basis Set: (AUG-CC-PVTZ AUX)
    Blend: AUG-CC-PVTZ-JKFIT + DEF2-UNIVERSAL-JKFIT

    Orbital Energies [Eh]
    ---------------------

    Doubly Occupied:

       1A    -11.338878     2A     -7.732598     3A     -7.730339
       4A     -5.564822     5A     -5.562482     6A     -5.554402
       7A     -5.554263     8A     -5.552143     9A     -5.552023
      10A     -2.294362    11A     -2.291847    12A     -2.289329
      13A     -2.289176    14A     -2.286987    15A     -2.286856
      16A     -2.277649    17A     -2.277648    18A     -2.275410
      19A     -2.275410    20A     -1.030452    21A     -0.893106
      22A     -0.826105    23A     -0.645353    24A     -0.525659
      25A     -0.480493    26A     -0.384478    27A     -0.380352
      28A     -0.374930    29A     -0.360190

  @DF-RHF Final Energy:  -628.35999850057760

   => Energetics <=

    Nuclear Repulsion Energy =            190.5571471716436065
    One-Electron Energy =               -1460.0588098958935461
    Two-Electron Energy =                 641.1416642236722510
    Total Energy =                       -628.3599985005776034
  Basis Set: (AUG-CC-PVTZ AUX)
    Blend: AUG-CC-PVTZ-RI + DEF2-QZVPP-RI
    Molecular point group: c1

    Geometry (in Angstrom), charge = 0, multiplicity = 1:

       Center              X                  Y                   Z               Mass
    ------------   -----------------  -----------------  -----------------  -----------------
         I           -1.820107370201    -0.064746561980     0.000000000000   126.904471900000
         I            1.818588629799    -0.064748561980     0.000000000000   126.904471900000
         C            0.016188629799     1.085820538020     0.000000000000    12.000000000000
         H           -0.000758370201     1.688618438020     0.896220000000     1.007825032230
         H           -0.000758370201     1.688618438020    -0.896220000000     1.007825032230

  Basis Set: AUG-CC-PVTZ
    Blend: AUG-CC-PVTZ
  Basis Set: (AUG-CC-PVTZ AUX)
    Blend: AUG-CC-PVTZ-JKFIT + DEF2-UNIVERSAL-JKFIT
	 Reference Energy          =    -628.3599985005776034 [Eh]
	 Singles Energy            =      -0.0000000000000000 [Eh]
	 Same-Spin Energy          =      -0.1933683022157879 [Eh]
	 Opposite-Spin Energy      =      -0.5009813043126676 [Eh]
	 Correlation Energy        =      -0.6943496065284556 [Eh]
	 Total Energy              =    -629.0543481071060796 [Eh]

	 ================> DF-SCS-MP2 Energies <==================
	-----------------------------------------------------------
	 SCS Same-Spin Scale       =       0.3333333333333333 [-]
	 SCS Opposite-Spin Scale   =       1.2000000000000000 [-]
	 SCS Same-Spin Energy      =      -0.0644561007385960 [Eh]
	 SCS Opposite-Spin Energy  =      -0.6011775651752012 [Eh]
	 SCS Correlation Energy    =      -0.6656336659137971 [Eh]
	 SCS Total Energy          =    -629.0256321664913912 [Eh]
	-----------------------------------------------------------

  Dipole Moment: [D]
     X:     0.0736      Y:     1.1179      Z:    -0.0000     Total:     1.1203

*** Psi4 exiting successfully. Buy a developer a beer!
