                               Psi4 1.3.2 release

  ==> Input File <==

--------------------------------------------------------------------------
#psi4
#
memory 32 gb

molecule  {
0 1
  I       -1.9285384     0.1056614     0.0000000
  I        1.8193480    -0.0907590     0.0000000
  C        0.0000000     1.0491910     0.0000000
  H        0.0000010     1.6626080     0.8962200
  H        0.0000010     1.6626080    -0.8962200
units angstrom
no_reorient  #important for SAPT in psi4, default
symmetry c1  #important for SAPT in psi4, default
}

set PROPERTIES_ORIGIN ["COM"]

basis mybas {
    assign aug-cc-pvtz
    assign I aug-cc-pvtz-pp
}
properties('MP2/mybas', properties = ['dipole'])
--------------------------------------------------------------------------

    Molecular point group: c1
  Charge       = 0
  Multiplicity = 1
  Basis Set: MYBAS
    Blend: AUG-CC-PVTZ + AUG-CC-PVTZ-PP
  Basis Set: (MYBAS AUX)
    Blend: AUG-CC-PVTZ-JKFIT + DEF2-QZVPP-JKFIT

    Orbital Energies [Eh]
    ---------------------

    Doubly Occupied:

       1A    -11.337897     2A     -7.733789     3A     -7.731446
       4A     -5.566033     5A     -5.563606     6A     -5.555587
       7A     -5.555388     8A     -5.553318     9A     -5.553092
      10A     -2.295502    11A     -2.293064    12A     -2.290528
      13A     -2.290317    14A     -2.288175    15A     -2.287940
      16A     -2.278756    17A     -2.278754    18A     -2.276551
      19A     -2.276547    20A     -1.030001    21A     -0.896906
      22A     -0.822043    23A     -0.641507    24A     -0.522096
      25A     -0.484750    26A     -0.382838    27A     -0.380158
      28A     -0.372855    29A     -0.366236

  @DF-RHF Final Energy:  -628.35835852038861

   => Energetics <=

    Nuclear Repulsion Energy =            188.1179865884680567
    One-Electron Energy =               -1455.1413376273803806
    Two-Electron Energy =                 638.6649925185237180
    Total Energy =                       -628.3583585203886059
  Basis Set: (MYBAS AUX)
    Blend: AUG-CC-PVTZ-RI + DEF2-QZVPP-RI
    Molecular point group: c1

    Geometry (in Angstrom), charge = 0, multiplicity = 1:

       Center              X                  Y                   Z               Mass
    ------------   -----------------  -----------------  -----------------  -----------------
         I           -1.876800253652     0.039077861621     0.000000000000   126.904471900000
         I            1.871086146348    -0.157342538379     0.000000000000   126.904471900000
         C            0.051738146348     0.982607461621     0.000000000000    12.000000000000
         H            0.051739146348     1.596024461621     0.896220000000     1.007825032230
         H            0.051739146348     1.596024461621    -0.896220000000     1.007825032230

  Basis Set: MYBAS
    Blend: AUG-CC-PVTZ + AUG-CC-PVTZ-PP
  Basis Set: (MYBAS AUX)
    Blend: AUG-CC-PVTZ-JKFIT + DEF2-QZVPP-JKFIT
	 Reference Energy          =    -628.3583585203886059 [Eh]
	 Singles Energy            =      -0.0000000000000000 [Eh]
	 Same-Spin Energy          =      -0.1933525755703285 [Eh]
	 Opposite-Spin Energy      =      -0.5011148926160759 [Eh]
	 Correlation Energy        =      -0.6944674681864045 [Eh]
	 Total Energy              =    -629.0528259885750231 [Eh]

	 ================> DF-SCS-MP2 Energies <==================
	-----------------------------------------------------------
	 SCS Same-Spin Scale       =       0.3333333333333333 [-]
	 SCS Opposite-Spin Scale   =       1.2000000000000000 [-]
	 SCS Same-Spin Energy      =      -0.0644508585234428 [Eh]
	 SCS Opposite-Spin Energy  =      -0.6013378711392910 [Eh]
	 SCS Correlation Energy    =      -0.6657887296627338 [Eh]
	 SCS Total Energy          =    -629.0241472500513282 [Eh]
	-----------------------------------------------------------

  Dipole Moment: [D]
     X:     0.1099      Y:     1.0912      Z:     0.0000     Total:     1.0967

*** Psi4 exiting successfully. Buy a developer a beer!
