                               Psi4 1.3.2 release

  ==> Input File <==

--------------------------------------------------------------------------
#psi4
#
memory 32 gb

molecule  {
0 1
  I       -1.7784561    -0.1535569     0.0000000
  I        1.8193480    -0.0907590     0.0000000
  C        0.0000000     1.0491910     0.0000000
  H        0.0000010     1.6626080     0.8962200
  H        0.0000010     1.6626080    -0.8962200
units angstrom
no_reorient  #important for SAPT in psi4, default
symmetry c1  #important for SAPT in psi4, default
}

set PROPERTIES_ORIGIN ["COM"]

basis mybas {
    assign aug-cc-pvtz
    assign I aug-cc-pvtz-pp
}
properties('MP2/mybas', properties = ['dipole'])
--------------------------------------------------------------------------

    Molecular point group: c1
  Charge       = 0
  Multiplicity = 1
  Basis Set: MYBAS
    Blend: AUG-CC-PVTZ + AUG-CC-PVTZ-PP
  Basis Set: (MYBAS AUX)
    Blend: AUG-CC-PVTZ-JKFIT + DEF2-QZVPP-JKFIT

    Orbital Energies [Eh]
    ---------------------

    Doubly Occupied:

       1A    -11.339112     2A     -7.731664     3A     -7.730862
       4A     -5.563882     5A     -5.563048     6A     -5.553443
       7A     -5.553341     8A     -5.552667     9A     -5.552556
      10A     -2.293384    11A     -2.292527    12A     -2.288371
      13A     -2.288252    14A     -2.287560    15A     -2.287435
      16A     -2.276702    17A     -2.276700    18A     -2.275950
      19A     -2.275948    20A     -1.030589    21A     -0.892648
      22A     -0.825752    23A     -0.641776    24A     -0.528215
      25A     -0.480398    26A     -0.385925    27A     -0.379592
      28A     -0.375212    29A     -0.358426

  @DF-RHF Final Energy:  -628.35995368918623

   => Energetics <=

    Nuclear Repulsion Energy =            191.6839103914418558
    One-Electron Energy =               -1462.3238564567957383
    Two-Electron Energy =                 642.2799923761675700
    Total Energy =                       -628.3599536891862272
  Basis Set: (MYBAS AUX)
    Blend: AUG-CC-PVTZ-RI + DEF2-QZVPP-RI
    Molecular point group: c1

    Geometry (in Angstrom), charge = 0, multiplicity = 1:

       Center              X                  Y                   Z               Mass
    ------------   -----------------  -----------------  -----------------  -----------------
         I           -1.797832091261    -0.097313923481     0.000000000000   126.904471900000
         I            1.799972008739    -0.034516023481     0.000000000000   126.904471900000
         C           -0.019375991261     1.105433976519     0.000000000000    12.000000000000
         H           -0.019374991261     1.718850976519     0.896220000000     1.007825032230
         H           -0.019374991261     1.718850976519    -0.896220000000     1.007825032230

  Basis Set: MYBAS
    Blend: AUG-CC-PVTZ + AUG-CC-PVTZ-PP
  Basis Set: (MYBAS AUX)
    Blend: AUG-CC-PVTZ-JKFIT + DEF2-QZVPP-JKFIT
	 Reference Energy          =    -628.3599536891862272 [Eh]
	 Singles Energy            =      -0.0000000000000000 [Eh]
	 Same-Spin Energy          =      -0.1935334647873093 [Eh]
	 Opposite-Spin Energy      =      -0.5011169255596035 [Eh]
	 Correlation Energy        =      -0.6946503903469128 [Eh]
	 Total Energy              =    -629.0546040795331919 [Eh]

	 ================> DF-SCS-MP2 Energies <==================
	-----------------------------------------------------------
	 SCS Same-Spin Scale       =       0.3333333333333333 [-]
	 SCS Opposite-Spin Scale   =       1.2000000000000000 [-]
	 SCS Same-Spin Energy      =      -0.0645111549291031 [Eh]
	 SCS Opposite-Spin Energy  =      -0.6013403106715242 [Eh]
	 SCS Correlation Energy    =      -0.6658514656006272 [Eh]
	 SCS Total Energy          =    -629.0258051547868945 [Eh]
	-----------------------------------------------------------

  Dipole Moment: [D]
     X:    -0.0359      Y:     1.1213      Z:     0.0000     Total:     1.1219

*** Psi4 exiting successfully. Buy a developer a beer!
