                               Psi4 1.3.2 release

  ==> Input File <==

--------------------------------------------------------------------------
#psi4
#
memory 32 gb

molecule  {
0 1
  I       -1.7991761    -0.1223354     0.0000000
  I        1.8193480    -0.0907590     0.0000000
  C        0.0000000     1.0491910     0.0000000
  H        0.0000010     1.6626080     0.8962200
  H        0.0000010     1.6626080    -0.8962200
units angstrom
no_reorient  #important for SAPT in psi4, default
symmetry c1  #important for SAPT in psi4, default
}

set PROPERTIES_ORIGIN ["COM"]

basis mybas {
    assign aug-cc-pvtz
    assign I aug-cc-pvtz-pp
}
properties('MP2/mybas', properties = ['dipole'])
--------------------------------------------------------------------------

    Molecular point group: c1
  Charge       = 0
  Multiplicity = 1
  Basis Set: MYBAS
    Blend: AUG-CC-PVTZ + AUG-CC-PVTZ-PP
  Basis Set: (MYBAS AUX)
    Blend: AUG-CC-PVTZ-JKFIT + DEF2-QZVPP-JKFIT

    Orbital Energies [Eh]
    ---------------------

    Doubly Occupied:

       1A    -11.338986     2A     -7.731631     3A     -7.731231
       4A     -5.563837     5A     -5.563421     6A     -5.553424
       7A     -5.553306     8A     -5.553038     9A     -5.552914
      10A     -2.293343    11A     -2.292889    12A     -2.288338
      13A     -2.288203    14A     -2.287931    15A     -2.287795
      16A     -2.276682    17A     -2.276680    18A     -2.276306
      19A     -2.276305    20A     -1.030468    21A     -0.893218
      22A     -0.825269    23A     -0.641736    24A     -0.527437
      25A     -0.481007    26A     -0.385124    27A     -0.379998
      28A     -0.374913    29A     -0.359537

  @DF-RHF Final Energy:  -628.36003666121928

   => Energetics <=

    Nuclear Repulsion Energy =            191.1940297459583462
    One-Electron Energy =               -1461.3382012509266588
    Two-Electron Energy =                 641.7841348437489160
    Total Energy =                       -628.3600366612192829
  Basis Set: (MYBAS AUX)
    Blend: AUG-CC-PVTZ-RI + DEF2-QZVPP-RI
    Molecular point group: c1

    Geometry (in Angstrom), charge = 0, multiplicity = 1:

       Center              X                  Y                   Z               Mass
    ------------   -----------------  -----------------  -----------------  -----------------
         I           -1.808734245111    -0.080886240256     0.000000000000   126.904471900000
         I            1.809789854889    -0.049309840256     0.000000000000   126.904471900000
         C           -0.009558145111     1.090640159744     0.000000000000    12.000000000000
         H           -0.009557145111     1.704057159744     0.896220000000     1.007825032230
         H           -0.009557145111     1.704057159744    -0.896220000000     1.007825032230

  Basis Set: MYBAS
    Blend: AUG-CC-PVTZ + AUG-CC-PVTZ-PP
  Basis Set: (MYBAS AUX)
    Blend: AUG-CC-PVTZ-JKFIT + DEF2-QZVPP-JKFIT
	 Reference Energy          =    -628.3600366612192829 [Eh]
	 Singles Energy            =      -0.0000000000000000 [Eh]
	 Same-Spin Energy          =      -0.1934944306410673 [Eh]
	 Opposite-Spin Energy      =      -0.5010867546015342 [Eh]
	 Correlation Energy        =      -0.6945811852426015 [Eh]
	 Total Energy              =    -629.0546178464618379 [Eh]

	 ================> DF-SCS-MP2 Energies <==================
	-----------------------------------------------------------
	 SCS Same-Spin Scale       =       0.3333333333333333 [-]
	 SCS Opposite-Spin Scale   =       1.2000000000000000 [-]
	 SCS Same-Spin Energy      =      -0.0644981435470224 [Eh]
	 SCS Opposite-Spin Energy  =      -0.6013041055218410 [Eh]
	 SCS Correlation Energy    =      -0.6658022490688634 [Eh]
	 SCS Total Energy          =    -629.0258389102881438 [Eh]
	-----------------------------------------------------------

  Dipole Moment: [D]
     X:    -0.0180      Y:     1.1189      Z:    -0.0000     Total:     1.1190

*** Psi4 exiting successfully. Buy a developer a beer!
