                               Psi4 1.3.2 release

  ==> Input File <==

--------------------------------------------------------------------------
#psi4
#
memory 32 gb

molecule  {
0 1
  I       -1.7750201    -0.1516540    -0.1295518
  I        1.8193480    -0.0907590     0.0000000
  C        0.0000000     1.0491910     0.0000000
  H        0.0000010     1.6626080     0.8962200
  H        0.0000010     1.6626080    -0.8962200
units angstrom
no_reorient  #important for SAPT in psi4, default
symmetry c1  #important for SAPT in psi4, default
}

set PROPERTIES_ORIGIN ["COM"]

basis mybas {
    assign aug-cc-pvtz
    assign I aug-cc-pvtz-pp
}
properties('MP2/mybas', properties = ['dipole'])
--------------------------------------------------------------------------

    Molecular point group: c1
  Charge       = 0
  Multiplicity = 1
  Basis Set: MYBAS
    Blend: AUG-CC-PVTZ + AUG-CC-PVTZ-PP
  Basis Set: (MYBAS AUX)
    Blend: AUG-CC-PVTZ-JKFIT + DEF2-QZVPP-JKFIT

    Orbital Energies [Eh]
    ---------------------

    Doubly Occupied:

       1A    -11.339080     2A     -7.731711     3A     -7.730842
       4A     -5.563936     5A     -5.563027     6A     -5.553488
       7A     -5.553381     8A     -5.552647     9A     -5.552537
      10A     -2.293438    11A     -2.292507    12A     -2.288423
      13A     -2.288303    14A     -2.287540    15A     -2.287415
      16A     -2.276742    17A     -2.276739    18A     -2.275931
      19A     -2.275929    20A     -1.030663    21A     -0.892658
      22A     -0.825744    23A     -0.641835    24A     -0.528189
      25A     -0.480294    26A     -0.386073    27A     -0.379591
      28A     -0.375038    29A     -0.358383

  @DF-RHF Final Energy:  -628.35954768066654

   => Energetics <=

    Nuclear Repulsion Energy =            191.7182448506918035
    One-Electron Energy =               -1462.3914154999629318
    Two-Electron Energy =                 642.3136229686044771
    Total Energy =                       -628.3595476806665374
  Basis Set: (MYBAS AUX)
    Blend: AUG-CC-PVTZ-RI + DEF2-QZVPP-RI
    Molecular point group: c1

    Geometry (in Angstrom), charge = 0, multiplicity = 1:

       Center              X                  Y                   Z               Mass
    ------------   -----------------  -----------------  -----------------  -----------------
         I           -1.796024185825    -0.096312682720    -0.068165716947   126.904471900000
         I            1.798343914175    -0.035417682720     0.061386083053   126.904471900000
         C           -0.021004085825     1.104532317280     0.061386083053    12.000000000000
         H           -0.021003085825     1.717949317280     0.957606083053     1.007825032230
         H           -0.021003085825     1.717949317280    -0.834833916947     1.007825032230

  Basis Set: MYBAS
    Blend: AUG-CC-PVTZ + AUG-CC-PVTZ-PP
  Basis Set: (MYBAS AUX)
    Blend: AUG-CC-PVTZ-JKFIT + DEF2-QZVPP-JKFIT
	 Reference Energy          =    -628.3595476806665374 [Eh]
	 Singles Energy            =      -0.0000000000000000 [Eh]
	 Same-Spin Energy          =      -0.1935549117394999 [Eh]
	 Opposite-Spin Energy      =      -0.5011555381733721 [Eh]
	 Correlation Energy        =      -0.6947104499128720 [Eh]
	 Total Energy              =    -629.0542581305794556 [Eh]

	 ================> DF-SCS-MP2 Energies <==================
	-----------------------------------------------------------
	 SCS Same-Spin Scale       =       0.3333333333333333 [-]
	 SCS Opposite-Spin Scale   =       1.2000000000000000 [-]
	 SCS Same-Spin Energy      =      -0.0645183039131666 [Eh]
	 SCS Opposite-Spin Energy  =      -0.6013866458080465 [Eh]
	 SCS Correlation Energy    =      -0.6659049497212131 [Eh]
	 SCS Total Energy          =    -629.0254526303878038 [Eh]
	-----------------------------------------------------------

  Dipole Moment: [D]
     X:    -0.0368      Y:     1.1209      Z:     0.0224     Total:     1.1218

*** Psi4 exiting successfully. Buy a developer a beer!
