                               Psi4 1.3.2 release

  ==> Input File <==

--------------------------------------------------------------------------
#psi4
#
memory 32 gb

molecule  {
0 1
  I       -1.8193480    -0.0907570     0.0000000
  I        1.8193480    -0.0907590     0.0000000
  C        0.0000000     1.0491910     0.0000000
  H        0.0000010     1.6626080     0.8962200
  H        0.0000010     1.6626080    -0.8962200
units angstrom
no_reorient  #important for SAPT in psi4, default
symmetry c1  #important for SAPT in psi4, default
}

set PROPERTIES_ORIGIN ["COM"]

basis mybas {
    assign aug-cc-pvtz
    assign I aug-cc-pvtz-pp
}
properties('MP2/mybas', properties = ['dipole'])
--------------------------------------------------------------------------

    Molecular point group: c1
  Charge       = 0
  Multiplicity = 1
  Basis Set: MYBAS
    Blend: AUG-CC-PVTZ + AUG-CC-PVTZ-PP
  Basis Set: (MYBAS AUX)
    Blend: AUG-CC-PVTZ-JKFIT + DEF2-QZVPP-JKFIT

    Orbital Energies [Eh]
    ---------------------

    Doubly Occupied:

       1A    -11.338852     2A     -7.731600     3A     -7.731598
       4A     -5.563797     5A     -5.563793     6A     -5.553408
       7A     -5.553405     8A     -5.553273     9A     -5.553270
      10A     -2.293364    11A     -2.293191    12A     -2.288331
      13A     -2.288280    14A     -2.288163    15A     -2.288150
      16A     -2.276662    17A     -2.276661    18A     -2.276660
      19A     -2.276660    20A     -1.030362    21A     -0.893776
      22A     -0.824792    23A     -0.641698    24A     -0.526661
      25A     -0.481599    26A     -0.384348    27A     -0.380409
      28A     -0.374609    29A     -0.360607

  @DF-RHF Final Energy:  -628.36003509165585

   => Energetics <=

    Nuclear Repulsion Energy =            190.7173013702505955
    One-Electron Energy =               -1460.3787129964730411
    Two-Electron Energy =                 641.3013765345665433
    Total Energy =                       -628.3600350916558455
  Basis Set: (MYBAS AUX)
    Blend: AUG-CC-PVTZ-RI + DEF2-QZVPP-RI
    Molecular point group: c1

    Geometry (in Angstrom), charge = 0, multiplicity = 1:

       Center              X                  Y                   Z               Mass
    ------------   -----------------  -----------------  -----------------  -----------------
         I           -1.819348007526    -0.064270768483     0.000000000000   126.904471900000
         I            1.819347992474    -0.064272768483     0.000000000000   126.904471900000
         C           -0.000000007526     1.075677231517     0.000000000000    12.000000000000
         H            0.000000992474     1.689094231517     0.896220000000     1.007825032230
         H            0.000000992474     1.689094231517    -0.896220000000     1.007825032230

  Basis Set: MYBAS
    Blend: AUG-CC-PVTZ + AUG-CC-PVTZ-PP
  Basis Set: (MYBAS AUX)
    Blend: AUG-CC-PVTZ-JKFIT + DEF2-QZVPP-JKFIT
	 Reference Energy          =    -628.3600350916558455 [Eh]
	 Singles Energy            =      -0.0000000000000000 [Eh]
	 Same-Spin Energy          =      -0.1934604655103226 [Eh]
	 Opposite-Spin Energy      =      -0.5010656562871054 [Eh]
	 Correlation Energy        =      -0.6945261217974281 [Eh]
	 Total Energy              =    -629.0545612134533258 [Eh]

	 ================> DF-SCS-MP2 Energies <==================
	-----------------------------------------------------------
	 SCS Same-Spin Scale       =       0.3333333333333333 [-]
	 SCS Opposite-Spin Scale   =       1.2000000000000000 [-]
	 SCS Same-Spin Energy      =      -0.0644868218367742 [Eh]
	 SCS Opposite-Spin Energy  =      -0.6012787875445265 [Eh]
	 SCS Correlation Energy    =      -0.6657656093813007 [Eh]
	 SCS Total Energy          =    -629.0258007010371557 [Eh]
	-----------------------------------------------------------

  Dipole Moment: [D]
     X:    -0.0000      Y:     1.1160      Z:     0.0000     Total:     1.1160

*** Psi4 exiting successfully. Buy a developer a beer!
