                               Psi4 1.3.2 release

  ==> Input File <==

--------------------------------------------------------------------------
#psi4
#
memory 32 gb

molecule  {
0 1
  I       -1.7495981    -0.1799260    -0.1941303
  I        1.8193480    -0.0907590     0.0000000
  C        0.0000000     1.0491910     0.0000000
  H        0.0000010     1.6626080     0.8962200
  H        0.0000010     1.6626080    -0.8962200
units angstrom
no_reorient  #important for SAPT in psi4, default
symmetry c1  #important for SAPT in psi4, default
}

set PROPERTIES_ORIGIN ["COM"]

basis mybas {
    assign aug-cc-pvtz
    assign I aug-cc-pvtz-pp
}
properties('MP2/mybas', properties = ['dipole'])
--------------------------------------------------------------------------

    Molecular point group: c1
  Charge       = 0
  Multiplicity = 1
  Basis Set: MYBAS
    Blend: AUG-CC-PVTZ + AUG-CC-PVTZ-PP
  Basis Set: (MYBAS AUX)
    Blend: AUG-CC-PVTZ-JKFIT + DEF2-QZVPP-JKFIT

    Orbital Energies [Eh]
    ---------------------

    Doubly Occupied:

       1A    -11.339158     2A     -7.731802     3A     -7.730451
       4A     -5.564049     5A     -5.562632     6A     -5.553561
       7A     -5.553465     8A     -5.552254     9A     -5.552157
      10A     -2.293553    11A     -2.292119    12A     -2.288523
      13A     -2.288416    14A     -2.287146    15A     -2.287034
      16A     -2.276810    17A     -2.276806    18A     -2.275552
      19A     -2.275549    20A     -1.030890    21A     -0.892089
      22A     -0.826224    23A     -0.641948    24A     -0.528928
      25A     -0.479546    26A     -0.387065    27A     -0.379195
      28A     -0.375133    29A     -0.357177

  @DF-RHF Final Energy:  -628.35887177941368

   => Energetics <=

    Nuclear Repulsion Energy =            192.2622297253545867
    One-Electron Energy =               -1463.4837423314613716
    Two-Electron Energy =                 642.8626408266932231
    Total Energy =                       -628.3588717794136755
  Basis Set: (MYBAS AUX)
    Blend: AUG-CC-PVTZ-RI + DEF2-QZVPP-RI
    Molecular point group: c1

    Geometry (in Angstrom), charge = 0, multiplicity = 1:

       Center              X                  Y                   Z               Mass
    ------------   -----------------  -----------------  -----------------  -----------------
         I           -1.782648000730    -0.111188440136    -0.102144710306   126.904471900000
         I            1.786298099270    -0.022021440136     0.091985589694   126.904471900000
         C           -0.033049900730     1.117928559864     0.091985589694    12.000000000000
         H           -0.033048900730     1.731345559864     0.988205589694     1.007825032230
         H           -0.033048900730     1.731345559864    -0.804234410306     1.007825032230

  Basis Set: MYBAS
    Blend: AUG-CC-PVTZ + AUG-CC-PVTZ-PP
  Basis Set: (MYBAS AUX)
    Blend: AUG-CC-PVTZ-JKFIT + DEF2-QZVPP-JKFIT
	 Reference Energy          =    -628.3588717794136755 [Eh]
	 Singles Energy            =      -0.0000000000000000 [Eh]
	 Same-Spin Energy          =      -0.1936258704329388 [Eh]
	 Opposite-Spin Energy      =      -0.5012433015524604 [Eh]
	 Correlation Energy        =      -0.6948691719853992 [Eh]
	 Total Energy              =    -629.0537409513990497 [Eh]

	 ================> DF-SCS-MP2 Energies <==================
	-----------------------------------------------------------
	 SCS Same-Spin Scale       =       0.3333333333333333 [-]
	 SCS Opposite-Spin Scale   =       1.2000000000000000 [-]
	 SCS Same-Spin Energy      =      -0.0645419568109796 [Eh]
	 SCS Opposite-Spin Energy  =      -0.6014919618629525 [Eh]
	 SCS Correlation Energy    =      -0.6660339186739321 [Eh]
	 SCS Total Energy          =    -629.0249056980876503 [Eh]
	-----------------------------------------------------------

  Dipole Moment: [D]
     X:    -0.0555      Y:     1.1225      Z:     0.0326     Total:     1.1243

*** Psi4 exiting successfully. Buy a developer a beer!
