                               Psi4 1.3.2 release

  ==> Input File <==

--------------------------------------------------------------------------
#psi4
#
memory 32 gb

molecule  {
0 1
  I       -1.8290525    -0.0746528     0.0324126
  I        1.8193480    -0.0907590     0.0000000
  C        0.0000000     1.0491910     0.0000000
  H        0.0000010     1.6626080     0.8962200
  H        0.0000010     1.6626080    -0.8962200
units angstrom
no_reorient  #important for SAPT in psi4, default
symmetry c1  #important for SAPT in psi4, default
}

set PROPERTIES_ORIGIN ["COM"]

basis mybas {
    assign aug-cc-pvtz
    assign I aug-cc-pvtz-pp
}
properties('MP2/mybas', properties = ['dipole'])
--------------------------------------------------------------------------

    Molecular point group: c1
  Charge       = 0
  Multiplicity = 1
  Basis Set: MYBAS
    Blend: AUG-CC-PVTZ + AUG-CC-PVTZ-PP
  Basis Set: (MYBAS AUX)
    Blend: AUG-CC-PVTZ-JKFIT + DEF2-QZVPP-JKFIT

    Orbital Energies [Eh]
    ---------------------

    Doubly Occupied:

       1A    -11.338780     2A     -7.731782     3A     -7.731587
       4A     -5.563982     5A     -5.563779     6A     -5.553590
       7A     -5.553449     8A     -5.553401     9A     -5.553257
      10A     -2.293494    11A     -2.293228    12A     -2.288493
      13A     -2.288337    14A     -2.288291    15A     -2.288138
      16A     -2.276837    17A     -2.276837    18A     -2.276654
      19A     -2.276653    20A     -1.030318    21A     -0.894053
      22A     -0.824555    23A     -0.641683    24A     -0.526270
      25A     -0.481883    26A     -0.383979    27A     -0.380617
      28A     -0.374444    29A     -0.361127

  @DF-RHF Final Energy:  -628.35997763669104

   => Energetics <=

    Nuclear Repulsion Energy =            190.4849050460858564
    One-Electron Energy =               -1459.9107703486974970
    Two-Electron Energy =                 641.0658876659205134
    Total Energy =                       -628.3599776366910419
  Basis Set: (MYBAS AUX)
    Blend: AUG-CC-PVTZ-RI + DEF2-QZVPP-RI
    Molecular point group: c1

    Geometry (in Angstrom), charge = 0, multiplicity = 1:

       Center              X                  Y                   Z               Mass
    ------------   -----------------  -----------------  -----------------  -----------------
         I           -1.824454182817    -0.055797290393     0.017054399222   126.904471900000
         I            1.823946317183    -0.071903490393    -0.015358200778   126.904471900000
         C            0.004598317183     1.068046509607    -0.015358200778    12.000000000000
         H            0.004599317183     1.681463509607     0.880861799222     1.007825032230
         H            0.004599317183     1.681463509607    -0.911578200778     1.007825032230

  Basis Set: MYBAS
    Blend: AUG-CC-PVTZ + AUG-CC-PVTZ-PP
  Basis Set: (MYBAS AUX)
    Blend: AUG-CC-PVTZ-JKFIT + DEF2-QZVPP-JKFIT
	 Reference Energy          =    -628.3599776366910419 [Eh]
	 Singles Energy            =      -0.0000000000000000 [Eh]
	 Same-Spin Energy          =      -0.1934465956202197 [Eh]
	 Opposite-Spin Energy      =      -0.5010608017075994 [Eh]
	 Correlation Energy        =      -0.6945073973278191 [Eh]
	 Total Energy              =    -629.0544850340188532 [Eh]

	 ================> DF-SCS-MP2 Energies <==================
	-----------------------------------------------------------
	 SCS Same-Spin Scale       =       0.3333333333333333 [-]
	 SCS Opposite-Spin Scale   =       1.2000000000000000 [-]
	 SCS Same-Spin Energy      =      -0.0644821985400732 [Eh]
	 SCS Opposite-Spin Energy  =      -0.6012729620491192 [Eh]
	 SCS Correlation Energy    =      -0.6657551605891924 [Eh]
	 SCS Total Energy          =    -629.0257327972802841 [Eh]
	-----------------------------------------------------------

  Dipole Moment: [D]
     X:     0.0090      Y:     1.1145      Z:    -0.0060     Total:     1.1145

*** Psi4 exiting successfully. Buy a developer a beer!
