                               Psi4 1.4a3.dev225

  ==> Input File <==

--------------------------------------------------------------------------
#psi4
#
memory 32 gb

molecule  {
0 1
  I       -1.8193480    -0.0907570     0.0000000
  I        1.8193480    -0.0907590     0.0000000
  C       -0.0169480     1.0385719     0.0000000
  H        0.0000010     1.6626080     0.8962200
  H        0.0000010     1.6626080    -0.8962200
units angstrom
no_reorient  #important for SAPT in psi4, default
symmetry c1  #important for SAPT in psi4, default
}

set PROPERTIES_ORIGIN ["COM"]
properties('MP2/aug-cc-pvtz', properties = ['dipole'])
--------------------------------------------------------------------------

    Molecular point group: c1
  Charge       = 0
  Multiplicity = 1
  Basis Set: AUG-CC-PVTZ
    Blend: AUG-CC-PVTZ
  Basis Set: (AUG-CC-PVTZ AUX)
    Blend: AUG-CC-PVTZ-JKFIT + DEF2-UNIVERSAL-JKFIT

    Orbital Energies [Eh]
    ---------------------

    Doubly Occupied:

       1A    -11.338956     2A     -7.732823     3A     -7.730630
       4A     -5.565070     5A     -5.562799     6A     -5.554638
       7A     -5.554485     8A     -5.552441     9A     -5.552308
      10A     -2.294680    11A     -2.292225    12A     -2.289587
      13A     -2.289421    14A     -2.287311    15A     -2.287167
      16A     -2.277882    17A     -2.277881    18A     -2.275703
      19A     -2.275703    20A     -1.030469    21A     -0.894419
      22A     -0.823421    23A     -0.638017    24A     -0.528069
      25A     -0.482520    26A     -0.384080    27A     -0.380672
      28A     -0.374043    29A     -0.360970

  @DF-RHF Final Energy:  -628.35967618872007

   => Energetics <=

    Nuclear Repulsion Energy =            190.8810475837169065
    One-Electron Energy =               -1460.7046710291951968
    Two-Electron Energy =                 641.4639472567581606
    Total Energy =                       -628.3596761887200728
  Basis Set: (AUG-CC-PVTZ AUX)
    Blend: AUG-CC-PVTZ-RI + DEF2-QZVPP-RI
    Molecular point group: c1

    Geometry (in Angstrom), charge = 0, multiplicity = 1:

       Center              X                  Y                   Z               Mass
    ------------   -----------------  -----------------  -----------------  -----------------
         I           -1.818588644851    -0.063794974986     0.000000000000   126.904471900000
         I            1.820107355149    -0.063796974986     0.000000000000   126.904471900000
         C           -0.016188644851     1.065533925014     0.000000000000    12.000000000000
         H            0.000760355149     1.689570025014     0.896220000000     1.007825032230
         H            0.000760355149     1.689570025014    -0.896220000000     1.007825032230

  Basis Set: AUG-CC-PVTZ
    Blend: AUG-CC-PVTZ
  Basis Set: (AUG-CC-PVTZ AUX)
    Blend: AUG-CC-PVTZ-JKFIT + DEF2-UNIVERSAL-JKFIT
	 Reference Energy          =    -628.3596761887200728 [Eh]
	 Singles Energy            =      -0.0000000000000000 [Eh]
	 Same-Spin Energy          =      -0.1935724996042157 [Eh]
	 Opposite-Spin Energy      =      -0.5011759775925329 [Eh]
	 Correlation Energy        =      -0.6947484771967486 [Eh]
	 Total Energy              =    -629.0544246659168266 [Eh]

	 ================> DF-SCS-MP2 Energies <==================
	-----------------------------------------------------------
	 SCS Same-Spin Scale       =       0.3333333333333333 [-]
	 SCS Opposite-Spin Scale   =       1.2000000000000000 [-]
	 SCS Same-Spin Energy      =      -0.0645241665347386 [Eh]
	 SCS Opposite-Spin Energy  =      -0.6014111731110394 [Eh]
	 SCS Correlation Energy    =      -0.6659353396457780 [Eh]
	 SCS Total Energy          =    -629.0256115283658573 [Eh]
	-----------------------------------------------------------

  Dipole Moment: [D]
     X:    -0.0731      Y:     1.1142      Z:    -0.0000     Total:     1.1166

*** Psi4 exiting successfully. Buy a developer a beer!
