                               Psi4 1.3.2 release

  ==> Input File <==

--------------------------------------------------------------------------
#psi4
#
memory 32 gb

molecule  {
0 1
  S       -0.7822783    -1.0795373     0.4550336
  S        0.8782890    -1.1051690    -0.5344860
  C       -3.2099880     0.3192330     0.3483480
  C        3.2100450     0.3191290    -0.3482450
  C       -1.8324130     0.2075460    -0.2961960
  C        1.8323260     0.2077250     0.2960560
  C       -4.0501360     1.4083560    -0.3151170
  C        4.0501580     1.4083440     0.3151070
  H       -3.7252280    -0.6448010     0.2732120
  H       -3.0976430     0.5365460     1.4164950
  H        3.7251890    -0.6449290    -0.2727580
  H        3.0979170     0.5361720    -1.4164690
  H       -1.9225110    -0.0397540    -1.3578050
  H       -1.2963130     1.1579500    -0.2084040
  H        1.9222090    -0.0392630     1.3577550
  H        1.2963150     1.1581420     0.2078810
  H       -4.1960450     1.1966780    -1.3784460
  H       -5.0360980     1.4800580     0.1524250
  H       -3.5647080     2.3850600    -0.2286020
  H        4.1958480     1.1969260     1.3785180
  H        5.0362170     1.4798500    -0.1522630
  H        3.5648250     2.3850640     0.2282510
units angstrom
no_reorient  #important for SAPT in psi4, default
symmetry c1  #important for SAPT in psi4, default
}

set PROPERTIES_ORIGIN ["COM"]
properties('MP2/aug-cc-pvtz', properties = ['dipole'])
--------------------------------------------------------------------------

    Molecular point group: c1
  Charge       = 0
  Multiplicity = 1
  Basis Set: AUG-CC-PVTZ
    Blend: AUG-CC-PVTZ
  Basis Set: (AUG-CC-PVTZ AUX)
    Blend: AUG-CC-PVTZ-JKFIT

    Orbital Energies [Eh]
    ---------------------

    Doubly Occupied:

       1A    -91.963526     2A    -91.958483     3A    -11.255164
       4A    -11.255005     5A    -11.234104     6A    -11.232009
       7A    -11.222994     8A    -11.221738     9A     -8.964374
      10A     -8.959633    11A     -6.645797    12A     -6.644188
      13A     -6.643431    14A     -6.641043    15A     -6.639573
      16A     -6.638783    17A     -1.114716    18A     -1.079626
      19A     -1.039377    20A     -0.963194    21A     -0.910138
      22A     -0.828250    23A     -0.808008    24A     -0.768590
      25A     -0.650250    26A     -0.648042    27A     -0.599218
      28A     -0.590440    29A     -0.585025    30A     -0.561210
      31A     -0.558308    32A     -0.535064    33A     -0.502815
      34A     -0.498899    35A     -0.490349    36A     -0.486116
      37A     -0.482528    38A     -0.467091    39A     -0.440514
      40A     -0.346465    41A     -0.335930

  @DF-RHF Final Energy: -1030.54280112642959

   => Energetics <=

    Nuclear Repulsion Energy =            534.0024084881530371
    One-Electron Energy =               -2478.2703978662716509
    Two-Electron Energy =                 913.7251882516891328
    Total Energy =                      -1030.5428011264295947
  Basis Set: (AUG-CC-PVTZ AUX)
    Blend: AUG-CC-PVTZ-RI
    Molecular point group: c1

    Geometry (in Angstrom), charge = 0, multiplicity = 1:

       Center              X                  Y                   Z               Mass
    ------------   -----------------  -----------------  -----------------  -----------------
         S           -0.802734569174    -1.005118168592     0.471967761257    31.972071174400
         S            0.857832730826    -1.030749868592    -0.517551838743    31.972071174400
         C           -3.230444269174     0.393652131408     0.365282161257    12.000000000000
         C            3.189588730826     0.393548131408    -0.331310838743    12.000000000000
         C           -1.852869269174     0.281965131408    -0.279261838743    12.000000000000
         C            1.811869730826     0.282144131408     0.312990161257    12.000000000000
         C           -4.070592269174     1.482775131408    -0.298182838743    12.000000000000
         C            4.029701730826     1.482763131408     0.332041161257    12.000000000000
         H           -3.745684269174    -0.570381868592     0.290146161257     1.007825032230
         H           -3.118099269174     0.610965131408     1.433429161257     1.007825032230
         H            3.704732730826    -0.570509868592    -0.255823838743     1.007825032230
         H            3.077460730826     0.610591131408    -1.399534838743     1.007825032230
         H           -1.942967269174     0.034665131408    -1.340870838743     1.007825032230
         H           -1.316769269174     1.232369131408    -0.191469838743     1.007825032230
         H            1.901752730826     0.035156131408     1.374689161257     1.007825032230
         H            1.275858730826     1.232561131408     0.224815161257     1.007825032230
         H           -4.216501269174     1.271097131408    -1.361511838743     1.007825032230
         H           -5.056554269174     1.554477131408     0.169359161257     1.007825032230
         H           -3.585164269174     2.459479131408    -0.211667838743     1.007825032230
         H            4.175391730826     1.271345131408     1.395452161257     1.007825032230
         H            5.015760730826     1.554269131408    -0.135328838743     1.007825032230
         H            3.544368730826     2.459483131408     0.245185161257     1.007825032230

  Basis Set: AUG-CC-PVTZ
    Blend: AUG-CC-PVTZ
  Basis Set: (AUG-CC-PVTZ AUX)
    Blend: AUG-CC-PVTZ-JKFIT
	 Reference Energy          =   -1030.5428011264295947 [Eh]
	 Singles Energy            =      -0.0000000000000000 [Eh]
	 Same-Spin Energy          =      -0.3677576939057275 [Eh]
	 Opposite-Spin Energy      =      -1.2643712897779382 [Eh]
	 Correlation Energy        =      -1.6321289836836659 [Eh]
	 Total Energy              =   -1032.1749301101133369 [Eh]

	 ================> DF-SCS-MP2 Energies <==================
	-----------------------------------------------------------
	 SCS Same-Spin Scale       =       0.3333333333333333 [-]
	 SCS Opposite-Spin Scale   =       1.2000000000000000 [-]
	 SCS Same-Spin Energy      =      -0.1225858979685758 [Eh]
	 SCS Opposite-Spin Energy  =      -1.5172455477335258 [Eh]
	 SCS Correlation Energy    =      -1.6398314457021017 [Eh]
	 SCS Total Energy          =   -1032.1826325721317517 [Eh]
	-----------------------------------------------------------

  Dipole Moment: [D]
     X:    -0.0095      Y:     2.2202      Z:    -0.0164     Total:     2.2203

*** Psi4 exiting successfully. Buy a developer a beer!
