                               Psi4 1.3.2 release

  ==> Input File <==

--------------------------------------------------------------------------
#psi4
#
memory 32 gb

molecule  {
0 1
  S       -0.8782850    -1.1051870     0.5345170
  S        0.8782890    -1.1051690    -0.5344860
  C       -3.2099880     0.3192330     0.3483480
  C        3.2100450     0.3191290    -0.3482450
  C       -1.9370837     0.3515567    -0.3873277
  C        1.8323260     0.2077250     0.2960560
  C       -4.0501360     1.4083560    -0.3151170
  C        4.0501580     1.4083440     0.3151070
  H       -3.7252280    -0.6448010     0.2732120
  H       -3.0976430     0.5365460     1.4164950
  H        3.7251890    -0.6449290    -0.2727580
  H        3.0979170     0.5361720    -1.4164690
  H       -1.9225110    -0.0397540    -1.3578050
  H       -1.2963130     1.1579500    -0.2084040
  H        1.9222090    -0.0392630     1.3577550
  H        1.2963150     1.1581420     0.2078810
  H       -4.1960450     1.1966780    -1.3784460
  H       -5.0360980     1.4800580     0.1524250
  H       -3.5647080     2.3850600    -0.2286020
  H        4.1958480     1.1969260     1.3785180
  H        5.0362170     1.4798500    -0.1522630
  H        3.5648250     2.3850640     0.2282510
units angstrom
no_reorient  #important for SAPT in psi4, default
symmetry c1  #important for SAPT in psi4, default
}

set PROPERTIES_ORIGIN ["COM"]
properties('MP2/aug-cc-pvtz', properties = ['dipole'])
--------------------------------------------------------------------------

    Molecular point group: c1
  Charge       = 0
  Multiplicity = 1
  Basis Set: AUG-CC-PVTZ
    Blend: AUG-CC-PVTZ
  Basis Set: (AUG-CC-PVTZ AUX)
    Blend: AUG-CC-PVTZ-JKFIT

    Orbital Energies [Eh]
    ---------------------

    Doubly Occupied:

       1A    -91.961426     2A    -91.957403     3A    -11.265787
       4A    -11.253815     5A    -11.235288     6A    -11.230568
       7A    -11.224667     8A    -11.220659     9A     -8.960022
      10A     -8.955025    11A     -6.641105    12A     -6.639952
      13A     -6.639071    14A     -6.635923    15A     -6.634597
      16A     -6.633878    17A     -1.102411    18A     -1.085817
      19A     -1.019622    20A     -0.955836    21A     -0.904450
      22A     -0.827317    23A     -0.813350    24A     -0.774218
      25A     -0.671218    26A     -0.646921    27A     -0.611169
      28A     -0.588553    29A     -0.574049    30A     -0.572237
      31A     -0.557329    32A     -0.535540    33A     -0.516663
      34A     -0.497607    35A     -0.494952    36A     -0.485102
      37A     -0.471045    38A     -0.434083    39A     -0.428611
      40A     -0.343976    41A     -0.328372

  @DF-RHF Final Energy: -1030.52726049117837

   => Energetics <=

    Nuclear Repulsion Energy =            526.6225387189007279
    One-Electron Energy =               -2463.6403370249636282
    Two-Electron Energy =                 906.4905378148845330
    Total Energy =                      -1030.5272604911783674
  Basis Set: (AUG-CC-PVTZ AUX)
    Blend: AUG-CC-PVTZ-RI
    Molecular point group: c1

    Geometry (in Angstrom), charge = 0, multiplicity = 1:

       Center              X                  Y                   Z               Mass
    ------------   -----------------  -----------------  -----------------  -----------------
         S           -0.869914378180    -1.036819398209     0.541803491180    31.972071174400
         S            0.886659621820    -1.036801398209    -0.527199508820    31.972071174400
         C           -3.201617378180     0.387600601791     0.355634491180    12.000000000000
         C            3.218415621820     0.387496601791    -0.340958508820    12.000000000000
         C           -1.928713078180     0.419924301791    -0.380041208820    12.000000000000
         C            1.840696621820     0.276092601791     0.303342491180    12.000000000000
         C           -4.041765378180     1.476723601791    -0.307830508820    12.000000000000
         C            4.058528621820     1.476711601791     0.322393491180    12.000000000000
         H           -3.716857378180    -0.576433398209     0.280498491180     1.007825032230
         H           -3.089272378180     0.604913601791     1.423781491180     1.007825032230
         H            3.733559621820    -0.576561398209    -0.265471508820     1.007825032230
         H            3.106287621820     0.604539601791    -1.409182508820     1.007825032230
         H           -1.914140378180     0.028613601791    -1.350518508820     1.007825032230
         H           -1.287942378180     1.226317601791    -0.201117508820     1.007825032230
         H            1.930579621820     0.029104601791     1.365041491180     1.007825032230
         H            1.304685621820     1.226509601791     0.215167491180     1.007825032230
         H           -4.187674378180     1.265045601791    -1.371159508820     1.007825032230
         H           -5.027727378180     1.548425601791     0.159711491180     1.007825032230
         H           -3.556337378180     2.453427601791    -0.221315508820     1.007825032230
         H            4.204218621820     1.265293601791     1.385804491180     1.007825032230
         H            5.044587621820     1.548217601791    -0.144976508820     1.007825032230
         H            3.573195621820     2.453431601791     0.235537491180     1.007825032230

  Basis Set: AUG-CC-PVTZ
    Blend: AUG-CC-PVTZ
  Basis Set: (AUG-CC-PVTZ AUX)
    Blend: AUG-CC-PVTZ-JKFIT
	 Reference Energy          =   -1030.5272604911783674 [Eh]
	 Singles Energy            =      -0.0000000000000000 [Eh]
	 Same-Spin Energy          =      -0.3671772834145633 [Eh]
	 Opposite-Spin Energy      =      -1.2663897263750585 [Eh]
	 Correlation Energy        =      -1.6335670097896218 [Eh]
	 Total Energy              =   -1032.1608275009680256 [Eh]

	 ================> DF-SCS-MP2 Energies <==================
	-----------------------------------------------------------
	 SCS Same-Spin Scale       =       0.3333333333333333 [-]
	 SCS Opposite-Spin Scale   =       1.2000000000000000 [-]
	 SCS Same-Spin Energy      =      -0.1223924278048544 [Eh]
	 SCS Opposite-Spin Energy  =      -1.5196676716500701 [Eh]
	 SCS Correlation Energy    =      -1.6420600994549246 [Eh]
	 SCS Total Energy          =   -1032.1693205906333333 [Eh]
	-----------------------------------------------------------

  Dipole Moment: [D]
     X:    -0.2816      Y:     2.4200      Z:    -0.0473     Total:     2.4368

*** Psi4 exiting successfully. Buy a developer a beer!
