                               Psi4 1.3.2 release

  ==> Input File <==

--------------------------------------------------------------------------
#psi4
#
memory 32 gb

molecule  {
0 1
  S       -0.8782850    -1.1051870     0.5345170
  S        0.8782890    -1.1051690    -0.5344860
  C       -3.2099880     0.3192330     0.3483480
  C        3.2100450     0.3191290    -0.3482450
  C       -1.8324130     0.2075460    -0.2961960
  C        1.8323260     0.2077250     0.2960560
  C       -4.0501360     1.4083560    -0.3151170
  C        4.0501580     1.4083440     0.3151070
  H       -3.7252280    -0.6448010     0.2732120
  H       -3.0976430     0.5365460     1.4164950
  H        3.7251890    -0.6449290    -0.2727580
  H        3.0979170     0.5361720    -1.4164690
  H       -1.9225110    -0.0397540    -1.3578050
  H       -1.2963130     1.1579500    -0.2084040
  H        1.9222090    -0.0392630     1.3577550
  H        1.2963150     1.1581420     0.2078810
  H       -4.1960450     1.1966780    -1.3784460
  H       -5.0360980     1.4800580     0.1524250
  H       -3.5647080     2.3850600    -0.2286020
  H        4.1958480     1.1969260     1.3785180
  H        5.0362170     1.4798500    -0.1522630
  H        3.5648250     2.3850640     0.2282510
units angstrom
no_reorient  #important for SAPT in psi4, default
symmetry c1  #important for SAPT in psi4, default
}

set PROPERTIES_ORIGIN ["COM"]
properties('MP2/aug-cc-pvtz', properties = ['dipole'])
--------------------------------------------------------------------------

    Molecular point group: c1
  Charge       = 0
  Multiplicity = 1
  Basis Set: AUG-CC-PVTZ
    Blend: AUG-CC-PVTZ
  Basis Set: (AUG-CC-PVTZ AUX)
    Blend: AUG-CC-PVTZ-JKFIT

    Orbital Energies [Eh]
    ---------------------

    Doubly Occupied:

       1A    -91.965905     2A    -91.965903     3A    -11.256884
       4A    -11.256883     5A    -11.232974     6A    -11.232974
       7A    -11.222317     8A    -11.222317     9A     -8.964767
      10A     -8.964576    11A     -6.645923    12A     -6.645574
      13A     -6.644582    14A     -6.644513    15A     -6.643672
      16A     -6.643668    17A     -1.103401    18A     -1.080856
      19A     -1.025916    20A     -0.964343    21A     -0.901492
      22A     -0.828709    23A     -0.806496    24A     -0.776258
      25A     -0.650386    26A     -0.648183    27A     -0.593289
      28A     -0.589396    29A     -0.584223    30A     -0.560805
      31A     -0.557785    32A     -0.536899    33A     -0.501633
      34A     -0.496659    35A     -0.488301    36A     -0.486066
      37A     -0.476978    38A     -0.463391    39A     -0.430105
      40A     -0.350508    41A     -0.342304

  @DF-RHF Final Energy: -1030.54929131231620

   => Energetics <=

    Nuclear Repulsion Energy =            529.1257558168853166
    One-Electron Energy =               -2468.5544777419481761
    Two-Electron Energy =                 908.8794306127466598
    Total Energy =                      -1030.5492913123161998
  Basis Set: (AUG-CC-PVTZ AUX)
    Blend: AUG-CC-PVTZ-RI
    Molecular point group: c1

    Geometry (in Angstrom), charge = 0, multiplicity = 1:

       Center              X                  Y                   Z               Mass
    ------------   -----------------  -----------------  -----------------  -----------------
         S           -0.878285037885    -1.025302664646     0.534515563908    31.972071174400
         S            0.878288962115    -1.025284664646    -0.534487436092    31.972071174400
         C           -3.209988037885     0.399117335354     0.348346563908    12.000000000000
         C            3.210044962115     0.399013335354    -0.348246436092    12.000000000000
         C           -1.832413037885     0.287430335354    -0.296197436092    12.000000000000
         C            1.832325962115     0.287609335354     0.296054563908    12.000000000000
         C           -4.050136037885     1.488240335354    -0.315118436092    12.000000000000
         C            4.050157962115     1.488228335354     0.315105563908    12.000000000000
         H           -3.725228037885    -0.564916664646     0.273210563908     1.007825032230
         H           -3.097643037885     0.616430335354     1.416493563908     1.007825032230
         H            3.725188962115    -0.565044664646    -0.272759436092     1.007825032230
         H            3.097916962115     0.616056335354    -1.416470436092     1.007825032230
         H           -1.922511037885     0.040130335354    -1.357806436092     1.007825032230
         H           -1.296313037885     1.237834335354    -0.208405436092     1.007825032230
         H            1.922208962115     0.040621335354     1.357753563908     1.007825032230
         H            1.296314962115     1.238026335354     0.207879563908     1.007825032230
         H           -4.196045037885     1.276562335354    -1.378447436092     1.007825032230
         H           -5.036098037885     1.559942335354     0.152423563908     1.007825032230
         H           -3.564708037885     2.464944335354    -0.228603436092     1.007825032230
         H            4.195847962115     1.276810335354     1.378516563908     1.007825032230
         H            5.036216962115     1.559734335354    -0.152264436092     1.007825032230
         H            3.564824962115     2.464948335354     0.228249563908     1.007825032230

  Basis Set: AUG-CC-PVTZ
    Blend: AUG-CC-PVTZ
  Basis Set: (AUG-CC-PVTZ AUX)
    Blend: AUG-CC-PVTZ-JKFIT
	 Reference Energy          =   -1030.5492913123161998 [Eh]
	 Singles Energy            =      -0.0000000000000000 [Eh]
	 Same-Spin Energy          =      -0.3664510642970966 [Eh]
	 Opposite-Spin Energy      =      -1.2646035923546202 [Eh]
	 Correlation Energy        =      -1.6310546566517168 [Eh]
	 Total Energy              =   -1032.1803459689679130 [Eh]

	 ================> DF-SCS-MP2 Energies <==================
	-----------------------------------------------------------
	 SCS Same-Spin Scale       =       0.3333333333333333 [-]
	 SCS Opposite-Spin Scale   =       1.2000000000000000 [-]
	 SCS Same-Spin Energy      =      -0.1221503547656989 [Eh]
	 SCS Opposite-Spin Energy  =      -1.5175243108255441 [Eh]
	 SCS Correlation Energy    =      -1.6396746655912429 [Eh]
	 SCS Total Energy          =   -1032.1889659779074009 [Eh]
	-----------------------------------------------------------

  Dipole Moment: [D]
     X:    -0.0001      Y:     2.2706      Z:    -0.0001     Total:     2.2706

*** Psi4 exiting successfully. Buy a developer a beer!
