                               Psi4 1.3.2 release

  ==> Input File <==

--------------------------------------------------------------------------
#psi4
#
memory 32 gb

molecule  {
0 1
  S       -0.8782850    -1.1051870     0.5345170
  S        0.8782890    -1.1051690    -0.5344860
  C       -3.2099880     0.3192330     0.3483480
  C        3.2100450     0.3191290    -0.3482450
  C       -1.8847483     0.2795513    -0.3417618
  C        1.8323260     0.2077250     0.2960560
  C       -4.0501360     1.4083560    -0.3151170
  C        4.0501580     1.4083440     0.3151070
  H       -3.7252280    -0.6448010     0.2732120
  H       -3.0976430     0.5365460     1.4164950
  H        3.7251890    -0.6449290    -0.2727580
  H        3.0979170     0.5361720    -1.4164690
  H       -1.9225110    -0.0397540    -1.3578050
  H       -1.2963130     1.1579500    -0.2084040
  H        1.9222090    -0.0392630     1.3577550
  H        1.2963150     1.1581420     0.2078810
  H       -4.1960450     1.1966780    -1.3784460
  H       -5.0360980     1.4800580     0.1524250
  H       -3.5647080     2.3850600    -0.2286020
  H        4.1958480     1.1969260     1.3785180
  H        5.0362170     1.4798500    -0.1522630
  H        3.5648250     2.3850640     0.2282510
units angstrom
no_reorient  #important for SAPT in psi4, default
symmetry c1  #important for SAPT in psi4, default
}

set PROPERTIES_ORIGIN ["COM"]
properties('MP2/aug-cc-pvtz', properties = ['dipole'])
--------------------------------------------------------------------------

    Molecular point group: c1
  Charge       = 0
  Multiplicity = 1
  Basis Set: AUG-CC-PVTZ
    Blend: AUG-CC-PVTZ
  Basis Set: (AUG-CC-PVTZ AUX)
    Blend: AUG-CC-PVTZ-JKFIT

    Orbital Energies [Eh]
    ---------------------

    Doubly Occupied:

       1A    -91.964004     2A    -91.962666     3A    -11.259498
       4A    -11.255547     5A    -11.233190     6A    -11.231927
       7A    -11.222818     8A    -11.221607     9A     -8.962683
      10A     -8.960597    11A     -6.643770    12A     -6.642590
      13A     -6.641704    14A     -6.641562    15A     -6.640308
      16A     -6.639538    17A     -1.101100    18A     -1.083419
      19A     -1.023003    20A     -0.959488    21A     -0.903263
      22A     -0.826810    23A     -0.810387    24A     -0.776278
      25A     -0.659871    26A     -0.648168    27A     -0.599228
      28A     -0.589846    29A     -0.579313    30A     -0.566069
      31A     -0.558287    32A     -0.536364    33A     -0.508046
      34A     -0.497942    35A     -0.490840    36A     -0.486252
      37A     -0.472918    38A     -0.450203    39A     -0.430519
      40A     -0.347610    41A     -0.337227

  @DF-RHF Final Energy: -1030.54360470411962

   => Energetics <=

    Nuclear Repulsion Energy =            527.8355475844188049
    One-Electron Energy =               -2466.0253836008946564
    Two-Electron Energy =                 907.6462313123562353
    Total Energy =                      -1030.5436047041198435
  Basis Set: (AUG-CC-PVTZ AUX)
    Blend: AUG-CC-PVTZ-RI
    Molecular point group: c1

    Geometry (in Angstrom), charge = 0, multiplicity = 1:

       Center              X                  Y                   Z               Mass
    ------------   -----------------  -----------------  -----------------  -----------------
         S           -0.874099712031    -1.031061027429     0.538159523545    31.972071174400
         S            0.882474287969    -1.031043027429    -0.530843476455    31.972071174400
         C           -3.205802712031     0.393358972571     0.351990523545    12.000000000000
         C            3.214230287969     0.393254972571    -0.344602476455    12.000000000000
         C           -1.880563012031     0.353677272571    -0.338119276455    12.000000000000
         C            1.836511287969     0.281850972571     0.299698523545    12.000000000000
         C           -4.045950712031     1.482481972571    -0.311474476455    12.000000000000
         C            4.054343287969     1.482469972571     0.318749523545    12.000000000000
         H           -3.721042712031    -0.570675027429     0.276854523545     1.007825032230
         H           -3.093457712031     0.610671972571     1.420137523545     1.007825032230
         H            3.729374287969    -0.570803027429    -0.269115476455     1.007825032230
         H            3.102102287969     0.610297972571    -1.412826476455     1.007825032230
         H           -1.918325712031     0.034371972571    -1.354162476455     1.007825032230
         H           -1.292127712031     1.232075972571    -0.204761476455     1.007825032230
         H            1.926394287969     0.034862972571     1.361397523545     1.007825032230
         H            1.300500287969     1.232267972571     0.211523523545     1.007825032230
         H           -4.191859712031     1.270803972571    -1.374803476455     1.007825032230
         H           -5.031912712031     1.554183972571     0.156067523545     1.007825032230
         H           -3.560522712031     2.459185972571    -0.224959476455     1.007825032230
         H            4.200033287969     1.271051972571     1.382160523545     1.007825032230
         H            5.040402287969     1.553975972571    -0.148620476455     1.007825032230
         H            3.569010287969     2.459189972571     0.231893523545     1.007825032230

  Basis Set: AUG-CC-PVTZ
    Blend: AUG-CC-PVTZ
  Basis Set: (AUG-CC-PVTZ AUX)
    Blend: AUG-CC-PVTZ-JKFIT
	 Reference Energy          =   -1030.5436047041196161 [Eh]
	 Singles Energy            =      -0.0000000000000000 [Eh]
	 Same-Spin Energy          =      -0.3665044343035209 [Eh]
	 Opposite-Spin Energy      =      -1.2649997545885845 [Eh]
	 Correlation Energy        =      -1.6315041888921054 [Eh]
	 Total Energy              =   -1032.1751088930116111 [Eh]

	 ================> DF-SCS-MP2 Energies <==================
	-----------------------------------------------------------
	 SCS Same-Spin Scale       =       0.3333333333333333 [-]
	 SCS Opposite-Spin Scale   =       1.2000000000000000 [-]
	 SCS Same-Spin Energy      =      -0.1221681447678403 [Eh]
	 SCS Opposite-Spin Energy  =      -1.5179997055063013 [Eh]
	 SCS Correlation Energy    =      -1.6401678502741415 [Eh]
	 SCS Total Energy          =   -1032.1837725543937268 [Eh]
	-----------------------------------------------------------

  Dipole Moment: [D]
     X:    -0.1276      Y:     2.3407      Z:    -0.0254     Total:     2.3443

*** Psi4 exiting successfully. Buy a developer a beer!
