                               Psi4 1.4a3.dev225

  ==> Input File <==

--------------------------------------------------------------------------
#psi4
#
memory 32 gb

molecule  {
0 1
  S        0.8782360    -1.1051720    -0.5345130
  S       -0.8782360    -1.1051730     0.5345140
  C        3.2099970     0.3192160    -0.3483490
  C       -3.2099950     0.3192180     0.3483520
  C        1.8219306     0.1932124     0.2869919
  C       -1.8324000     0.2076110    -0.2961070
  C        4.0501390     1.4083310     0.3151470
  C       -4.0501390     1.4083310    -0.3151470
  H        3.7252040    -0.6448290    -0.2731450
  H        3.0977470     0.5364970    -1.4165130
  H       -3.7252050    -0.6448260     0.2731560
  H       -3.0977410     0.5365060     1.4165140
  H        1.9224270    -0.0395970     1.3577410
  H        1.2963330     1.1580260     0.2082030
  H       -1.9224330    -0.0396070    -1.3577420
  H       -1.2963320     1.1580220    -0.2082140
  H        4.1959570     1.1966930     1.3784960
  H        5.0361400     1.4799610    -0.1523260
  H        3.5647660     2.3850540     0.2285540
  H       -4.1959620     1.1966860    -1.3784950
  H       -5.0361370     1.4799650     0.1523300
  H       -3.5647630     2.3850530    -0.2285630
units angstrom
no_reorient  #important for SAPT in psi4, default
symmetry c1  #important for SAPT in psi4, default
}

set PROPERTIES_ORIGIN ["COM"]
properties('MP2/aug-cc-pvtz', properties = ['dipole'])
--------------------------------------------------------------------------

    Molecular point group: c1
  Charge       = 0
  Multiplicity = 1
  Basis Set: AUG-CC-PVTZ
    Blend: AUG-CC-PVTZ
  Basis Set: (AUG-CC-PVTZ AUX)
    Blend: AUG-CC-PVTZ-JKFIT

    Orbital Energies [Eh]
    ---------------------

    Doubly Occupied:

       1A    -91.966281     2A    -91.966195     3A    -11.257102
       4A    -11.256782     5A    -11.233175     6A    -11.233144
       7A    -11.222430     8A    -11.222366     9A     -8.965321
      10A     -8.964956    11A     -6.646465    12A     -6.645988
      13A     -6.645208    14A     -6.644853    15A     -6.644299
      16A     -6.643977    17A     -1.104221    18A     -1.080558
      19A     -1.026430    20A     -0.965436    21A     -0.901088
      22A     -0.829260    23A     -0.805846    24A     -0.775879
      25A     -0.649917    26A     -0.646953    27A     -0.593644
      28A     -0.588903    29A     -0.584603    30A     -0.560376
      31A     -0.557093    32A     -0.536956    33A     -0.501193
      34A     -0.495983    35A     -0.488385    36A     -0.485577
      37A     -0.478773    38A     -0.464461    39A     -0.429639
      40A     -0.351016    41A     -0.342795

  @DF-RHF Final Energy: -1030.54877655413384

   => Energetics <=

    Nuclear Repulsion Energy =            529.3991216227727818
    One-Electron Energy =               -2469.0887445720181859
    Two-Electron Energy =                 909.1408463951116801
    Total Energy =                      -1030.5487765541338376
  Basis Set: (AUG-CC-PVTZ AUX)
    Blend: AUG-CC-PVTZ-RI
    Molecular point group: c1

    Geometry (in Angstrom), charge = 0, multiplicity = 1:

       Center              X                  Y                   Z               Mass
    ------------   -----------------  -----------------  -----------------  -----------------
         S            0.879073085645    -1.024136694968    -0.533784479047    31.972071174400
         S           -0.877398914355    -1.024137694968     0.535242520953    31.972071174400
         C            3.210834085645     0.400251305032    -0.347620479047    12.000000000000
         C           -3.209157914355     0.400253305032     0.349080520953    12.000000000000
         C            1.822767685645     0.274247705032     0.287720420953    12.000000000000
         C           -1.831562914355     0.288646305032    -0.295378479047    12.000000000000
         C            4.050976085645     1.489366305032     0.315875520953    12.000000000000
         C           -4.049301914355     1.489366305032    -0.314418479047    12.000000000000
         H            3.726041085645    -0.563793694968    -0.272416479047     1.007825032230
         H            3.098584085645     0.617532305032    -1.415784479047     1.007825032230
         H           -3.724367914355    -0.563790694968     0.273884520953     1.007825032230
         H           -3.096903914355     0.617541305032     1.417242520953     1.007825032230
         H            1.923264085645     0.041438305032     1.358469520953     1.007825032230
         H            1.297170085645     1.239061305032     0.208931520953     1.007825032230
         H           -1.921595914355     0.041428305032    -1.357013479047     1.007825032230
         H           -1.295494914355     1.239057305032    -0.207485479047     1.007825032230
         H            4.196794085645     1.277728305032     1.379224520953     1.007825032230
         H            5.036977085645     1.560996305032    -0.151597479047     1.007825032230
         H            3.565603085645     2.466089305032     0.229282520953     1.007825032230
         H           -4.195124914355     1.277721305032    -1.377766479047     1.007825032230
         H           -5.035299914355     1.561000305032     0.153058520953     1.007825032230
         H           -3.563925914355     2.466088305032    -0.227834479047     1.007825032230

  Basis Set: AUG-CC-PVTZ
    Blend: AUG-CC-PVTZ
  Basis Set: (AUG-CC-PVTZ AUX)
    Blend: AUG-CC-PVTZ-JKFIT
	 Reference Energy          =   -1030.5487765541338376 [Eh]
	 Singles Energy            =      -0.0000000000000000 [Eh]
	 Same-Spin Energy          =      -0.3665285093650189 [Eh]
	 Opposite-Spin Energy      =      -1.2646599248680377 [Eh]
	 Correlation Energy        =      -1.6311884342330565 [Eh]
	 Total Energy              =   -1032.1799649883669190 [Eh]

	 ================> DF-SCS-MP2 Energies <==================
	-----------------------------------------------------------
	 SCS Same-Spin Scale       =       0.3333333333333333 [-]
	 SCS Opposite-Spin Scale   =       1.2000000000000000 [-]
	 SCS Same-Spin Energy      =      -0.1221761697883396 [Eh]
	 SCS Opposite-Spin Energy  =      -1.5175919098416453 [Eh]
	 SCS Correlation Energy    =      -1.6397680796299849 [Eh]
	 SCS Total Energy          =   -1032.1885446337637404 [Eh]
	-----------------------------------------------------------

  Dipole Moment: [D]
     X:    -0.0203      Y:     2.2586      Z:    -0.0053     Total:     2.2587

*** Psi4 exiting successfully. Buy a developer a beer!
