                               Psi4 1.3.2 release

  ==> Input File <==

--------------------------------------------------------------------------
#psi4
#
memory 32 gb

molecule  {
0 1
  S       -0.7930898    -0.9468615     0.6528435
  S        0.8782890    -1.1051690    -0.5344860
  C       -3.2099880     0.3192330     0.3483480
  C        3.2100450     0.3191290    -0.3482450
  C       -1.8324130     0.2075460    -0.2961960
  C        1.8323260     0.2077250     0.2960560
  C       -4.0501360     1.4083560    -0.3151170
  C        4.0501580     1.4083440     0.3151070
  H       -3.7252280    -0.6448010     0.2732120
  H       -3.0976430     0.5365460     1.4164950
  H        3.7251890    -0.6449290    -0.2727580
  H        3.0979170     0.5361720    -1.4164690
  H       -1.9225110    -0.0397540    -1.3578050
  H       -1.2963130     1.1579500    -0.2084040
  H        1.9222090    -0.0392630     1.3577550
  H        1.2963150     1.1581420     0.2078810
  H       -4.1960450     1.1966780    -1.3784460
  H       -5.0360980     1.4800580     0.1524250
  H       -3.5647080     2.3850600    -0.2286020
  H        4.1958480     1.1969260     1.3785180
  H        5.0362170     1.4798500    -0.1522630
  H        3.5648250     2.3850640     0.2282510
units angstrom
no_reorient  #important for SAPT in psi4, default
symmetry c1  #important for SAPT in psi4, default
}

set PROPERTIES_ORIGIN ["COM"]
properties('MP2/aug-cc-pvtz', properties = ['dipole'])
--------------------------------------------------------------------------

    Molecular point group: c1
  Charge       = 0
  Multiplicity = 1
  Basis Set: AUG-CC-PVTZ
    Blend: AUG-CC-PVTZ
  Basis Set: (AUG-CC-PVTZ AUX)
    Blend: AUG-CC-PVTZ-JKFIT

    Orbital Energies [Eh]
    ---------------------

    Doubly Occupied:

       1A    -91.967061     2A    -91.963419     3A    -11.256235
       4A    -11.255985     5A    -11.232719     6A    -11.231079
       7A    -11.222021     8A    -11.221193     9A     -8.965903
      10A     -8.962585    11A     -6.646942    12A     -6.645765
      13A     -6.644854    14A     -6.643652    15A     -6.642477
      16A     -6.641577    17A     -1.104642    18A     -1.080077
      19A     -1.026408    20A     -0.963634    21A     -0.899607
      22A     -0.828169    23A     -0.804937    24A     -0.777624
      25A     -0.650276    26A     -0.647366    27A     -0.591344
      28A     -0.590153    29A     -0.582751    30A     -0.560891
      31A     -0.556903    32A     -0.537093    33A     -0.501631
      34A     -0.496453    35A     -0.488340    36A     -0.485293
      37A     -0.470759    38A     -0.467937    39A     -0.430739
      40A     -0.351451    41A     -0.340103

  @DF-RHF Final Energy: -1030.54485109613643

   => Energetics <=

    Nuclear Repulsion Energy =            530.8757274685245875
    One-Electron Energy =               -2472.0850572857593761
    Two-Electron Energy =                 910.6644787210983623
    Total Energy =                      -1030.5448510961364263
  Basis Set: (AUG-CC-PVTZ AUX)
    Blend: AUG-CC-PVTZ-RI
    Molecular point group: c1

    Geometry (in Angstrom), charge = 0, multiplicity = 1:

       Center              X                  Y                   Z               Mass
    ------------   -----------------  -----------------  -----------------  -----------------
         S           -0.811242453441    -0.900711716994     0.627630133370    31.972071174400
         S            0.860136346559    -1.059019216994    -0.559699366630    31.972071174400
         C           -3.228140653441     0.365382783006     0.323134633370    12.000000000000
         C            3.191892346559     0.365278783006    -0.373458366630    12.000000000000
         C           -1.850565653441     0.253695783006    -0.321409366630    12.000000000000
         C            1.814173346559     0.253874783006     0.270842633370    12.000000000000
         C           -4.068288653441     1.454505783006    -0.340330366630    12.000000000000
         C            4.032005346559     1.454493783006     0.289893633370    12.000000000000
         H           -3.743380653441    -0.598651216994     0.247998633370     1.007825032230
         H           -3.115795653441     0.582695783006     1.391281633370     1.007825032230
         H            3.707036346559    -0.598779216994    -0.297971366630     1.007825032230
         H            3.079764346559     0.582321783006    -1.441682366630     1.007825032230
         H           -1.940663653441     0.006395783006    -1.383018366630     1.007825032230
         H           -1.314465653441     1.204099783006    -0.233617366630     1.007825032230
         H            1.904056346559     0.006886783006     1.332541633370     1.007825032230
         H            1.278162346559     1.204291783006     0.182667633370     1.007825032230
         H           -4.214197653441     1.242827783006    -1.403659366630     1.007825032230
         H           -5.054250653441     1.526207783006     0.127211633370     1.007825032230
         H           -3.582860653441     2.431209783006    -0.253815366630     1.007825032230
         H            4.177695346559     1.243075783006     1.353304633370     1.007825032230
         H            5.018064346559     1.525999783006    -0.177476366630     1.007825032230
         H            3.546672346559     2.431213783006     0.203037633370     1.007825032230

  Basis Set: AUG-CC-PVTZ
    Blend: AUG-CC-PVTZ
  Basis Set: (AUG-CC-PVTZ AUX)
    Blend: AUG-CC-PVTZ-JKFIT
	 Reference Energy          =   -1030.5448510961364263 [Eh]
	 Singles Energy            =      -0.0000000000000000 [Eh]
	 Same-Spin Energy          =      -0.3669006266088826 [Eh]
	 Opposite-Spin Energy      =      -1.2654494316188933 [Eh]
	 Correlation Energy        =      -1.6323500582277759 [Eh]
	 Total Energy              =   -1032.1772011543641838 [Eh]

	 ================> DF-SCS-MP2 Energies <==================
	-----------------------------------------------------------
	 SCS Same-Spin Scale       =       0.3333333333333333 [-]
	 SCS Opposite-Spin Scale   =       1.2000000000000000 [-]
	 SCS Same-Spin Energy      =      -0.1223002088696275 [Eh]
	 SCS Opposite-Spin Energy  =      -1.5185393179426721 [Eh]
	 SCS Correlation Energy    =      -1.6408395268122995 [Eh]
	 SCS Total Energy          =   -1032.1856906229486412 [Eh]
	-----------------------------------------------------------

  Dipole Moment: [D]
     X:    -0.0209      Y:     2.1343      Z:    -0.1498     Total:     2.1397

*** Psi4 exiting successfully. Buy a developer a beer!
