                               Psi4 1.3.2 release

  ==> Input File <==

--------------------------------------------------------------------------
#psi4
#
memory 32 gb

molecule  {
0 1
  S       -0.8340985    -1.0619618     0.5496352
  S        0.8782890    -1.1051690    -0.5344860
  C       -3.2099880     0.3192330     0.3483480
  C        3.2100450     0.3191290    -0.3482450
  C       -1.8324130     0.2075460    -0.2961960
  C        1.8323260     0.2077250     0.2960560
  C       -4.0501360     1.4083560    -0.3151170
  C        4.0501580     1.4083440     0.3151070
  H       -3.7252280    -0.6448010     0.2732120
  H       -3.0976430     0.5365460     1.4164950
  H        3.7251890    -0.6449290    -0.2727580
  H        3.0979170     0.5361720    -1.4164690
  H       -1.9225110    -0.0397540    -1.3578050
  H       -1.2963130     1.1579500    -0.2084040
  H        1.9222090    -0.0392630     1.3577550
  H        1.2963150     1.1581420     0.2078810
  H       -4.1960450     1.1966780    -1.3784460
  H       -5.0360980     1.4800580     0.1524250
  H       -3.5647080     2.3850600    -0.2286020
  H        4.1958480     1.1969260     1.3785180
  H        5.0362170     1.4798500    -0.1522630
  H        3.5648250     2.3850640     0.2282510
units angstrom
no_reorient  #important for SAPT in psi4, default
symmetry c1  #important for SAPT in psi4, default
}

set PROPERTIES_ORIGIN ["COM"]
properties('MP2/aug-cc-pvtz', properties = ['dipole'])
--------------------------------------------------------------------------

    Molecular point group: c1
  Charge       = 0
  Multiplicity = 1
  Basis Set: AUG-CC-PVTZ
    Blend: AUG-CC-PVTZ
  Basis Set: (AUG-CC-PVTZ AUX)
    Blend: AUG-CC-PVTZ-JKFIT

    Orbital Energies [Eh]
    ---------------------

    Doubly Occupied:

       1A    -91.965716     2A    -91.963666     3A    -11.256435
       4A    -11.256220     5A    -11.233136     6A    -11.232298
       7A    -11.222415     8A    -11.221908     9A     -8.964911
      10A     -8.962980    11A     -6.646057    12A     -6.644788
      13A     -6.644099    14A     -6.643919    15A     -6.642894
      16A     -6.642031    17A     -1.105638    18A     -1.080333
      19A     -1.029135    20A     -0.963807    21A     -0.903134
      22A     -0.828354    23A     -0.806450    24A     -0.774911
      25A     -0.650287    26A     -0.647932    27A     -0.593834
      28A     -0.589766    29A     -0.584328    30A     -0.560875
      31A     -0.557653    32A     -0.536496    33A     -0.501835
      34A     -0.496977    35A     -0.488542    36A     -0.485888
      37A     -0.477052    38A     -0.465430    39A     -0.432817
      40A     -0.347146    41A     -0.343391

  @DF-RHF Final Energy: -1030.54873213606220

   => Energetics <=

    Nuclear Repulsion Energy =            530.6320487071594698
    One-Electron Energy =               -2471.5705976987051145
    Two-Electron Energy =                 910.3898168554834456
    Total Energy =                      -1030.5487321360624264
  Basis Set: (AUG-CC-PVTZ AUX)
    Blend: AUG-CC-PVTZ-RI
    Molecular point group: c1

    Geometry (in Angstrom), charge = 0, multiplicity = 1:

       Center              X                  Y                   Z               Mass
    ------------   -----------------  -----------------  -----------------  -----------------
         S           -0.843513393972    -0.991287495703     0.546412515850    31.972071174400
         S            0.868874106028    -1.034494695703    -0.537708684150    31.972071174400
         C           -3.219402893972     0.389907304297     0.345125315850    12.000000000000
         C            3.200630106028     0.389803304297    -0.351467684150    12.000000000000
         C           -1.841827893972     0.278220304297    -0.299418684150    12.000000000000
         C            1.822911106028     0.278399304297     0.292833315850    12.000000000000
         C           -4.059550893972     1.479030304297    -0.318339684150    12.000000000000
         C            4.040743106028     1.479018304297     0.311884315850    12.000000000000
         H           -3.734642893972    -0.574126695703     0.269989315850     1.007825032230
         H           -3.107057893972     0.607220304297     1.413272315850     1.007825032230
         H            3.715774106028    -0.574254695703    -0.275980684150     1.007825032230
         H            3.088502106028     0.606846304297    -1.419691684150     1.007825032230
         H           -1.931925893972     0.030920304297    -1.361027684150     1.007825032230
         H           -1.305727893972     1.228624304297    -0.211626684150     1.007825032230
         H            1.912794106028     0.031411304297     1.354532315850     1.007825032230
         H            1.286900106028     1.228816304297     0.204658315850     1.007825032230
         H           -4.205459893972     1.267352304297    -1.381668684150     1.007825032230
         H           -5.045512893972     1.550732304297     0.149202315850     1.007825032230
         H           -3.574122893972     2.455734304297    -0.231824684150     1.007825032230
         H            4.186433106028     1.267600304297     1.375295315850     1.007825032230
         H            5.026802106028     1.550524304297    -0.155485684150     1.007825032230
         H            3.555410106028     2.455738304297     0.225028315850     1.007825032230

  Basis Set: AUG-CC-PVTZ
    Blend: AUG-CC-PVTZ
  Basis Set: (AUG-CC-PVTZ AUX)
    Blend: AUG-CC-PVTZ-JKFIT
	 Reference Energy          =   -1030.5487321360621991 [Eh]
	 Singles Energy            =      -0.0000000000000000 [Eh]
	 Same-Spin Energy          =      -0.3667744436687697 [Eh]
	 Opposite-Spin Energy      =      -1.2646060722745365 [Eh]
	 Correlation Energy        =      -1.6313805159433061 [Eh]
	 Total Energy              =   -1032.1801126520056187 [Eh]

	 ================> DF-SCS-MP2 Energies <==================
	-----------------------------------------------------------
	 SCS Same-Spin Scale       =       0.3333333333333333 [-]
	 SCS Opposite-Spin Scale   =       1.2000000000000000 [-]
	 SCS Same-Spin Energy      =      -0.1222581478895899 [Eh]
	 SCS Opposite-Spin Energy  =      -1.5175272867294438 [Eh]
	 SCS Correlation Energy    =      -1.6397854346190337 [Eh]
	 SCS Total Energy          =   -1032.1885175706811424 [Eh]
	-----------------------------------------------------------

  Dipole Moment: [D]
     X:    -0.0070      Y:     2.2268      Z:    -0.0430     Total:     2.2272

*** Psi4 exiting successfully. Buy a developer a beer!
