                               Psi4 1.3.2 release

  ==> Input File <==

--------------------------------------------------------------------------
#psi4
#
memory 32 gb

molecule  {
0 1
  S       -0.8519831    -1.0523260     0.5753273
  S        0.8782890    -1.1051690    -0.5344860
  C       -3.2099880     0.3192330     0.3483480
  C        3.2100450     0.3191290    -0.3482450
  C       -1.8324130     0.2075460    -0.2961960
  C        1.8323260     0.2077250     0.2960560
  C       -4.0501360     1.4083560    -0.3151170
  C        4.0501580     1.4083440     0.3151070
  H       -3.7252280    -0.6448010     0.2732120
  H       -3.0976430     0.5365460     1.4164950
  H        3.7251890    -0.6449290    -0.2727580
  H        3.0979170     0.5361720    -1.4164690
  H       -1.9225110    -0.0397540    -1.3578050
  H       -1.2963130     1.1579500    -0.2084040
  H        1.9222090    -0.0392630     1.3577550
  H        1.2963150     1.1581420     0.2078810
  H       -4.1960450     1.1966780    -1.3784460
  H       -5.0360980     1.4800580     0.1524250
  H       -3.5647080     2.3850600    -0.2286020
  H        4.1958480     1.1969260     1.3785180
  H        5.0362170     1.4798500    -0.1522630
  H        3.5648250     2.3850640     0.2282510
units angstrom
no_reorient  #important for SAPT in psi4, default
symmetry c1  #important for SAPT in psi4, default
}

set PROPERTIES_ORIGIN ["COM"]
properties('MP2/aug-cc-pvtz', properties = ['dipole'])
--------------------------------------------------------------------------

    Molecular point group: c1
  Charge       = 0
  Multiplicity = 1
  Basis Set: AUG-CC-PVTZ
    Blend: AUG-CC-PVTZ
  Basis Set: (AUG-CC-PVTZ AUX)
    Blend: AUG-CC-PVTZ-JKFIT

    Orbital Energies [Eh]
    ---------------------

    Doubly Occupied:

       1A    -91.966374     2A    -91.964932     3A    -11.256521
       4A    -11.256426     5A    -11.232899     6A    -11.232380
       7A    -11.222221     8A    -11.221952     9A     -8.965162
      10A     -8.963870    11A     -6.646240    12A     -6.645070
      13A     -6.644891    14A     -6.644142    15A     -6.643767
      16A     -6.642880    17A     -1.103992    18A     -1.080724
      19A     -1.026117    20A     -0.964318    21A     -0.900855
      22A     -0.828560    23A     -0.806014    24A     -0.776627
      25A     -0.650368    26A     -0.647957    27A     -0.592656
      28A     -0.589593    29A     -0.584074    30A     -0.560848
      31A     -0.557531    32A     -0.536942    33A     -0.501633
      34A     -0.496577    35A     -0.488324    36A     -0.485820
      37A     -0.475243    38A     -0.465211    39A     -0.430138
      40A     -0.347363    41A     -0.345238

  @DF-RHF Final Energy: -1030.54870874988569

   => Energetics <=

    Nuclear Repulsion Energy =            529.7771778612317348
    One-Electron Energy =               -2469.8668744032111135
    Two-Electron Energy =                 909.5409877920935742
    Total Energy =                      -1030.5487087498856908
  Basis Set: (AUG-CC-PVTZ AUX)
    Blend: AUG-CC-PVTZ-RI
    Molecular point group: c1

    Geometry (in Angstrom), charge = 0, multiplicity = 1:

       Center              X                  Y                   Z               Mass
    ------------   -----------------  -----------------  -----------------  -----------------
         S           -0.857587306654    -0.983704804012     0.566630377699    31.972071174400
         S            0.872684793346    -1.036547804012    -0.543182922301    31.972071174400
         C           -3.215592206654     0.387854195988     0.339651077699    12.000000000000
         C            3.204440793346     0.387750195988    -0.356941922301    12.000000000000
         C           -1.838017206654     0.276167195988    -0.304892922301    12.000000000000
         C            1.826721793346     0.276346195988     0.287359077699    12.000000000000
         C           -4.055740206654     1.476977195988    -0.323813922301    12.000000000000
         C            4.044553793346     1.476965195988     0.306410077699    12.000000000000
         H           -3.730832206654    -0.576179804012     0.264515077699     1.007825032230
         H           -3.103247206654     0.605167195988     1.407798077699     1.007825032230
         H            3.719584793346    -0.576307804012    -0.281454922301     1.007825032230
         H            3.092312793346     0.604793195988    -1.425165922301     1.007825032230
         H           -1.928115206654     0.028867195988    -1.366501922301     1.007825032230
         H           -1.301917206654     1.226571195988    -0.217100922301     1.007825032230
         H            1.916604793346     0.029358195988     1.349058077699     1.007825032230
         H            1.290710793346     1.226763195988     0.199184077699     1.007825032230
         H           -4.201649206654     1.265299195988    -1.387142922301     1.007825032230
         H           -5.041702206654     1.548679195988     0.143728077699     1.007825032230
         H           -3.570312206654     2.453681195988    -0.237298922301     1.007825032230
         H            4.190243793346     1.265547195988     1.369821077699     1.007825032230
         H            5.030612793346     1.548471195988    -0.160959922301     1.007825032230
         H            3.559220793346     2.453685195988     0.219554077699     1.007825032230

  Basis Set: AUG-CC-PVTZ
    Blend: AUG-CC-PVTZ
  Basis Set: (AUG-CC-PVTZ AUX)
    Blend: AUG-CC-PVTZ-JKFIT
	 Reference Energy          =   -1030.5487087498856908 [Eh]
	 Singles Energy            =      -0.0000000000000000 [Eh]
	 Same-Spin Energy          =      -0.3665826852029344 [Eh]
	 Opposite-Spin Energy      =      -1.2648008624874953 [Eh]
	 Correlation Energy        =      -1.6313835476904297 [Eh]
	 Total Energy              =   -1032.1800922975760386 [Eh]

	 ================> DF-SCS-MP2 Energies <==================
	-----------------------------------------------------------
	 SCS Same-Spin Scale       =       0.3333333333333333 [-]
	 SCS Opposite-Spin Scale   =       1.2000000000000000 [-]
	 SCS Same-Spin Energy      =      -0.1221942284009781 [Eh]
	 SCS Opposite-Spin Energy  =      -1.5177610349849944 [Eh]
	 SCS Correlation Energy    =      -1.6399552633859724 [Eh]
	 SCS Total Energy          =   -1032.1886640132715911 [Eh]
	-----------------------------------------------------------

  Dipole Moment: [D]
     X:    -0.0058      Y:     2.2267      Z:    -0.0515     Total:     2.2273

*** Psi4 exiting successfully. Buy a developer a beer!
