                               Psi4 1.3.2 release

  ==> Input File <==

--------------------------------------------------------------------------
#psi4
#
memory 32 gb

molecule  {
0 1
  S       -0.9030318    -1.1106043     0.5537702
  S        0.8782890    -1.1051690    -0.5344860
  C       -3.2099880     0.3192330     0.3483480
  C        3.2100450     0.3191290    -0.3482450
  C       -1.8324130     0.2075460    -0.2961960
  C        1.8323260     0.2077250     0.2960560
  C       -4.0501360     1.4083560    -0.3151170
  C        4.0501580     1.4083440     0.3151070
  H       -3.7252280    -0.6448010     0.2732120
  H       -3.0976430     0.5365460     1.4164950
  H        3.7251890    -0.6449290    -0.2727580
  H        3.0979170     0.5361720    -1.4164690
  H       -1.9225110    -0.0397540    -1.3578050
  H       -1.2963130     1.1579500    -0.2084040
  H        1.9222090    -0.0392630     1.3577550
  H        1.2963150     1.1581420     0.2078810
  H       -4.1960450     1.1966780    -1.3784460
  H       -5.0360980     1.4800580     0.1524250
  H       -3.5647080     2.3850600    -0.2286020
  H        4.1958480     1.1969260     1.3785180
  H        5.0362170     1.4798500    -0.1522630
  H        3.5648250     2.3850640     0.2282510
units angstrom
no_reorient  #important for SAPT in psi4, default
symmetry c1  #important for SAPT in psi4, default
}

set PROPERTIES_ORIGIN ["COM"]
properties('MP2/aug-cc-pvtz', properties = ['dipole'])
--------------------------------------------------------------------------

    Molecular point group: c1
  Charge       = 0
  Multiplicity = 1
  Basis Set: AUG-CC-PVTZ
    Blend: AUG-CC-PVTZ
  Basis Set: (AUG-CC-PVTZ AUX)
    Blend: AUG-CC-PVTZ-JKFIT

    Orbital Energies [Eh]
    ---------------------

    Doubly Occupied:

       1A    -91.967563     2A    -91.966439     3A    -11.257238
       4A    -11.257228     5A    -11.233178     6A    -11.232701
       7A    -11.222436     8A    -11.222130     9A     -8.965885
      10A     -8.964807    11A     -6.646903    12A     -6.645840
      13A     -6.645687    14A     -6.644826    15A     -6.644690
      16A     -6.643782    17A     -1.101632    18A     -1.081161
      19A     -1.022635    20A     -0.964631    21A     -0.899211
      22A     -0.828877    23A     -0.806165    24A     -0.777996
      25A     -0.650424    26A     -0.648220    27A     -0.592224
      28A     -0.589170    29A     -0.583660    30A     -0.560714
      31A     -0.557656    32A     -0.537394    33A     -0.501416
      34A     -0.496308    35A     -0.488093    36A     -0.486025
      37A     -0.475268    38A     -0.462804    39A     -0.427170
      40A     -0.351287    41A     -0.343550

  @DF-RHF Final Energy: -1030.54859512454914

   => Energetics <=

    Nuclear Repulsion Energy =            527.9919738223958348
    One-Electron Energy =               -2466.2910938833720138
    Two-Electron Energy =                 907.7505249364271549
    Total Energy =                      -1030.5485951245491378
  Basis Set: (AUG-CC-PVTZ AUX)
    Blend: AUG-CC-PVTZ-RI
    Molecular point group: c1

    Geometry (in Angstrom), charge = 0, multiplicity = 1:

       Center              X                  Y                   Z               Mass
    ------------   -----------------  -----------------  -----------------  -----------------
         S           -0.897759015630    -1.029565695811     0.549666467795    31.972071174400
         S            0.883561784370    -1.024130395811    -0.538589732205    31.972071174400
         C           -3.204715215630     0.400271604189     0.344244267795    12.000000000000
         C            3.215317784370     0.400167604189    -0.352348732205    12.000000000000
         C           -1.827140215630     0.288584604189    -0.300299732205    12.000000000000
         C            1.837598784370     0.288763604189     0.291952267795    12.000000000000
         C           -4.044863215630     1.489394604189    -0.319220732205    12.000000000000
         C            4.055430784370     1.489382604189     0.311003267795    12.000000000000
         H           -3.719955215630    -0.563762395811     0.269108267795     1.007825032230
         H           -3.092370215630     0.617584604189     1.412391267795     1.007825032230
         H            3.730461784370    -0.563890395811    -0.276861732205     1.007825032230
         H            3.103189784370     0.617210604189    -1.420572732205     1.007825032230
         H           -1.917238215630     0.041284604189    -1.361908732205     1.007825032230
         H           -1.291040215630     1.238988604189    -0.212507732205     1.007825032230
         H            1.927481784370     0.041775604189     1.353651267795     1.007825032230
         H            1.301587784370     1.239180604189     0.203777267795     1.007825032230
         H           -4.190772215630     1.277716604189    -1.382549732205     1.007825032230
         H           -5.030825215630     1.561096604189     0.148321267795     1.007825032230
         H           -3.559435215630     2.466098604189    -0.232705732205     1.007825032230
         H            4.201120784370     1.277964604189     1.374414267795     1.007825032230
         H            5.041489784370     1.560888604189    -0.156366732205     1.007825032230
         H            3.570097784370     2.466102604189     0.224147267795     1.007825032230

  Basis Set: AUG-CC-PVTZ
    Blend: AUG-CC-PVTZ
  Basis Set: (AUG-CC-PVTZ AUX)
    Blend: AUG-CC-PVTZ-JKFIT
	 Reference Energy          =   -1030.5485951245491378 [Eh]
	 Singles Energy            =      -0.0000000000000000 [Eh]
	 Same-Spin Energy          =      -0.3662322008491977 [Eh]
	 Opposite-Spin Energy      =      -1.2648423180451445 [Eh]
	 Correlation Energy        =      -1.6310745188943421 [Eh]
	 Total Energy              =   -1032.1796696434435034 [Eh]

	 ================> DF-SCS-MP2 Energies <==================
	-----------------------------------------------------------
	 SCS Same-Spin Scale       =       0.3333333333333333 [-]
	 SCS Opposite-Spin Scale   =       1.2000000000000000 [-]
	 SCS Same-Spin Energy      =      -0.1220774002830659 [Eh]
	 SCS Opposite-Spin Energy  =      -1.5178107816541733 [Eh]
	 SCS Correlation Energy    =      -1.6398881819372391 [Eh]
	 SCS Total Energy          =   -1032.1884833064864324 [Eh]
	-----------------------------------------------------------

  Dipole Moment: [D]
     X:     0.0042      Y:     2.2799      Z:     0.0026     Total:     2.2799

*** Psi4 exiting successfully. Buy a developer a beer!
