                               Psi4 1.3.2 release

  ==> Input File <==

--------------------------------------------------------------------------
#psi4
#
memory 32 gb

molecule  {
0 1
  S       -0.8560430    -1.0837711     0.5422038
  S        0.8782890    -1.1051690    -0.5344860
  C       -3.2099880     0.3192330     0.3483480
  C        3.2100450     0.3191290    -0.3482450
  C       -1.8324130     0.2075460    -0.2961960
  C        1.8323260     0.2077250     0.2960560
  C       -4.0501360     1.4083560    -0.3151170
  C        4.0501580     1.4083440     0.3151070
  H       -3.7252280    -0.6448010     0.2732120
  H       -3.0976430     0.5365460     1.4164950
  H        3.7251890    -0.6449290    -0.2727580
  H        3.0979170     0.5361720    -1.4164690
  H       -1.9225110    -0.0397540    -1.3578050
  H       -1.2963130     1.1579500    -0.2084040
  H        1.9222090    -0.0392630     1.3577550
  H        1.2963150     1.1581420     0.2078810
  H       -4.1960450     1.1966780    -1.3784460
  H       -5.0360980     1.4800580     0.1524250
  H       -3.5647080     2.3850600    -0.2286020
  H        4.1958480     1.1969260     1.3785180
  H        5.0362170     1.4798500    -0.1522630
  H        3.5648250     2.3850640     0.2282510
units angstrom
no_reorient  #important for SAPT in psi4, default
symmetry c1  #important for SAPT in psi4, default
}

set PROPERTIES_ORIGIN ["COM"]
properties('MP2/aug-cc-pvtz', properties = ['dipole'])
--------------------------------------------------------------------------

    Molecular point group: c1
  Charge       = 0
  Multiplicity = 1
  Basis Set: AUG-CC-PVTZ
    Blend: AUG-CC-PVTZ
  Basis Set: (AUG-CC-PVTZ AUX)
    Blend: AUG-CC-PVTZ-JKFIT

    Orbital Energies [Eh]
    ---------------------

    Doubly Occupied:

       1A    -91.965813     2A    -91.964791     3A    -11.256662
       4A    -11.256546     5A    -11.233056     6A    -11.232640
       7A    -11.222369     8A    -11.222113     9A     -8.964798
      10A     -8.963819    11A     -6.645927    12A     -6.644926
      13A     -6.644642    14A     -6.643798    15A     -6.643720
      16A     -6.642853    17A     -1.104476    18A     -1.080593
      19A     -1.027550    20A     -0.964071    21A     -0.902345
      22A     -0.828524    23A     -0.806477    24A     -0.775575
      25A     -0.650332    26A     -0.648057    27A     -0.593563
      28A     -0.589568    29A     -0.584304    30A     -0.560836
      31A     -0.557721    32A     -0.536690    33A     -0.501730
      34A     -0.496801    35A     -0.488415    36A     -0.485977
      37A     -0.477060    38A     -0.464398    39A     -0.431512
      40A     -0.348841    41A     -0.342868

  @DF-RHF Final Energy: -1030.54919177851434

   => Energetics <=

    Nuclear Repulsion Energy =            529.8801227762081680
    One-Electron Energy =               -2470.0651241880400448
    Two-Electron Energy =                 909.6358096333175354
    Total Energy =                      -1030.5491917785143414
  Basis Set: (AUG-CC-PVTZ AUX)
    Blend: AUG-CC-PVTZ-RI
    Molecular point group: c1

    Geometry (in Angstrom), charge = 0, multiplicity = 1:

       Center              X                  Y                   Z               Mass
    ------------   -----------------  -----------------  -----------------  -----------------
         S           -0.860782160221    -1.008449869134     0.540564530729    31.972071174400
         S            0.873549839779    -1.029847769134    -0.536125269271    31.972071174400
         C           -3.214727160221     0.394554230866     0.346708730729    12.000000000000
         C            3.205305839779     0.394450230866    -0.349884269271    12.000000000000
         C           -1.837152160221     0.282867230866    -0.297835269271    12.000000000000
         C            1.827586839779     0.283046230866     0.294416730729    12.000000000000
         C           -4.054875160221     1.483677230866    -0.316756269271    12.000000000000
         C            4.045418839779     1.483665230866     0.313467730729    12.000000000000
         H           -3.729967160221    -0.569479769134     0.271572730729     1.007825032230
         H           -3.102382160221     0.611867230866     1.414855730729     1.007825032230
         H            3.720449839779    -0.569607769134    -0.274397269271     1.007825032230
         H            3.093177839779     0.611493230866    -1.418108269271     1.007825032230
         H           -1.927250160221     0.035567230866    -1.359444269271     1.007825032230
         H           -1.301052160221     1.233271230866    -0.210043269271     1.007825032230
         H            1.917469839779     0.036058230866     1.356115730729     1.007825032230
         H            1.291575839779     1.233463230866     0.206241730729     1.007825032230
         H           -4.200784160221     1.271999230866    -1.380085269271     1.007825032230
         H           -5.040837160221     1.555379230866     0.150785730729     1.007825032230
         H           -3.569447160221     2.460381230866    -0.230241269271     1.007825032230
         H            4.191108839779     1.272247230866     1.376878730729     1.007825032230
         H            5.031477839779     1.555171230866    -0.153902269271     1.007825032230
         H            3.560085839779     2.460385230866     0.226611730729     1.007825032230

  Basis Set: AUG-CC-PVTZ
    Blend: AUG-CC-PVTZ
  Basis Set: (AUG-CC-PVTZ AUX)
    Blend: AUG-CC-PVTZ-JKFIT
	 Reference Energy          =   -1030.5491917785143414 [Eh]
	 Singles Energy            =      -0.0000000000000000 [Eh]
	 Same-Spin Energy          =      -0.3666060112115662 [Eh]
	 Opposite-Spin Energy      =      -1.2645881174335920 [Eh]
	 Correlation Energy        =      -1.6311941286451583 [Eh]
	 Total Energy              =   -1032.1803859071594616 [Eh]

	 ================> DF-SCS-MP2 Energies <==================
	-----------------------------------------------------------
	 SCS Same-Spin Scale       =       0.3333333333333333 [-]
	 SCS Opposite-Spin Scale   =       1.2000000000000000 [-]
	 SCS Same-Spin Energy      =      -0.1222020037371887 [Eh]
	 SCS Opposite-Spin Energy  =      -1.5175057409203103 [Eh]
	 SCS Correlation Energy    =      -1.6397077446574990 [Eh]
	 SCS Total Energy          =   -1032.1888995231718127 [Eh]
	-----------------------------------------------------------

  Dipole Moment: [D]
     X:    -0.0038      Y:     2.2489      Z:    -0.0213     Total:     2.2490

*** Psi4 exiting successfully. Buy a developer a beer!
