                               Psi4 1.3.2 release

  ==> Input File <==

--------------------------------------------------------------------------
#psi4
#
memory 32 gb

molecule  {
0 1
  S       -0.9789401    -1.1244412     0.6099532
  S        0.8782890    -1.1051690    -0.5344860
  C       -3.2099880     0.3192330     0.3483480
  C        3.2100450     0.3191290    -0.3482450
  C       -1.8324130     0.2075460    -0.2961960
  C        1.8323260     0.2077250     0.2960560
  C       -4.0501360     1.4083560    -0.3151170
  C        4.0501580     1.4083440     0.3151070
  H       -3.7252280    -0.6448010     0.2732120
  H       -3.0976430     0.5365460     1.4164950
  H        3.7251890    -0.6449290    -0.2727580
  H        3.0979170     0.5361720    -1.4164690
  H       -1.9225110    -0.0397540    -1.3578050
  H       -1.2963130     1.1579500    -0.2084040
  H        1.9222090    -0.0392630     1.3577550
  H        1.2963150     1.1581420     0.2078810
  H       -4.1960450     1.1966780    -1.3784460
  H       -5.0360980     1.4800580     0.1524250
  H       -3.5647080     2.3850600    -0.2286020
  H        4.1958480     1.1969260     1.3785180
  H        5.0362170     1.4798500    -0.1522630
  H        3.5648250     2.3850640     0.2282510
units angstrom
no_reorient  #important for SAPT in psi4, default
symmetry c1  #important for SAPT in psi4, default
}

set PROPERTIES_ORIGIN ["COM"]
properties('MP2/aug-cc-pvtz', properties = ['dipole'])
--------------------------------------------------------------------------

    Molecular point group: c1
  Charge       = 0
  Multiplicity = 1
  Basis Set: AUG-CC-PVTZ
    Blend: AUG-CC-PVTZ
  Basis Set: (AUG-CC-PVTZ AUX)
    Blend: AUG-CC-PVTZ-JKFIT

    Orbital Energies [Eh]
    ---------------------

    Doubly Occupied:

       1A    -91.972114     2A    -91.967893     3A    -11.258110
       4A    -11.258083     5A    -11.233712     6A    -11.231949
       7A    -11.222743     8A    -11.221558     9A     -8.969350
      10A     -8.965328    11A     -6.650187    12A     -6.649067
      13A     -6.648123    14A     -6.646168    15A     -6.645180
      16A     -6.644185    17A     -1.098004    18A     -1.082074
      19A     -1.013614    20A     -0.965494    21A     -0.892295
      22A     -0.829466    23A     -0.805433    24A     -0.782697
      25A     -0.650568    26A     -0.648348    27A     -0.590257
      28A     -0.588559    29A     -0.581022    30A     -0.560466
      31A     -0.557277    32A     -0.538935    33A     -0.500871
      34A     -0.495633    35A     -0.487781    36A     -0.485891
      37A     -0.470137    38A     -0.461704    39A     -0.417393
      40A     -0.353510    41A     -0.346307

  @DF-RHF Final Energy: -1030.54227075754989

   => Energetics <=

    Nuclear Repulsion Energy =            524.7920551002812317
    One-Electron Energy =               -2459.8936770931672982
    Two-Electron Energy =                 904.5593512353360666
    Total Energy =                      -1030.5422707575498862
  Basis Set: (AUG-CC-PVTZ AUX)
    Blend: AUG-CC-PVTZ-RI
    Molecular point group: c1

    Geometry (in Angstrom), charge = 0, multiplicity = 1:

       Center              X                  Y                   Z               Mass
    ------------   -----------------  -----------------  -----------------  -----------------
         S           -0.957493467955    -1.040454355462     0.593878506992    31.972071174400
         S            0.899735632045    -1.021182155462    -0.550560693008    31.972071174400
         C           -3.188541367955     0.403219844538     0.332273306992    12.000000000000
         C            3.231491632045     0.403115844538    -0.364319693008    12.000000000000
         C           -1.810966367955     0.291532844538    -0.312270693008    12.000000000000
         C            1.853772632045     0.291711844538     0.279981306992    12.000000000000
         C           -4.028689367955     1.492342844538    -0.331191693008    12.000000000000
         C            4.071604632045     1.492330844538     0.299032306992    12.000000000000
         H           -3.703781367955    -0.560814155462     0.257137306992     1.007825032230
         H           -3.076196367955     0.620532844538     1.400420306992     1.007825032230
         H            3.746635632045    -0.560942155462    -0.288832693008     1.007825032230
         H            3.119363632045     0.620158844538    -1.432543693008     1.007825032230
         H           -1.901064367955     0.044232844538    -1.373879693008     1.007825032230
         H           -1.274866367955     1.241936844538    -0.224478693008     1.007825032230
         H            1.943655632045     0.044723844538     1.341680306992     1.007825032230
         H            1.317761632045     1.242128844538     0.191806306992     1.007825032230
         H           -4.174598367955     1.280664844538    -1.394520693008     1.007825032230
         H           -5.014651367955     1.564044844538     0.136350306992     1.007825032230
         H           -3.543261367955     2.469046844538    -0.244676693008     1.007825032230
         H            4.217294632045     1.280912844538     1.362443306992     1.007825032230
         H            5.057663632045     1.563836844538    -0.168337693008     1.007825032230
         H            3.586271632045     2.469050844538     0.212176306992     1.007825032230

  Basis Set: AUG-CC-PVTZ
    Blend: AUG-CC-PVTZ
  Basis Set: (AUG-CC-PVTZ AUX)
    Blend: AUG-CC-PVTZ-JKFIT
	 Reference Energy          =   -1030.5422707575498862 [Eh]
	 Singles Energy            =      -0.0000000000000000 [Eh]
	 Same-Spin Energy          =      -0.3658248951378796 [Eh]
	 Opposite-Spin Energy      =      -1.2659814971304217 [Eh]
	 Correlation Energy        =      -1.6318063922683013 [Eh]
	 Total Energy              =   -1032.1740771498182312 [Eh]

	 ================> DF-SCS-MP2 Energies <==================
	-----------------------------------------------------------
	 SCS Same-Spin Scale       =       0.3333333333333333 [-]
	 SCS Opposite-Spin Scale   =       1.2000000000000000 [-]
	 SCS Same-Spin Energy      =      -0.1219416317126265 [Eh]
	 SCS Opposite-Spin Energy  =      -1.5191777965565061 [Eh]
	 SCS Correlation Energy    =      -1.6411194282691326 [Eh]
	 SCS Total Energy          =   -1032.1833901858190075 [Eh]
	-----------------------------------------------------------

  Dipole Moment: [D]
     X:     0.0205      Y:     2.3035      Z:     0.0064     Total:     2.3036

*** Psi4 exiting successfully. Buy a developer a beer!
