                               Psi4 1.3.2 release

  ==> Input File <==

--------------------------------------------------------------------------
#psi4
#
memory 32 gb

molecule  {
0 1
  S       -0.9008176    -1.1262031     0.5265772
  S        0.8782890    -1.1051690    -0.5344860
  C       -3.2099880     0.3192330     0.3483480
  C        3.2100450     0.3191290    -0.3482450
  C       -1.8324130     0.2075460    -0.2961960
  C        1.8323260     0.2077250     0.2960560
  C       -4.0501360     1.4083560    -0.3151170
  C        4.0501580     1.4083440     0.3151070
  H       -3.7252280    -0.6448010     0.2732120
  H       -3.0976430     0.5365460     1.4164950
  H        3.7251890    -0.6449290    -0.2727580
  H        3.0979170     0.5361720    -1.4164690
  H       -1.9225110    -0.0397540    -1.3578050
  H       -1.2963130     1.1579500    -0.2084040
  H        1.9222090    -0.0392630     1.3577550
  H        1.2963150     1.1581420     0.2078810
  H       -4.1960450     1.1966780    -1.3784460
  H       -5.0360980     1.4800580     0.1524250
  H       -3.5647080     2.3850600    -0.2286020
  H        4.1958480     1.1969260     1.3785180
  H        5.0362170     1.4798500    -0.1522630
  H        3.5648250     2.3850640     0.2282510
units angstrom
no_reorient  #important for SAPT in psi4, default
symmetry c1  #important for SAPT in psi4, default
}

set PROPERTIES_ORIGIN ["COM"]
properties('MP2/aug-cc-pvtz', properties = ['dipole'])
--------------------------------------------------------------------------

    Molecular point group: c1
  Charge       = 0
  Multiplicity = 1
  Basis Set: AUG-CC-PVTZ
    Blend: AUG-CC-PVTZ
  Basis Set: (AUG-CC-PVTZ AUX)
    Blend: AUG-CC-PVTZ-JKFIT

    Orbital Energies [Eh]
    ---------------------

    Doubly Occupied:

       1A    -91.967005     2A    -91.965990     3A    -11.257228
       4A    -11.257099     5A    -11.233299     6A    -11.232891
       7A    -11.222518     8A    -11.222258     9A     -8.965519
      10A     -8.964547    11A     -6.646575    12A     -6.645596
      13A     -6.645352    14A     -6.644484    15A     -6.644435
      16A     -6.643544    17A     -1.102414    18A     -1.081123
      19A     -1.024245    20A     -0.964620    21A     -0.900576
      22A     -0.828910    23A     -0.806505    24A     -0.776957
      25A     -0.650448    26A     -0.648309    27A     -0.593015
      28A     -0.589248    29A     -0.584081    30A     -0.560783
      31A     -0.557845    32A     -0.537125    33A     -0.501543
      34A     -0.496549    35A     -0.488205    36A     -0.486157
      37A     -0.476803    38A     -0.462423    39A     -0.428590
      40A     -0.352083    41A     -0.341760

  @DF-RHF Final Energy: -1030.54903250126426

   => Energetics <=

    Nuclear Repulsion Energy =            528.3701103294132508
    One-Electron Energy =               -2467.0409680812631450
    Two-Electron Energy =                 908.1218252505856299
    Total Energy =                      -1030.5490325012642643
  Basis Set: (AUG-CC-PVTZ AUX)
    Blend: AUG-CC-PVTZ-RI
    Molecular point group: c1

    Geometry (in Angstrom), charge = 0, multiplicity = 1:

       Center              X                  Y                   Z               Mass
    ------------   -----------------  -----------------  -----------------  -----------------
         S           -0.896016597155    -1.041840845893     0.528267504017    31.972071174400
         S            0.883090002845    -1.020806745893    -0.532795695983    31.972071174400
         C           -3.205186997155     0.403595254107     0.350038304017    12.000000000000
         C            3.214846002845     0.403491254107    -0.346554695983    12.000000000000
         C           -1.827611997155     0.291908254107    -0.294505695983    12.000000000000
         C            1.837127002845     0.292087254107     0.297746304017    12.000000000000
         C           -4.045334997155     1.492718254107    -0.313426695983    12.000000000000
         C            4.054959002845     1.492706254107     0.316797304017    12.000000000000
         H           -3.720426997155    -0.560438745893     0.274902304017     1.007825032230
         H           -3.092841997155     0.620908254107     1.418185304017     1.007825032230
         H            3.729990002845    -0.560566745893    -0.271067695983     1.007825032230
         H            3.102718002845     0.620534254107    -1.414778695983     1.007825032230
         H           -1.917709997155     0.044608254107    -1.356114695983     1.007825032230
         H           -1.291511997155     1.242312254107    -0.206713695983     1.007825032230
         H            1.927010002845     0.045099254107     1.359445304017     1.007825032230
         H            1.301116002845     1.242504254107     0.209571304017     1.007825032230
         H           -4.191243997155     1.281040254107    -1.376755695983     1.007825032230
         H           -5.031296997155     1.564420254107     0.154115304017     1.007825032230
         H           -3.559906997155     2.469422254107    -0.226911695983     1.007825032230
         H            4.200649002845     1.281288254107     1.380208304017     1.007825032230
         H            5.041018002845     1.564212254107    -0.150572695983     1.007825032230
         H            3.569626002845     2.469426254107     0.229941304017     1.007825032230

  Basis Set: AUG-CC-PVTZ
    Blend: AUG-CC-PVTZ
  Basis Set: (AUG-CC-PVTZ AUX)
    Blend: AUG-CC-PVTZ-JKFIT
	 Reference Energy          =   -1030.5490325012642643 [Eh]
	 Singles Energy            =      -0.0000000000000000 [Eh]
	 Same-Spin Energy          =      -0.3663101592136453 [Eh]
	 Opposite-Spin Energy      =      -1.2646532856606272 [Eh]
	 Correlation Energy        =      -1.6309634448742725 [Eh]
	 Total Energy              =   -1032.1799959461384333 [Eh]

	 ================> DF-SCS-MP2 Energies <==================
	-----------------------------------------------------------
	 SCS Same-Spin Scale       =       0.3333333333333333 [-]
	 SCS Opposite-Spin Scale   =       1.2000000000000000 [-]
	 SCS Same-Spin Energy      =      -0.1221033864045484 [Eh]
	 SCS Opposite-Spin Energy  =      -1.5175839427927527 [Eh]
	 SCS Correlation Energy    =      -1.6396873291973011 [Eh]
	 SCS Total Energy          =   -1032.1887198304616504 [Eh]
	-----------------------------------------------------------

  Dipole Moment: [D]
     X:     0.0042      Y:     2.2918      Z:     0.0207     Total:     2.2919

*** Psi4 exiting successfully. Buy a developer a beer!
