                               Psi4 1.4a3.dev225

  ==> Input File <==

--------------------------------------------------------------------------
#psi4
#
memory 32 gb

molecule  {
0 1
  S        0.8782360    -1.1051720    -0.5345130
  S       -0.8782360    -1.1051730     0.5345140
  C        3.2099970     0.3192160    -0.3483490
  C       -3.2099950     0.3192180     0.3483520
  C        1.8062296     0.1716101     0.2733239
  C       -1.8324000     0.2076110    -0.2961070
  C        4.0501390     1.4083310     0.3151470
  C       -4.0501390     1.4083310    -0.3151470
  H        3.7252040    -0.6448290    -0.2731450
  H        3.0977470     0.5364970    -1.4165130
  H       -3.7252050    -0.6448260     0.2731560
  H       -3.0977410     0.5365060     1.4165140
  H        1.9224270    -0.0395970     1.3577410
  H        1.2963330     1.1580260     0.2082030
  H       -1.9224330    -0.0396070    -1.3577420
  H       -1.2963320     1.1580220    -0.2082140
  H        4.1959570     1.1966930     1.3784960
  H        5.0361400     1.4799610    -0.1523260
  H        3.5647660     2.3850540     0.2285540
  H       -4.1959620     1.1966860    -1.3784950
  H       -5.0361370     1.4799650     0.1523300
  H       -3.5647630     2.3850530    -0.2285630
units angstrom
no_reorient  #important for SAPT in psi4, default
symmetry c1  #important for SAPT in psi4, default
}

set PROPERTIES_ORIGIN ["COM"]
properties('MP2/aug-cc-pvtz', properties = ['dipole'])
--------------------------------------------------------------------------

    Molecular point group: c1
  Charge       = 0
  Multiplicity = 1
  Basis Set: AUG-CC-PVTZ
    Blend: AUG-CC-PVTZ
  Basis Set: (AUG-CC-PVTZ AUX)
    Blend: AUG-CC-PVTZ-JKFIT

    Orbital Energies [Eh]
    ---------------------

    Doubly Occupied:

       1A    -91.966678     2A    -91.966578     3A    -11.257404
       4A    -11.256875     5A    -11.233637     6A    -11.233378
       7A    -11.222581     8A    -11.222528     9A     -8.966127
      10A     -8.965388    11A     -6.647280    12A     -6.646454
      13A     -6.646069    14A     -6.645266    15A     -6.645125
      16A     -6.644385    17A     -1.105691    18A     -1.080292
      19A     -1.027134    20A     -0.967144    21A     -0.900441
      22A     -0.830163    23A     -0.805018    24A     -0.775040
      25A     -0.649881    26A     -0.644591    27A     -0.594725
      28A     -0.588849    29A     -0.584261    30A     -0.560099
      31A     -0.555763    32A     -0.537009    33A     -0.500886
      34A     -0.495323    35A     -0.488772    36A     -0.484729
      37A     -0.481666    38A     -0.465013    39A     -0.428614
      40A     -0.351750    41A     -0.343185

  @DF-RHF Final Energy: -1030.54680151379330

   => Energetics <=

    Nuclear Repulsion Energy =            529.8152675552930759
    One-Electron Energy =               -2469.9005529146611480
    Two-Electron Energy =                 909.5384838455748877
    Total Energy =                      -1030.5468015137930706
  Basis Set: (AUG-CC-PVTZ AUX)
    Blend: AUG-CC-PVTZ-RI
    Molecular point group: c1

    Geometry (in Angstrom), charge = 0, multiplicity = 1:

       Center              X                  Y                   Z               Mass
    ------------   -----------------  -----------------  -----------------  -----------------
         S            0.880328716189    -1.022409129353    -0.532691430306    31.972071174400
         S           -0.876143283811    -1.022410129353     0.536335569694    31.972071174400
         C            3.212089716189     0.401978870647    -0.346527430306    12.000000000000
         C           -3.207902283811     0.401980870647     0.350173569694    12.000000000000
         C            1.808322316189     0.254372970647     0.275145469694    12.000000000000
         C           -1.830307283811     0.290373870647    -0.294285430306    12.000000000000
         C            4.052231716189     1.491093870647     0.316968569694    12.000000000000
         C           -4.048046283811     1.491093870647    -0.313325430306    12.000000000000
         H            3.727296716189    -0.562066129353    -0.271323430306     1.007825032230
         H            3.099839716189     0.619259870647    -1.414691430306     1.007825032230
         H           -3.723112283811    -0.562063129353     0.274977569694     1.007825032230
         H           -3.095648283811     0.619268870647     1.418335569694     1.007825032230
         H            1.924519716189     0.043165870647     1.359562569694     1.007825032230
         H            1.298425716189     1.240788870647     0.210024569694     1.007825032230
         H           -1.920340283811     0.043155870647    -1.355920430306     1.007825032230
         H           -1.294239283811     1.240784870647    -0.206392430306     1.007825032230
         H            4.198049716189     1.279455870647     1.380317569694     1.007825032230
         H            5.038232716189     1.562723870647    -0.150504430306     1.007825032230
         H            3.566858716189     2.467816870647     0.230375569694     1.007825032230
         H           -4.193869283811     1.279448870647    -1.376673430306     1.007825032230
         H           -5.034044283811     1.562727870647     0.154151569694     1.007825032230
         H           -3.562670283811     2.467815870647    -0.226741430306     1.007825032230

  Basis Set: AUG-CC-PVTZ
    Blend: AUG-CC-PVTZ
  Basis Set: (AUG-CC-PVTZ AUX)
    Blend: AUG-CC-PVTZ-JKFIT
	 Reference Energy          =   -1030.5468015137932980 [Eh]
	 Singles Energy            =      -0.0000000000000000 [Eh]
	 Same-Spin Energy          =      -0.3667044191554089 [Eh]
	 Opposite-Spin Energy      =      -1.2648360280496622 [Eh]
	 Correlation Energy        =      -1.6315404472050712 [Eh]
	 Total Energy              =   -1032.1783419609982957 [Eh]

	 ================> DF-SCS-MP2 Energies <==================
	-----------------------------------------------------------
	 SCS Same-Spin Scale       =       0.3333333333333333 [-]
	 SCS Opposite-Spin Scale   =       1.2000000000000000 [-]
	 SCS Same-Spin Energy      =      -0.1222348063851363 [Eh]
	 SCS Opposite-Spin Energy  =      -1.5178032336595946 [Eh]
	 SCS Correlation Energy    =      -1.6400380400447310 [Eh]
	 SCS Total Energy          =   -1032.1868395538381264 [Eh]
	-----------------------------------------------------------

  Dipole Moment: [D]
     X:    -0.0471      Y:     2.2421      Z:    -0.0137     Total:     2.2426

*** Psi4 exiting successfully. Buy a developer a beer!
