                               Psi4 1.3.2 release

  ==> Input File <==

--------------------------------------------------------------------------
#psi4
#
memory 32 gb

molecule  {
0 1
  S       -0.9024468    -1.1580480     0.4924043
  S        0.8782890    -1.1051690    -0.5344860
  C       -3.2099880     0.3192330     0.3483480
  C        3.2100450     0.3191290    -0.3482450
  C       -1.8324130     0.2075460    -0.2961960
  C        1.8323260     0.2077250     0.2960560
  C       -4.0501360     1.4083560    -0.3151170
  C        4.0501580     1.4083440     0.3151070
  H       -3.7252280    -0.6448010     0.2732120
  H       -3.0976430     0.5365460     1.4164950
  H        3.7251890    -0.6449290    -0.2727580
  H        3.0979170     0.5361720    -1.4164690
  H       -1.9225110    -0.0397540    -1.3578050
  H       -1.2963130     1.1579500    -0.2084040
  H        1.9222090    -0.0392630     1.3577550
  H        1.2963150     1.1581420     0.2078810
  H       -4.1960450     1.1966780    -1.3784460
  H       -5.0360980     1.4800580     0.1524250
  H       -3.5647080     2.3850600    -0.2286020
  H        4.1958480     1.1969260     1.3785180
  H        5.0362170     1.4798500    -0.1522630
  H        3.5648250     2.3850640     0.2282510
units angstrom
no_reorient  #important for SAPT in psi4, default
symmetry c1  #important for SAPT in psi4, default
}

set PROPERTIES_ORIGIN ["COM"]
properties('MP2/aug-cc-pvtz', properties = ['dipole'])
--------------------------------------------------------------------------

    Molecular point group: c1
  Charge       = 0
  Multiplicity = 1
  Basis Set: AUG-CC-PVTZ
    Blend: AUG-CC-PVTZ
  Basis Set: (AUG-CC-PVTZ AUX)
    Blend: AUG-CC-PVTZ-JKFIT

    Orbital Energies [Eh]
    ---------------------

    Doubly Occupied:

       1A    -91.967005     2A    -91.965348     3A    -11.257582
       4A    -11.257299     5A    -11.233529     6A    -11.233044
       7A    -11.222670     8A    -11.222410     9A     -8.965560
      10A     -8.964106    11A     -6.646636    12A     -6.645434
      13A     -6.645156    14A     -6.644540    15A     -6.644001
      16A     -6.643121    17A     -1.102638    18A     -1.080858
      19A     -1.025671    20A     -0.964170    21A     -0.902140
      22A     -0.828832    23A     -0.806934    24A     -0.775957
      25A     -0.650400    26A     -0.648354    27A     -0.593820
      28A     -0.589244    29A     -0.584100    30A     -0.560752
      31A     -0.558000    32A     -0.536890    33A     -0.501629
      34A     -0.496759    35A     -0.488277    36A     -0.486307
      37A     -0.478351    38A     -0.461356    39A     -0.430178
      40A     -0.353611    41A     -0.339180

  @DF-RHF Final Energy: -1030.54896641260711

   => Energetics <=

    Nuclear Repulsion Energy =            528.4060354347192288
    One-Electron Energy =               -2467.1063094820042352
    Two-Electron Energy =                 908.1513076346777780
    Total Energy =                      -1030.5489664126071148
  Basis Set: (AUG-CC-PVTZ AUX)
    Blend: AUG-CC-PVTZ-RI
    Molecular point group: c1

    Geometry (in Angstrom), charge = 0, multiplicity = 1:

       Center              X                  Y                   Z               Mass
    ------------   -----------------  -----------------  -----------------  -----------------
         S           -0.897298662090    -1.066900525281     0.501375853620    31.972071174400
         S            0.883437137910    -1.014021525281    -0.525514446380    31.972071174400
         C           -3.204839862090     0.410380474719     0.357319553620    12.000000000000
         C            3.215193137910     0.410276474719    -0.339273446380    12.000000000000
         C           -1.827264862090     0.298693474719    -0.287224446380    12.000000000000
         C            1.837474137910     0.298872474719     0.305027553620    12.000000000000
         C           -4.044987862090     1.499503474719    -0.306145446380    12.000000000000
         C            4.055306137910     1.499491474719     0.324078553620    12.000000000000
         H           -3.720079862090    -0.553653525281     0.282183553620     1.007825032230
         H           -3.092494862090     0.627693474719     1.425466553620     1.007825032230
         H            3.730337137910    -0.553781525281    -0.263786446380     1.007825032230
         H            3.103065137910     0.627319474719    -1.407497446380     1.007825032230
         H           -1.917362862090     0.051393474719    -1.348833446380     1.007825032230
         H           -1.291164862090     1.249097474719    -0.199432446380     1.007825032230
         H            1.927357137910     0.051884474719     1.366726553620     1.007825032230
         H            1.301463137910     1.249289474719     0.216852553620     1.007825032230
         H           -4.190896862090     1.287825474719    -1.369474446380     1.007825032230
         H           -5.030949862090     1.571205474719     0.161396553620     1.007825032230
         H           -3.559559862090     2.476207474719    -0.219630446380     1.007825032230
         H            4.200996137910     1.288073474719     1.387489553620     1.007825032230
         H            5.041365137910     1.570997474719    -0.143291446380     1.007825032230
         H            3.569973137910     2.476211474719     0.237222553620     1.007825032230

  Basis Set: AUG-CC-PVTZ
    Blend: AUG-CC-PVTZ
  Basis Set: (AUG-CC-PVTZ AUX)
    Blend: AUG-CC-PVTZ-JKFIT
	 Reference Energy          =   -1030.5489664126071148 [Eh]
	 Singles Energy            =      -0.0000000000000000 [Eh]
	 Same-Spin Energy          =      -0.3663354494345961 [Eh]
	 Opposite-Spin Energy      =      -1.2644897499885830 [Eh]
	 Correlation Energy        =      -1.6308251994231791 [Eh]
	 Total Energy              =   -1032.1797916120303853 [Eh]

	 ================> DF-SCS-MP2 Energies <==================
	-----------------------------------------------------------
	 SCS Same-Spin Scale       =       0.3333333333333333 [-]
	 SCS Opposite-Spin Scale   =       1.2000000000000000 [-]
	 SCS Same-Spin Energy      =      -0.1221118164781987 [Eh]
	 SCS Opposite-Spin Energy  =      -1.5173876999862996 [Eh]
	 SCS Correlation Energy    =      -1.6394995164644983 [Eh]
	 SCS Total Energy          =   -1032.1884659290715263 [Eh]
	-----------------------------------------------------------

  Dipole Moment: [D]
     X:     0.0044      Y:     2.3126      Z:     0.0522     Total:     2.3132

*** Psi4 exiting successfully. Buy a developer a beer!
