                               Psi4 1.3.2 release

  ==> Input File <==

--------------------------------------------------------------------------
#psi4
#
memory 32 gb

molecule  {
0 1
  S       -0.7911282    -1.0171898     0.5637229
  S        0.8782890    -1.1051690    -0.5344860
  C       -3.2099880     0.3192330     0.3483480
  C        3.2100450     0.3191290    -0.3482450
  C       -1.8324130     0.2075460    -0.2961960
  C        1.8323260     0.2077250     0.2960560
  C       -4.0501360     1.4083560    -0.3151170
  C        4.0501580     1.4083440     0.3151070
  H       -3.7252280    -0.6448010     0.2732120
  H       -3.0976430     0.5365460     1.4164950
  H        3.7251890    -0.6449290    -0.2727580
  H        3.0979170     0.5361720    -1.4164690
  H       -1.9225110    -0.0397540    -1.3578050
  H       -1.2963130     1.1579500    -0.2084040
  H        1.9222090    -0.0392630     1.3577550
  H        1.2963150     1.1581420     0.2078810
  H       -4.1960450     1.1966780    -1.3784460
  H       -5.0360980     1.4800580     0.1524250
  H       -3.5647080     2.3850600    -0.2286020
  H        4.1958480     1.1969260     1.3785180
  H        5.0362170     1.4798500    -0.1522630
  H        3.5648250     2.3850640     0.2282510
units angstrom
no_reorient  #important for SAPT in psi4, default
symmetry c1  #important for SAPT in psi4, default
}

set PROPERTIES_ORIGIN ["COM"]
properties('MP2/aug-cc-pvtz', properties = ['dipole'])
--------------------------------------------------------------------------

    Molecular point group: c1
  Charge       = 0
  Multiplicity = 1
  Basis Set: AUG-CC-PVTZ
    Blend: AUG-CC-PVTZ
  Basis Set: (AUG-CC-PVTZ AUX)
    Blend: AUG-CC-PVTZ-JKFIT

    Orbital Energies [Eh]
    ---------------------

    Doubly Occupied:

       1A    -91.965504     2A    -91.961389     3A    -11.255969
       4A    -11.255617     5A    -11.233286     6A    -11.231594
       7A    -11.222483     8A    -11.221497     9A     -8.965143
      10A     -8.961293    11A     -6.646336    12A     -6.645002
      13A     -6.644160    14A     -6.642499    15A     -6.641225
      16A     -6.640376    17A     -1.108221    18A     -1.079827
      19A     -1.032121    20A     -0.963302    21A     -0.904512
      22A     -0.828069    23A     -0.806366    24A     -0.773651
      25A     -0.650230    26A     -0.647684    27A     -0.594344
      28A     -0.590239    29A     -0.584215    30A     -0.560983
      31A     -0.557501    32A     -0.536158    33A     -0.502070
      34A     -0.497437    35A     -0.488816    36A     -0.485708
      37A     -0.476781    38A     -0.467506    39A     -0.435156
      40A     -0.345661    41A     -0.342337

  @DF-RHF Final Energy: -1030.54673401968557

   => Energetics <=

    Nuclear Repulsion Energy =            532.1237473787748513
    One-Electron Energy =               -2474.5564213481029583
    Two-Electron Energy =                 911.8859399496426477
    Total Energy =                      -1030.5467340196855730
  Basis Set: (AUG-CC-PVTZ AUX)
    Blend: AUG-CC-PVTZ-RI
    Molecular point group: c1

    Geometry (in Angstrom), charge = 0, multiplicity = 1:

       Center              X                  Y                   Z               Mass
    ------------   -----------------  -----------------  -----------------  -----------------
         S           -0.809698813264    -0.956055104785     0.557498537327    31.972071174400
         S            0.859718386736    -1.044034304785    -0.540710362673    31.972071174400
         C           -3.228558613264     0.380367695215     0.342123637327    12.000000000000
         C            3.191474386736     0.380263695215    -0.354469362673    12.000000000000
         C           -1.850983613264     0.268680695215    -0.302420362673    12.000000000000
         C            1.813755386736     0.268859695215     0.289831637327    12.000000000000
         C           -4.068706613264     1.469490695215    -0.321341362673    12.000000000000
         C            4.031587386736     1.469478695215     0.308882637327    12.000000000000
         H           -3.743798613264    -0.583666304785     0.266987637327     1.007825032230
         H           -3.116213613264     0.597680695215     1.410270637327     1.007825032230
         H            3.706618386736    -0.583794304785    -0.278982362673     1.007825032230
         H            3.079346386736     0.597306695215    -1.422693362673     1.007825032230
         H           -1.941081613264     0.021380695215    -1.364029362673     1.007825032230
         H           -1.314883613264     1.219084695215    -0.214628362673     1.007825032230
         H            1.903638386736     0.021871695215     1.351530637327     1.007825032230
         H            1.277744386736     1.219276695215     0.201656637327     1.007825032230
         H           -4.214615613264     1.257812695215    -1.384670362673     1.007825032230
         H           -5.054668613264     1.541192695215     0.146200637327     1.007825032230
         H           -3.583278613264     2.446194695215    -0.234826362673     1.007825032230
         H            4.177277386736     1.258060695215     1.372293637327     1.007825032230
         H            5.017646386736     1.540984695215    -0.158487362673     1.007825032230
         H            3.546254386736     2.446198695215     0.222026637327     1.007825032230

  Basis Set: AUG-CC-PVTZ
    Blend: AUG-CC-PVTZ
  Basis Set: (AUG-CC-PVTZ AUX)
    Blend: AUG-CC-PVTZ-JKFIT
	 Reference Energy          =   -1030.5467340196855730 [Eh]
	 Singles Energy            =      -0.0000000000000000 [Eh]
	 Same-Spin Energy          =      -0.3671494797621433 [Eh]
	 Opposite-Spin Energy      =      -1.2647390173381035 [Eh]
	 Correlation Energy        =      -1.6318884971002467 [Eh]
	 Total Energy              =   -1032.1786225167857083 [Eh]

	 ================> DF-SCS-MP2 Energies <==================
	-----------------------------------------------------------
	 SCS Same-Spin Scale       =       0.3333333333333333 [-]
	 SCS Opposite-Spin Scale   =       1.2000000000000000 [-]
	 SCS Same-Spin Energy      =      -0.1223831599207144 [Eh]
	 SCS Opposite-Spin Energy  =      -1.5176868208057241 [Eh]
	 SCS Correlation Energy    =      -1.6400699807264385 [Eh]
	 SCS Total Energy          =   -1032.1868040004119393 [Eh]
	-----------------------------------------------------------

  Dipole Moment: [D]
     X:    -0.0119      Y:     2.1812      Z:    -0.0875     Total:     2.1830

*** Psi4 exiting successfully. Buy a developer a beer!
