                               Psi4 1.3.2 release

  ==> Input File <==

--------------------------------------------------------------------------
#psi4
#
memory 32 gb

molecule  {
0 1
  S       -0.8782850    -1.1051870     0.5345170
  S        0.8782890    -1.1051690    -0.5344860
  C       -3.2099880     0.3192330     0.3483480
  C        3.2100450     0.3191290    -0.3482450
  C       -1.7800777     0.1355407    -0.2506302
  C        1.8323260     0.2077250     0.2960560
  C       -4.0501360     1.4083560    -0.3151170
  C        4.0501580     1.4083440     0.3151070
  H       -3.7252280    -0.6448010     0.2732120
  H       -3.0976430     0.5365460     1.4164950
  H        3.7251890    -0.6449290    -0.2727580
  H        3.0979170     0.5361720    -1.4164690
  H       -1.9225110    -0.0397540    -1.3578050
  H       -1.2963130     1.1579500    -0.2084040
  H        1.9222090    -0.0392630     1.3577550
  H        1.2963150     1.1581420     0.2078810
  H       -4.1960450     1.1966780    -1.3784460
  H       -5.0360980     1.4800580     0.1524250
  H       -3.5647080     2.3850600    -0.2286020
  H        4.1958480     1.1969260     1.3785180
  H        5.0362170     1.4798500    -0.1522630
  H        3.5648250     2.3850640     0.2282510
units angstrom
no_reorient  #important for SAPT in psi4, default
symmetry c1  #important for SAPT in psi4, default
}

set PROPERTIES_ORIGIN ["COM"]
properties('MP2/aug-cc-pvtz', properties = ['dipole'])
--------------------------------------------------------------------------

    Molecular point group: c1
  Charge       = 0
  Multiplicity = 1
  Basis Set: AUG-CC-PVTZ
    Blend: AUG-CC-PVTZ
  Basis Set: (AUG-CC-PVTZ AUX)
    Blend: AUG-CC-PVTZ-JKFIT

    Orbital Energies [Eh]
    ---------------------

    Doubly Occupied:

       1A    -91.967071     2A    -91.966884     3A    -11.257837
       4A    -11.257613     5A    -11.234833     6A    -11.233712
       7A    -11.223015     8A    -11.222787     9A     -8.967201
      10A     -8.965946    11A     -6.648412    12A     -6.647286
      13A     -6.646964    14A     -6.646198    15A     -6.645809
      16A     -6.644925    17A     -1.108925    18A     -1.080351
      19A     -1.028141    20A     -0.970122    21A     -0.899285
      22A     -0.831845    23A     -0.804056    24A     -0.772879
      25A     -0.650067    26A     -0.640855    27A     -0.597562
      28A     -0.589601    29A     -0.582646    30A     -0.559977
      31A     -0.553489    32A     -0.537008    33A     -0.500799
      34A     -0.497560    35A     -0.489453    36A     -0.484961
      37A     -0.482911    38A     -0.464191    39A     -0.425943
      40A     -0.352862    41A     -0.342897

  @DF-RHF Final Energy: -1030.53998918907541

   => Energetics <=

    Nuclear Repulsion Energy =            530.5357121651258012
    One-Electron Energy =               -2471.3016472566978337
    Two-Electron Energy =                 910.2259459024965054
    Total Energy =                      -1030.5399891890754134
  Basis Set: (AUG-CC-PVTZ AUX)
    Blend: AUG-CC-PVTZ-RI
    Molecular point group: c1

    Geometry (in Angstrom), charge = 0, multiplicity = 1:

       Center              X                  Y                   Z               Mass
    ------------   -----------------  -----------------  -----------------  -----------------
         S           -0.882470363740    -1.019544301864     0.530871604270    31.972071174400
         S            0.874103636260    -1.019526301864    -0.538131395730    31.972071174400
         C           -3.214173363740     0.404875698136     0.344702604270    12.000000000000
         C            3.205859636260     0.404771698136    -0.351890395730    12.000000000000
         C           -1.784263063740     0.221183398136    -0.254275595730    12.000000000000
         C            1.828140636260     0.293367698136     0.292410604270    12.000000000000
         C           -4.054321363740     1.493998698136    -0.318762395730    12.000000000000
         C            4.045972636260     1.493986698136     0.311461604270    12.000000000000
         H           -3.729413363740    -0.559158301864     0.269566604270     1.007825032230
         H           -3.101828363740     0.622188698136     1.412849604270     1.007825032230
         H            3.721003636260    -0.559286301864    -0.276403395730     1.007825032230
         H            3.093731636260     0.621814698136    -1.420114395730     1.007825032230
         H           -1.926696363740     0.045888698136    -1.361450395730     1.007825032230
         H           -1.300498363740     1.243592698136    -0.212049395730     1.007825032230
         H            1.918023636260     0.046379698136     1.354109604270     1.007825032230
         H            1.292129636260     1.243784698136     0.204235604270     1.007825032230
         H           -4.200230363740     1.282320698136    -1.382091395730     1.007825032230
         H           -5.040283363740     1.565700698136     0.148779604270     1.007825032230
         H           -3.568893363740     2.470702698136    -0.232247395730     1.007825032230
         H            4.191662636260     1.282568698136     1.374872604270     1.007825032230
         H            5.032031636260     1.565492698136    -0.155908395730     1.007825032230
         H            3.560639636260     2.470706698136     0.224605604270     1.007825032230

  Basis Set: AUG-CC-PVTZ
    Blend: AUG-CC-PVTZ
  Basis Set: (AUG-CC-PVTZ AUX)
    Blend: AUG-CC-PVTZ-JKFIT
	 Reference Energy          =   -1030.5399891890754134 [Eh]
	 Singles Energy            =      -0.0000000000000000 [Eh]
	 Same-Spin Energy          =      -0.3671696040577186 [Eh]
	 Opposite-Spin Energy      =      -1.2653841587236501 [Eh]
	 Correlation Energy        =      -1.6325537627813687 [Eh]
	 Total Energy              =   -1032.1725429518567125 [Eh]

	 ================> DF-SCS-MP2 Energies <==================
	-----------------------------------------------------------
	 SCS Same-Spin Scale       =       0.3333333333333333 [-]
	 SCS Opposite-Spin Scale   =       1.2000000000000000 [-]
	 SCS Same-Spin Energy      =      -0.1223898680192395 [Eh]
	 SCS Opposite-Spin Energy  =      -1.5184609904683801 [Eh]
	 SCS Correlation Energy    =      -1.6408508584876196 [Eh]
	 SCS Total Energy          =   -1032.1808400475629242 [Eh]
	-----------------------------------------------------------

  Dipole Moment: [D]
     X:     0.0812      Y:     2.2182      Z:     0.0288     Total:     2.2199

*** Psi4 exiting successfully. Buy a developer a beer!
