                               Psi4 1.3.2 release

  ==> Input File <==

--------------------------------------------------------------------------
#psi4
#
memory 32 gb

molecule  {
0 1
  S       -1.0175970    -1.2250657     0.4831696
  S        0.8782890    -1.1051690    -0.5344860
  C       -3.2099880     0.3192330     0.3483480
  C        3.2100450     0.3191290    -0.3482450
  C       -1.8324130     0.2075460    -0.2961960
  C        1.8323260     0.2077250     0.2960560
  C       -4.0501360     1.4083560    -0.3151170
  C        4.0501580     1.4083440     0.3151070
  H       -3.7252280    -0.6448010     0.2732120
  H       -3.0976430     0.5365460     1.4164950
  H        3.7251890    -0.6449290    -0.2727580
  H        3.0979170     0.5361720    -1.4164690
  H       -1.9225110    -0.0397540    -1.3578050
  H       -1.2963130     1.1579500    -0.2084040
  H        1.9222090    -0.0392630     1.3577550
  H        1.2963150     1.1581420     0.2078810
  H       -4.1960450     1.1966780    -1.3784460
  H       -5.0360980     1.4800580     0.1524250
  H       -3.5647080     2.3850600    -0.2286020
  H        4.1958480     1.1969260     1.3785180
  H        5.0362170     1.4798500    -0.1522630
  H        3.5648250     2.3850640     0.2282510
units angstrom
no_reorient  #important for SAPT in psi4, default
symmetry c1  #important for SAPT in psi4, default
}

set PROPERTIES_ORIGIN ["COM"]
properties('MP2/aug-cc-pvtz', properties = ['dipole'])
--------------------------------------------------------------------------

    Molecular point group: c1
  Charge       = 0
  Multiplicity = 1
  Basis Set: AUG-CC-PVTZ
    Blend: AUG-CC-PVTZ
  Basis Set: (AUG-CC-PVTZ AUX)
    Blend: AUG-CC-PVTZ-JKFIT

    Orbital Energies [Eh]
    ---------------------

    Doubly Occupied:

       1A    -91.972291     2A    -91.966333     3A    -11.258963
       4A    -11.258080     5A    -11.234790     6A    -11.232501
       7A    -11.223477     8A    -11.221884     9A     -8.969656
      10A     -8.964017    11A     -6.650523    12A     -6.649386
      13A     -6.648448    14A     -6.644917    15A     -6.643908
      16A     -6.642925    17A     -1.098711    18A     -1.082495
      19A     -1.015725    20A     -0.966064    21A     -0.895150
      22A     -0.830102    23A     -0.806479    24A     -0.780600
      25A     -0.650861    26A     -0.648917    27A     -0.591818
      28A     -0.588796    29A     -0.582474    30A     -0.560799
      31A     -0.558092    32A     -0.538480    33A     -0.501205
      34A     -0.496367    35A     -0.488057    36A     -0.486739
      37A     -0.474588    38A     -0.458548    39A     -0.419222
      40A     -0.358256    41A     -0.339647

  @DF-RHF Final Energy: -1030.54252726779919

   => Energetics <=

    Nuclear Repulsion Energy =            524.6106583176541562
    One-Electron Energy =               -2459.5057860561464622
    Two-Electron Energy =                 904.3526004706928916
    Total Energy =                      -1030.5425272677994144
  Basis Set: (AUG-CC-PVTZ AUX)
    Blend: AUG-CC-PVTZ-RI
    Molecular point group: c1

    Geometry (in Angstrom), charge = 0, multiplicity = 1:

       Center              X                  Y                   Z               Mass
    ------------   -----------------  -----------------  -----------------  -----------------
         S           -0.987913708563    -1.119638705501     0.494108799202    31.972071174400
         S            0.907972291437    -0.999742005501    -0.523546800798    31.972071174400
         C           -3.180304708563     0.424659994499     0.359287199202    12.000000000000
         C            3.239728291437     0.424555994499    -0.337305800798    12.000000000000
         C           -1.802729708563     0.312972994499    -0.285256800798    12.000000000000
         C            1.862009291437     0.313151994499     0.306995199202    12.000000000000
         C           -4.020452708563     1.513782994499    -0.304177800798    12.000000000000
         C            4.079841291437     1.513770994499     0.326046199202    12.000000000000
         H           -3.695544708563    -0.539374005501     0.284151199202     1.007825032230
         H           -3.067959708563     0.641972994499     1.427434199202     1.007825032230
         H            3.754872291437    -0.539502005501    -0.261818800798     1.007825032230
         H            3.127600291437     0.641598994499    -1.405529800798     1.007825032230
         H           -1.892827708563     0.065672994499    -1.346865800798     1.007825032230
         H           -1.266629708563     1.263376994499    -0.197464800798     1.007825032230
         H            1.951892291437     0.066163994499     1.368694199202     1.007825032230
         H            1.325998291437     1.263568994499     0.218820199202     1.007825032230
         H           -4.166361708563     1.302104994499    -1.367506800798     1.007825032230
         H           -5.006414708563     1.585484994499     0.163364199202     1.007825032230
         H           -3.535024708563     2.490486994499    -0.217662800798     1.007825032230
         H            4.225531291437     1.302352994499     1.389457199202     1.007825032230
         H            5.065900291437     1.585276994499    -0.141323800798     1.007825032230
         H            3.594508291437     2.490490994499     0.239190199202     1.007825032230

  Basis Set: AUG-CC-PVTZ
    Blend: AUG-CC-PVTZ
  Basis Set: (AUG-CC-PVTZ AUX)
    Blend: AUG-CC-PVTZ-JKFIT
	 Reference Energy          =   -1030.5425272677991870 [Eh]
	 Singles Energy            =      -0.0000000000000000 [Eh]
	 Same-Spin Energy          =      -0.3658343969461595 [Eh]
	 Opposite-Spin Energy      =      -1.2654405511807512 [Eh]
	 Correlation Energy        =      -1.6312749481269107 [Eh]
	 Total Energy              =   -1032.1738022159261163 [Eh]

	 ================> DF-SCS-MP2 Energies <==================
	-----------------------------------------------------------
	 SCS Same-Spin Scale       =       0.3333333333333333 [-]
	 SCS Opposite-Spin Scale   =       1.2000000000000000 [-]
	 SCS Same-Spin Energy      =      -0.1219447989820532 [Eh]
	 SCS Opposite-Spin Energy  =      -1.5185286614169013 [Eh]
	 SCS Correlation Energy    =      -1.6404734603989546 [Eh]
	 SCS Total Energy          =   -1032.1830007281980670 [Eh]
	-----------------------------------------------------------

  Dipole Moment: [D]
     X:     0.0340      Y:     2.3910      Z:     0.1154     Total:     2.3940

*** Psi4 exiting successfully. Buy a developer a beer!
