                               Psi4 1.3.2 release

  ==> Input File <==

--------------------------------------------------------------------------
#psi4
#
memory 32 gb

molecule  {
0 1
  S       -0.9280616    -1.1156201     0.5727645
  S        0.8782890    -1.1051690    -0.5344860
  C       -3.2099880     0.3192330     0.3483480
  C        3.2100450     0.3191290    -0.3482450
  C       -1.8324130     0.2075460    -0.2961960
  C        1.8323260     0.2077250     0.2960560
  C       -4.0501360     1.4083560    -0.3151170
  C        4.0501580     1.4083440     0.3151070
  H       -3.7252280    -0.6448010     0.2732120
  H       -3.0976430     0.5365460     1.4164950
  H        3.7251890    -0.6449290    -0.2727580
  H        3.0979170     0.5361720    -1.4164690
  H       -1.9225110    -0.0397540    -1.3578050
  H       -1.2963130     1.1579500    -0.2084040
  H        1.9222090    -0.0392630     1.3577550
  H        1.2963150     1.1581420     0.2078810
  H       -4.1960450     1.1966780    -1.3784460
  H       -5.0360980     1.4800580     0.1524250
  H       -3.5647080     2.3850600    -0.2286020
  H        4.1958480     1.1969260     1.3785180
  H        5.0362170     1.4798500    -0.1522630
  H        3.5648250     2.3850640     0.2282510
units angstrom
no_reorient  #important for SAPT in psi4, default
symmetry c1  #important for SAPT in psi4, default
}

set PROPERTIES_ORIGIN ["COM"]
properties('MP2/aug-cc-pvtz', properties = ['dipole'])
--------------------------------------------------------------------------

    Molecular point group: c1
  Charge       = 0
  Multiplicity = 1
  Basis Set: AUG-CC-PVTZ
    Blend: AUG-CC-PVTZ
  Basis Set: (AUG-CC-PVTZ AUX)
    Blend: AUG-CC-PVTZ-JKFIT

    Orbital Energies [Eh]
    ---------------------

    Doubly Occupied:

       1A    -91.969147     2A    -91.966950     3A    -11.257554
       4A    -11.257545     5A    -11.233369     6A    -11.232437
       7A    -11.222547     8A    -11.221939     9A     -8.967063
      10A     -8.964972    11A     -6.648009    12A     -6.646871
      13A     -6.645953    14A     -6.645911    15A     -6.644846
      16A     -6.643908    17A     -1.100172    18A     -1.081466
      19A     -1.019475    20A     -0.964919    21A     -0.896908
      22A     -0.829061    23A     -0.805870    24A     -0.779652
      25A     -0.650466    26A     -0.648259    27A     -0.591377
      28A     -0.588953    29A     -0.582923    30A     -0.560626
      31A     -0.557529    32A     -0.537899    33A     -0.501219
      34A     -0.496024    35A     -0.487949    36A     -0.485980
      37A     -0.473534    38A     -0.462339    39A     -0.424074
      40A     -0.352031    41A     -0.344636

  @DF-RHF Final Energy: -1030.54714508609595

   => Energetics <=

    Nuclear Repulsion Energy =            526.8919485878204796
    One-Electron Energy =               -2464.0934581700043964
    Two-Electron Energy =                 906.6543644960880783
    Total Energy =                      -1030.5471450860959521
  Basis Set: (AUG-CC-PVTZ AUX)
    Blend: AUG-CC-PVTZ-RI
    Molecular point group: c1

    Geometry (in Angstrom), charge = 0, multiplicity = 1:

       Center              X                  Y                   Z               Mass
    ------------   -----------------  -----------------  -----------------  -----------------
         S           -0.917455694317    -1.033512774931     0.564613635730    31.972071174400
         S            0.888894905683    -1.023061674931    -0.542636864270    31.972071174400
         C           -3.199382094317     0.401340325069     0.340197135730    12.000000000000
         C            3.220650905683     0.401236325069    -0.356395864270    12.000000000000
         C           -1.821807094317     0.289653325069    -0.304346864270    12.000000000000
         C            1.842931905683     0.289832325069     0.287905135730    12.000000000000
         C           -4.039530094317     1.490463325069    -0.323267864270    12.000000000000
         C            4.060763905683     1.490451325069     0.306956135730    12.000000000000
         H           -3.714622094317    -0.562693674931     0.265061135730     1.007825032230
         H           -3.087037094317     0.618653325069     1.408344135730     1.007825032230
         H            3.735794905683    -0.562821674931    -0.280908864270     1.007825032230
         H            3.108522905683     0.618279325069    -1.424619864270     1.007825032230
         H           -1.911905094317     0.042353325069    -1.365955864270     1.007825032230
         H           -1.285707094317     1.240057325069    -0.216554864270     1.007825032230
         H            1.932814905683     0.042844325069     1.349604135730     1.007825032230
         H            1.306920905683     1.240249325069     0.199730135730     1.007825032230
         H           -4.185439094317     1.278785325069    -1.386596864270     1.007825032230
         H           -5.025492094317     1.562165325069     0.144274135730     1.007825032230
         H           -3.554102094317     2.467167325069    -0.236752864270     1.007825032230
         H            4.206453905683     1.279033325069     1.370367135730     1.007825032230
         H            5.046822905683     1.561957325069    -0.160413864270     1.007825032230
         H            3.575430905683     2.467171325069     0.220100135730     1.007825032230

  Basis Set: AUG-CC-PVTZ
    Blend: AUG-CC-PVTZ
  Basis Set: (AUG-CC-PVTZ AUX)
    Blend: AUG-CC-PVTZ-JKFIT
	 Reference Energy          =   -1030.5471450860959521 [Eh]
	 Singles Energy            =      -0.0000000000000000 [Eh]
	 Same-Spin Energy          =      -0.3660554301550730 [Eh]
	 Opposite-Spin Energy      =      -1.2651521803231387 [Eh]
	 Correlation Energy        =      -1.6312076104782118 [Eh]
	 Total Energy              =   -1032.1783526965741657 [Eh]

	 ================> DF-SCS-MP2 Energies <==================
	-----------------------------------------------------------
	 SCS Same-Spin Scale       =       0.3333333333333333 [-]
	 SCS Opposite-Spin Scale   =       1.2000000000000000 [-]
	 SCS Same-Spin Energy      =      -0.1220184767183577 [Eh]
	 SCS Opposite-Spin Energy  =      -1.5181826163877663 [Eh]
	 SCS Correlation Energy    =      -1.6402010931061239 [Eh]
	 SCS Total Energy          =   -1032.1873461792019953 [Eh]
	-----------------------------------------------------------

  Dipole Moment: [D]
     X:     0.0091      Y:     2.2883      Z:     0.0046     Total:     2.2883

*** Psi4 exiting successfully. Buy a developer a beer!
