                               Psi4 1.3.2 release

  ==> Input File <==

--------------------------------------------------------------------------
#psi4
#
memory 32 gb

molecule  {
0 1
  S       -0.7361653    -1.0643520     0.4138945
  S        0.8782890    -1.1051690    -0.5344860
  C       -3.2099880     0.3192330     0.3483480
  C        3.2100450     0.3191290    -0.3482450
  C       -1.8324130     0.2075460    -0.2961960
  C        1.8323260     0.2077250     0.2960560
  C       -4.0501360     1.4083560    -0.3151170
  C        4.0501580     1.4083440     0.3151070
  H       -3.7252280    -0.6448010     0.2732120
  H       -3.0976430     0.5365460     1.4164950
  H        3.7251890    -0.6449290    -0.2727580
  H        3.0979170     0.5361720    -1.4164690
  H       -1.9225110    -0.0397540    -1.3578050
  H       -1.2963130     1.1579500    -0.2084040
  H        1.9222090    -0.0392630     1.3577550
  H        1.2963150     1.1581420     0.2078810
  H       -4.1960450     1.1966780    -1.3784460
  H       -5.0360980     1.4800580     0.1524250
  H       -3.5647080     2.3850600    -0.2286020
  H        4.1958480     1.1969260     1.3785180
  H        5.0362170     1.4798500    -0.1522630
  H        3.5648250     2.3850640     0.2282510
units angstrom
no_reorient  #important for SAPT in psi4, default
symmetry c1  #important for SAPT in psi4, default
}

set PROPERTIES_ORIGIN ["COM"]
properties('MP2/aug-cc-pvtz', properties = ['dipole'])
--------------------------------------------------------------------------

    Molecular point group: c1
  Charge       = 0
  Multiplicity = 1
  Basis Set: AUG-CC-PVTZ
    Blend: AUG-CC-PVTZ
  Basis Set: (AUG-CC-PVTZ AUX)
    Blend: AUG-CC-PVTZ-JKFIT

    Orbital Energies [Eh]
    ---------------------

    Doubly Occupied:

       1A    -91.962191     2A    -91.954288     3A    -11.254068
       4A    -11.253730     5A    -11.234666     6A    -11.231423
       7A    -11.223268     8A    -11.221376     9A     -8.964446
      10A     -8.957056    11A     -6.646094    12A     -6.644157
      13A     -6.643478    14A     -6.638709    15A     -6.636954
      16A     -6.636225    17A     -1.123815    18A     -1.078992
      19A     -1.045490    20A     -0.962629    21A     -0.914004
      22A     -0.828175    23A     -0.808772    24A     -0.764398
      25A     -0.650186    26A     -0.647965    27A     -0.602702
      28A     -0.591111    29A     -0.584862    30A     -0.561439
      31A     -0.558583    32A     -0.534265    33A     -0.503784
      34A     -0.500666    35A     -0.492312    36A     -0.486050
      37A     -0.483944    38A     -0.469613    39A     -0.445248
      40A     -0.343529    41A     -0.332018

  @DF-RHF Final Energy: -1030.53253775116332

   => Energetics <=

    Nuclear Repulsion Energy =            536.6467861773304548
    One-Electron Energy =               -2483.5252895313456065
    Two-Electron Energy =                 916.3459656028519476
    Total Energy =                      -1030.5325377511633178
  Basis Set: (AUG-CC-PVTZ AUX)
    Blend: AUG-CC-PVTZ-RI
    Molecular point group: c1

    Geometry (in Angstrom), charge = 0, multiplicity = 1:

       Center              X                  Y                   Z               Mass
    ------------   -----------------  -----------------  -----------------  -----------------
         S           -0.766446906295    -0.993168413705     0.439594205168    31.972071174400
         S            0.848007393705    -1.033985413705    -0.508786294832    31.972071174400
         C           -3.240269606295     0.390416586295     0.374047705168    12.000000000000
         C            3.179763393705     0.390312586295    -0.322545294832    12.000000000000
         C           -1.862694606295     0.278729586295    -0.270496294832    12.000000000000
         C            1.802044393705     0.278908586295     0.321755705168    12.000000000000
         C           -4.080417606295     1.479539586295    -0.289417294832    12.000000000000
         C            4.019876393705     1.479527586295     0.340806705168    12.000000000000
         H           -3.755509606295    -0.573617413705     0.298911705168     1.007825032230
         H           -3.127924606295     0.607729586295     1.442194705168     1.007825032230
         H            3.694907393705    -0.573745413705    -0.247058294832     1.007825032230
         H            3.067635393705     0.607355586295    -1.390769294832     1.007825032230
         H           -1.952792606295     0.031429586295    -1.332105294832     1.007825032230
         H           -1.326594606295     1.229133586295    -0.182704294832     1.007825032230
         H            1.891927393705     0.031920586295     1.383454705168     1.007825032230
         H            1.266033393705     1.229325586295     0.233580705168     1.007825032230
         H           -4.226326606295     1.267861586295    -1.352746294832     1.007825032230
         H           -5.066379606295     1.551241586295     0.178124705168     1.007825032230
         H           -3.594989606295     2.456243586295    -0.202902294832     1.007825032230
         H            4.165566393705     1.268109586295     1.404217705168     1.007825032230
         H            5.005935393705     1.551033586295    -0.126563294832     1.007825032230
         H            3.534543393705     2.456247586295     0.253950705168     1.007825032230

  Basis Set: AUG-CC-PVTZ
    Blend: AUG-CC-PVTZ
  Basis Set: (AUG-CC-PVTZ AUX)
    Blend: AUG-CC-PVTZ-JKFIT
	 Reference Energy          =   -1030.5325377511633178 [Eh]
	 Singles Energy            =      -0.0000000000000000 [Eh]
	 Same-Spin Energy          =      -0.3686706269936376 [Eh]
	 Opposite-Spin Energy      =      -1.2646906865565395 [Eh]
	 Correlation Energy        =      -1.6333613135501772 [Eh]
	 Total Energy              =   -1032.1658990647135852 [Eh]

	 ================> DF-SCS-MP2 Energies <==================
	-----------------------------------------------------------
	 SCS Same-Spin Scale       =       0.3333333333333333 [-]
	 SCS Opposite-Spin Scale   =       1.2000000000000000 [-]
	 SCS Same-Spin Energy      =      -0.1228902089978792 [Eh]
	 SCS Opposite-Spin Energy  =      -1.5176288238678473 [Eh]
	 SCS Correlation Energy    =      -1.6405190328657264 [Eh]
	 SCS Total Energy          =   -1032.1730567840290860 [Eh]
	-----------------------------------------------------------

  Dipole Moment: [D]
     X:    -0.0109      Y:     2.1842      Z:    -0.0269     Total:     2.1844

*** Psi4 exiting successfully. Buy a developer a beer!
