                               Psi4 1.3.2 release

  ==> Input File <==

--------------------------------------------------------------------------
#psi4
#
memory 32 gb

molecule  {
0 1
  S       -0.8235732    -0.9995294     0.6147855
  S        0.8782890    -1.1051690    -0.5344860
  C       -3.2099880     0.3192330     0.3483480
  C        3.2100450     0.3191290    -0.3482450
  C       -1.8324130     0.2075460    -0.2961960
  C        1.8323260     0.2077250     0.2960560
  C       -4.0501360     1.4083560    -0.3151170
  C        4.0501580     1.4083440     0.3151070
  H       -3.7252280    -0.6448010     0.2732120
  H       -3.0976430     0.5365460     1.4164950
  H        3.7251890    -0.6449290    -0.2727580
  H        3.0979170     0.5361720    -1.4164690
  H       -1.9225110    -0.0397540    -1.3578050
  H       -1.2963130     1.1579500    -0.2084040
  H        1.9222090    -0.0392630     1.3577550
  H        1.2963150     1.1581420     0.2078810
  H       -4.1960450     1.1966780    -1.3784460
  H       -5.0360980     1.4800580     0.1524250
  H       -3.5647080     2.3850600    -0.2286020
  H        4.1958480     1.1969260     1.3785180
  H        5.0362170     1.4798500    -0.1522630
  H        3.5648250     2.3850640     0.2282510
units angstrom
no_reorient  #important for SAPT in psi4, default
symmetry c1  #important for SAPT in psi4, default
}

set PROPERTIES_ORIGIN ["COM"]
properties('MP2/aug-cc-pvtz', properties = ['dipole'])
--------------------------------------------------------------------------

    Molecular point group: c1
  Charge       = 0
  Multiplicity = 1
  Basis Set: AUG-CC-PVTZ
    Blend: AUG-CC-PVTZ
  Basis Set: (AUG-CC-PVTZ AUX)
    Blend: AUG-CC-PVTZ-JKFIT

    Orbital Energies [Eh]
    ---------------------

    Doubly Occupied:

       1A    -91.966760     2A    -91.964101     3A    -11.256221
       4A    -11.256211     5A    -11.232815     6A    -11.231748
       7A    -11.222123     8A    -11.221577     9A     -8.965568
      10A     -8.963176    11A     -6.646624    12A     -6.645436
      13A     -6.644536    14A     -6.644243    15A     -6.643075
      16A     -6.642181    17A     -1.104402    18A     -1.080465
      19A     -1.026280    20A     -0.964084    21A     -0.900227
      22A     -0.828382    23A     -0.805493    24A     -0.777078
      25A     -0.650334    26A     -0.647682    27A     -0.591982
      28A     -0.589849    29A     -0.583596    30A     -0.560876
      31A     -0.557238    32A     -0.537009    33A     -0.501631
      34A     -0.496510    35A     -0.488339    36A     -0.485564
      37A     -0.473144    38A     -0.466763    39A     -0.430337
      40A     -0.348586    41A     -0.343591

  @DF-RHF Final Energy: -1030.54722893027906

   => Energetics <=

    Nuclear Repulsion Energy =            530.3600914486279407
    One-Electron Energy =               -2471.0429648880108289
    Two-Electron Energy =                 910.1356445091040541
    Total Energy =                      -1030.5472289302788340
  Basis Set: (AUG-CC-PVTZ AUX)
    Blend: AUG-CC-PVTZ-RI
    Molecular point group: c1

    Geometry (in Angstrom), charge = 0, multiplicity = 1:

       Center              X                  Y                   Z               Mass
    ------------   -----------------  -----------------  -----------------  -----------------
         S           -0.835230728821    -0.942157621614     0.597681184617    31.972071174400
         S            0.866631471179    -1.047797221614    -0.551590315383    31.972071174400
         C           -3.221645528821     0.376604778386     0.331243684617    12.000000000000
         C            3.198387471179     0.376500778386    -0.365349315383    12.000000000000
         C           -1.844070528821     0.264917778386    -0.313300315383    12.000000000000
         C            1.820668471179     0.265096778386     0.278951684617    12.000000000000
         C           -4.061793528821     1.465727778386    -0.332221315383    12.000000000000
         C            4.038500471179     1.465715778386     0.298002684617    12.000000000000
         H           -3.736885528821    -0.587429221614     0.256107684617     1.007825032230
         H           -3.109300528821     0.593917778386     1.399390684617     1.007825032230
         H            3.713531471179    -0.587557221614    -0.289862315383     1.007825032230
         H            3.086259471179     0.593543778386    -1.433573315383     1.007825032230
         H           -1.934168528821     0.017617778386    -1.374909315383     1.007825032230
         H           -1.307970528821     1.215321778386    -0.225508315383     1.007825032230
         H            1.910551471179     0.018108778386     1.340650684617     1.007825032230
         H            1.284657471179     1.215513778386     0.190776684617     1.007825032230
         H           -4.207702528821     1.254049778386    -1.395550315383     1.007825032230
         H           -5.047755528821     1.537429778386     0.135320684617     1.007825032230
         H           -3.576365528821     2.442431778386    -0.245706315383     1.007825032230
         H            4.184190471179     1.254297778386     1.361413684617     1.007825032230
         H            5.024559471179     1.537221778386    -0.169367315383     1.007825032230
         H            3.553167471179     2.442435778386     0.211146684617     1.007825032230

  Basis Set: AUG-CC-PVTZ
    Blend: AUG-CC-PVTZ
  Basis Set: (AUG-CC-PVTZ AUX)
    Blend: AUG-CC-PVTZ-JKFIT
	 Reference Energy          =   -1030.5472289302790614 [Eh]
	 Singles Energy            =      -0.0000000000000000 [Eh]
	 Same-Spin Energy          =      -0.3667315580049472 [Eh]
	 Opposite-Spin Energy      =      -1.2650819602094288 [Eh]
	 Correlation Energy        =      -1.6318135182143760 [Eh]
	 Total Energy              =   -1032.1790424484934192 [Eh]

	 ================> DF-SCS-MP2 Energies <==================
	-----------------------------------------------------------
	 SCS Same-Spin Scale       =       0.3333333333333333 [-]
	 SCS Opposite-Spin Scale   =       1.2000000000000000 [-]
	 SCS Same-Spin Energy      =      -0.1222438526683157 [Eh]
	 SCS Opposite-Spin Energy  =      -1.5180983522513145 [Eh]
	 SCS Correlation Energy    =      -1.6403422049196301 [Eh]
	 SCS Total Energy          =   -1032.1875711351985956 [Eh]
	-----------------------------------------------------------

  Dipole Moment: [D]
     X:    -0.0127      Y:     2.1811      Z:    -0.1015     Total:     2.1835

*** Psi4 exiting successfully. Buy a developer a beer!
