                               Psi4 1.3.2 release

  ==> Input File <==

--------------------------------------------------------------------------
#psi4
#
memory 32 gb

molecule  {
0 1
  S       -0.8906353    -1.1316215     0.5136203
  S        0.8782890    -1.1051690    -0.5344860
  C       -3.2099880     0.3192330     0.3483480
  C        3.2100450     0.3191290    -0.3482450
  C       -1.8324130     0.2075460    -0.2961960
  C        1.8323260     0.2077250     0.2960560
  C       -4.0501360     1.4083560    -0.3151170
  C        4.0501580     1.4083440     0.3151070
  H       -3.7252280    -0.6448010     0.2732120
  H       -3.0976430     0.5365460     1.4164950
  H        3.7251890    -0.6449290    -0.2727580
  H        3.0979170     0.5361720    -1.4164690
  H       -1.9225110    -0.0397540    -1.3578050
  H       -1.2963130     1.1579500    -0.2084040
  H        1.9222090    -0.0392630     1.3577550
  H        1.2963150     1.1581420     0.2078810
  H       -4.1960450     1.1966780    -1.3784460
  H       -5.0360980     1.4800580     0.1524250
  H       -3.5647080     2.3850600    -0.2286020
  H        4.1958480     1.1969260     1.3785180
  H        5.0362170     1.4798500    -0.1522630
  H        3.5648250     2.3850640     0.2282510
units angstrom
no_reorient  #important for SAPT in psi4, default
symmetry c1  #important for SAPT in psi4, default
}

set PROPERTIES_ORIGIN ["COM"]
properties('MP2/aug-cc-pvtz', properties = ['dipole'])
--------------------------------------------------------------------------

    Molecular point group: c1
  Charge       = 0
  Multiplicity = 1
  Basis Set: AUG-CC-PVTZ
    Blend: AUG-CC-PVTZ
  Basis Set: (AUG-CC-PVTZ AUX)
    Blend: AUG-CC-PVTZ-JKFIT

    Orbital Energies [Eh]
    ---------------------

    Doubly Occupied:

       1A    -91.966440     2A    -91.965637     3A    -11.257203
       4A    -11.257084     5A    -11.233256     6A    -11.233009
       7A    -11.222495     8A    -11.222364     9A     -8.965115
      10A     -8.964388    11A     -6.646214    12A     -6.645449
      13A     -6.644964    14A     -6.644283    15A     -6.644095
      16A     -6.643405    17A     -1.103040    18A     -1.080874
      19A     -1.025799    20A     -0.964281    21A     -0.901815
      22A     -0.828774    23A     -0.806720    24A     -0.776100
      25A     -0.650392    26A     -0.648276    27A     -0.593570
      28A     -0.589315    29A     -0.584191    30A     -0.560780
      31A     -0.557897    32A     -0.536890    33A     -0.501631
      34A     -0.496707    35A     -0.488289    36A     -0.486187
      37A     -0.477709    38A     -0.462397    39A     -0.430133
      40A     -0.352083    41A     -0.340748

  @DF-RHF Final Energy: -1030.54924328277298

   => Energetics <=

    Nuclear Repulsion Energy =            528.7743657186083510
    One-Electron Energy =               -2467.8472248533385027
    Two-Electron Energy =                 908.5236158519571745
    Total Energy =                      -1030.5492432827729772
  Basis Set: (AUG-CC-PVTZ AUX)
    Blend: AUG-CC-PVTZ-RI
    Molecular point group: c1

    Geometry (in Angstrom), charge = 0, multiplicity = 1:

       Center              X                  Y                   Z               Mass
    ------------   -----------------  -----------------  -----------------  -----------------
         S           -0.888003848695    -1.046104742680     0.518071341999    31.972071174400
         S            0.880920451305    -1.019652242680    -0.530034958001    31.972071174400
         C           -3.207356548695     0.404749757320     0.352799041999    12.000000000000
         C            3.212676451305     0.404645757320    -0.343793958001    12.000000000000
         C           -1.829781548695     0.293062757320    -0.291744958001    12.000000000000
         C            1.834957451305     0.293241757320     0.300507041999    12.000000000000
         C           -4.047504548695     1.493872757320    -0.310665958001    12.000000000000
         C            4.052789451305     1.493860757320     0.319558041999    12.000000000000
         H           -3.722596548695    -0.559284242680     0.277663041999     1.007825032230
         H           -3.095011548695     0.622062757320     1.420946041999     1.007825032230
         H            3.727820451305    -0.559412242680    -0.268306958001     1.007825032230
         H            3.100548451305     0.621688757320    -1.412017958001     1.007825032230
         H           -1.919879548695     0.045762757320    -1.353353958001     1.007825032230
         H           -1.293681548695     1.243466757320    -0.203952958001     1.007825032230
         H            1.924840451305     0.046253757320     1.362206041999     1.007825032230
         H            1.298946451305     1.243658757320     0.212332041999     1.007825032230
         H           -4.193413548695     1.282194757320    -1.373994958001     1.007825032230
         H           -5.033466548695     1.565574757320     0.156876041999     1.007825032230
         H           -3.562076548695     2.470576757320    -0.224150958001     1.007825032230
         H            4.198479451305     1.282442757320     1.382969041999     1.007825032230
         H            5.038848451305     1.565366757320    -0.147811958001     1.007825032230
         H            3.567456451305     2.470580757320     0.232702041999     1.007825032230

  Basis Set: AUG-CC-PVTZ
    Blend: AUG-CC-PVTZ
  Basis Set: (AUG-CC-PVTZ AUX)
    Blend: AUG-CC-PVTZ-JKFIT
	 Reference Energy          =   -1030.5492432827729772 [Eh]
	 Singles Energy            =      -0.0000000000000000 [Eh]
	 Same-Spin Energy          =      -0.3663912711492847 [Eh]
	 Opposite-Spin Energy      =      -1.2645361908302033 [Eh]
	 Correlation Energy        =      -1.6309274619794880 [Eh]
	 Total Energy              =   -1032.1801707447525587 [Eh]

	 ================> DF-SCS-MP2 Energies <==================
	-----------------------------------------------------------
	 SCS Same-Spin Scale       =       0.3333333333333333 [-]
	 SCS Opposite-Spin Scale   =       1.2000000000000000 [-]
	 SCS Same-Spin Energy      =      -0.1221304237164282 [Eh]
	 SCS Opposite-Spin Energy  =      -1.5174434289962440 [Eh]
	 SCS Correlation Energy    =      -1.6395738527126722 [Eh]
	 SCS Total Energy          =   -1032.1888171354855785 [Eh]
	-----------------------------------------------------------

  Dipole Moment: [D]
     X:     0.0023      Y:     2.2918      Z:     0.0260     Total:     2.2920

*** Psi4 exiting successfully. Buy a developer a beer!
