                               Psi4 1.3.2 release

  ==> Input File <==

--------------------------------------------------------------------------
#psi4
#
memory 32 gb

molecule  {
0 1
  S       -0.9700902    -1.1867887     0.5012640
  S        0.8782890    -1.1051690    -0.5344860
  C       -3.2099880     0.3192330     0.3483480
  C        3.2100450     0.3191290    -0.3482450
  C       -1.8324130     0.2075460    -0.2961960
  C        1.8323260     0.2077250     0.2960560
  C       -4.0501360     1.4083560    -0.3151170
  C        4.0501580     1.4083440     0.3151070
  H       -3.7252280    -0.6448010     0.2732120
  H       -3.0976430     0.5365460     1.4164950
  H        3.7251890    -0.6449290    -0.2727580
  H        3.0979170     0.5361720    -1.4164690
  H       -1.9225110    -0.0397540    -1.3578050
  H       -1.2963130     1.1579500    -0.2084040
  H        1.9222090    -0.0392630     1.3577550
  H        1.2963150     1.1581420     0.2078810
  H       -4.1960450     1.1966780    -1.3784460
  H       -5.0360980     1.4800580     0.1524250
  H       -3.5647080     2.3850600    -0.2286020
  H        4.1958480     1.1969260     1.3785180
  H        5.0362170     1.4798500    -0.1522630
  H        3.5648250     2.3850640     0.2282510
units angstrom
no_reorient  #important for SAPT in psi4, default
symmetry c1  #important for SAPT in psi4, default
}

set PROPERTIES_ORIGIN ["COM"]
properties('MP2/aug-cc-pvtz', properties = ['dipole'])
--------------------------------------------------------------------------

    Molecular point group: c1
  Charge       = 0
  Multiplicity = 1
  Basis Set: AUG-CC-PVTZ
    Blend: AUG-CC-PVTZ
  Basis Set: (AUG-CC-PVTZ AUX)
    Blend: AUG-CC-PVTZ-JKFIT

    Orbital Energies [Eh]
    ---------------------

    Doubly Occupied:

       1A    -91.970222     2A    -91.966213     3A    -11.258278
       4A    -11.257708     5A    -11.234223     6A    -11.232647
       7A    -11.223106     8A    -11.222047     9A     -8.968010
      10A     -8.964223    11A     -6.648944    12A     -6.647799
      13A     -6.646880    14A     -6.645178    15A     -6.644115
      16A     -6.643169    17A     -1.099956    18A     -1.081941
      19A     -1.019123    20A     -0.965478    21A     -0.897477
      22A     -0.829592    23A     -0.806497    24A     -0.779125
      25A     -0.650679    26A     -0.648679    27A     -0.592247
      28A     -0.588930    29A     -0.583290    30A     -0.560769
      31A     -0.558002    32A     -0.537894    33A     -0.501320
      34A     -0.496377    35A     -0.488052    36A     -0.486471
      37A     -0.475728    38A     -0.459878    39A     -0.423337
      40A     -0.356138    41A     -0.340361

  @DF-RHF Final Energy: -1030.54614637136910

   => Energetics <=

    Nuclear Repulsion Energy =            526.1065689523013589
    One-Electron Energy =               -2462.5052251850115681
    Two-Electron Energy =                 905.8525098613412183
    Total Energy =                      -1030.5461463713691046
  Basis Set: (AUG-CC-PVTZ AUX)
    Blend: AUG-CC-PVTZ-RI
    Molecular point group: c1

    Geometry (in Angstrom), charge = 0, multiplicity = 1:

       Center              X                  Y                   Z               Mass
    ------------   -----------------  -----------------  -----------------  -----------------
         S           -0.950529223866    -1.089517419269     0.508347809615    31.972071174400
         S            0.897849976134    -1.007897719269    -0.527402190385    31.972071174400
         C           -3.190427023866     0.416504280731     0.355431809615    12.000000000000
         C            3.229605976134     0.416400280731    -0.341161190385    12.000000000000
         C           -1.812852023866     0.304817280731    -0.289112190385    12.000000000000
         C            1.851886976134     0.304996280731     0.303139809615    12.000000000000
         C           -4.030575023866     1.505627280731    -0.308033190385    12.000000000000
         C            4.069718976134     1.505615280731     0.322190809615    12.000000000000
         H           -3.705667023866    -0.547529719269     0.280295809615     1.007825032230
         H           -3.078082023866     0.633817280731     1.423578809615     1.007825032230
         H            3.744749976134    -0.547657719269    -0.265674190385     1.007825032230
         H            3.117477976134     0.633443280731    -1.409385190385     1.007825032230
         H           -1.902950023866     0.057517280731    -1.350721190385     1.007825032230
         H           -1.276752023866     1.255221280731    -0.201320190385     1.007825032230
         H            1.941769976134     0.058008280731     1.364838809615     1.007825032230
         H            1.315875976134     1.255413280731     0.214964809615     1.007825032230
         H           -4.176484023866     1.293949280731    -1.371362190385     1.007825032230
         H           -5.016537023866     1.577329280731     0.159508809615     1.007825032230
         H           -3.545147023866     2.482331280731    -0.221518190385     1.007825032230
         H            4.215408976134     1.294197280731     1.385601809615     1.007825032230
         H            5.055777976134     1.577121280731    -0.145179190385     1.007825032230
         H            3.584385976134     2.482335280731     0.235334809615     1.007825032230

  Basis Set: AUG-CC-PVTZ
    Blend: AUG-CC-PVTZ
  Basis Set: (AUG-CC-PVTZ AUX)
    Blend: AUG-CC-PVTZ-JKFIT
	 Reference Energy          =   -1030.5461463713691046 [Eh]
	 Singles Energy            =      -0.0000000000000000 [Eh]
	 Same-Spin Energy          =      -0.3659770039309708 [Eh]
	 Opposite-Spin Energy      =      -1.2650151665969522 [Eh]
	 Correlation Energy        =      -1.6309921705279229 [Eh]
	 Total Energy              =   -1032.1771385418969658 [Eh]

	 ================> DF-SCS-MP2 Energies <==================
	-----------------------------------------------------------
	 SCS Same-Spin Scale       =       0.3333333333333333 [-]
	 SCS Opposite-Spin Scale   =       1.2000000000000000 [-]
	 SCS Same-Spin Energy      =      -0.1219923346436569 [Eh]
	 SCS Opposite-Spin Energy  =      -1.5180181999163427 [Eh]
	 SCS Correlation Energy    =      -1.6400105345599996 [Eh]
	 SCS Total Energy          =   -1032.1861569059290105 [Eh]
	-----------------------------------------------------------

  Dipole Moment: [D]
     X:     0.0204      Y:     2.3526      Z:     0.0795     Total:     2.3541

*** Psi4 exiting successfully. Buy a developer a beer!
