                               Psi4 1.3.2 release

  ==> Input File <==

--------------------------------------------------------------------------
#psi4
#
memory 32 gb

molecule  {
0 1
  S       -0.9244390    -1.2108445     0.4490404
  S        0.8782890    -1.1051690    -0.5344860
  C       -3.2099880     0.3192330     0.3483480
  C        3.2100450     0.3191290    -0.3482450
  C       -1.8324130     0.2075460    -0.2961960
  C        1.8323260     0.2077250     0.2960560
  C       -4.0501360     1.4083560    -0.3151170
  C        4.0501580     1.4083440     0.3151070
  H       -3.7252280    -0.6448010     0.2732120
  H       -3.0976430     0.5365460     1.4164950
  H        3.7251890    -0.6449290    -0.2727580
  H        3.0979170     0.5361720    -1.4164690
  H       -1.9225110    -0.0397540    -1.3578050
  H       -1.2963130     1.1579500    -0.2084040
  H        1.9222090    -0.0392630     1.3577550
  H        1.2963150     1.1581420     0.2078810
  H       -4.1960450     1.1966780    -1.3784460
  H       -5.0360980     1.4800580     0.1524250
  H       -3.5647080     2.3850600    -0.2286020
  H        4.1958480     1.1969260     1.3785180
  H        5.0362170     1.4798500    -0.1522630
  H        3.5648250     2.3850640     0.2282510
units angstrom
no_reorient  #important for SAPT in psi4, default
symmetry c1  #important for SAPT in psi4, default
}

set PROPERTIES_ORIGIN ["COM"]
properties('MP2/aug-cc-pvtz', properties = ['dipole'])
--------------------------------------------------------------------------

    Molecular point group: c1
  Charge       = 0
  Multiplicity = 1
  Basis Set: AUG-CC-PVTZ
    Blend: AUG-CC-PVTZ
  Basis Set: (AUG-CC-PVTZ AUX)
    Blend: AUG-CC-PVTZ-JKFIT

    Orbital Energies [Eh]
    ---------------------

    Doubly Occupied:

       1A    -91.968217     2A    -91.964704     3A    -11.258520
       4A    -11.257764     5A    -11.234044     6A    -11.233115
       7A    -11.223009     8A    -11.222506     9A     -8.966513
      10A     -8.963474    11A     -6.647563    12A     -6.646343
      13A     -6.645476    14A     -6.644562    15A     -6.643380
      16A     -6.642494    17A     -1.101726    18A     -1.080728
      19A     -1.025377    20A     -0.963812    21A     -0.902801
      22A     -0.828932    23A     -0.807328    24A     -0.775709
      25A     -0.650427    26A     -0.648462    27A     -0.594211
      28A     -0.589120    29A     -0.583759    30A     -0.560696
      31A     -0.558171    32A     -0.536919    33A     -0.501622
      34A     -0.496875    35A     -0.488258    36A     -0.486551
      37A     -0.479379    38A     -0.459170    39A     -0.430274
      40A     -0.356484    41A     -0.336035

  @DF-RHF Final Energy: -1030.54771612912100

   => Energetics <=

    Nuclear Repulsion Energy =            527.6195993857012354
    One-Electron Energy =               -2465.5256169719714308
    Two-Electron Energy =                 907.3583014571491958
    Total Energy =                      -1030.5477161291209995
  Basis Set: (AUG-CC-PVTZ AUX)
    Blend: AUG-CC-PVTZ-RI
    Molecular point group: c1

    Geometry (in Angstrom), charge = 0, multiplicity = 1:

       Center              X                  Y                   Z               Mass
    ------------   -----------------  -----------------  -----------------  -----------------
         S           -0.914604964858    -1.108447628986     0.467251537607    31.972071174400
         S            0.888123035142    -1.002772128986    -0.516274862393    31.972071174400
         C           -3.200153964858     0.421629871014     0.366559137607    12.000000000000
         C            3.219879035142     0.421525871014    -0.330033862393    12.000000000000
         C           -1.822578964858     0.309942871014    -0.277984862393    12.000000000000
         C            1.842160035142     0.310121871014     0.314267137607    12.000000000000
         C           -4.040301964858     1.510752871014    -0.296905862393    12.000000000000
         C            4.059992035142     1.510740871014     0.333318137607    12.000000000000
         H           -3.715393964858    -0.542404128986     0.291423137607     1.007825032230
         H           -3.087808964858     0.638942871014     1.434706137607     1.007825032230
         H            3.735023035142    -0.542532128986    -0.254546862393     1.007825032230
         H            3.107751035142     0.638568871014    -1.398257862393     1.007825032230
         H           -1.912676964858     0.062642871014    -1.339593862393     1.007825032230
         H           -1.286478964858     1.260346871014    -0.190192862393     1.007825032230
         H            1.932043035142     0.063133871014     1.375966137607     1.007825032230
         H            1.306149035142     1.260538871014     0.226092137607     1.007825032230
         H           -4.186210964858     1.299074871014    -1.360234862393     1.007825032230
         H           -5.026263964858     1.582454871014     0.170636137607     1.007825032230
         H           -3.554873964858     2.487456871014    -0.210390862393     1.007825032230
         H            4.205682035142     1.299322871014     1.396729137607     1.007825032230
         H            5.046051035142     1.582246871014    -0.134051862393     1.007825032230
         H            3.574659035142     2.487460871014     0.246462137607     1.007825032230

  Basis Set: AUG-CC-PVTZ
    Blend: AUG-CC-PVTZ
  Basis Set: (AUG-CC-PVTZ AUX)
    Blend: AUG-CC-PVTZ-JKFIT
	 Reference Energy          =   -1030.5477161291209995 [Eh]
	 Singles Energy            =      -0.0000000000000000 [Eh]
	 Same-Spin Energy          =      -0.3662361402119790 [Eh]
	 Opposite-Spin Energy      =      -1.2644607779622510 [Eh]
	 Correlation Energy        =      -1.6306969181742299 [Eh]
	 Total Energy              =   -1032.1784130472951801 [Eh]

	 ================> DF-SCS-MP2 Energies <==================
	-----------------------------------------------------------
	 SCS Same-Spin Scale       =       0.3333333333333333 [-]
	 SCS Opposite-Spin Scale   =       1.2000000000000000 [-]
	 SCS Same-Spin Energy      =      -0.1220787134039930 [Eh]
	 SCS Opposite-Spin Energy  =      -1.5173529335547011 [Eh]
	 SCS Correlation Energy    =      -1.6394316469586940 [Eh]
	 SCS Total Energy          =   -1032.1871477760796552 [Eh]
	-----------------------------------------------------------

  Dipole Moment: [D]
     X:     0.0073      Y:     2.3527      Z:     0.1049     Total:     2.3551

*** Psi4 exiting successfully. Buy a developer a beer!
