                               Psi4 1.3.2 release

  ==> Input File <==

--------------------------------------------------------------------------
#psi4
#
memory 32 gb

molecule  {
0 1
  S       -0.7494266    -0.9709257     0.5767629
  S        0.8782890    -1.1051690    -0.5344860
  C       -3.2099880     0.3192330     0.3483480
  C        3.2100450     0.3191290    -0.3482450
  C       -1.8324130     0.2075460    -0.2961960
  C        1.8323260     0.2077250     0.2960560
  C       -4.0501360     1.4083560    -0.3151170
  C        4.0501580     1.4083440     0.3151070
  H       -3.7252280    -0.6448010     0.2732120
  H       -3.0976430     0.5365460     1.4164950
  H        3.7251890    -0.6449290    -0.2727580
  H        3.0979170     0.5361720    -1.4164690
  H       -1.9225110    -0.0397540    -1.3578050
  H       -1.2963130     1.1579500    -0.2084040
  H        1.9222090    -0.0392630     1.3577550
  H        1.2963150     1.1581420     0.2078810
  H       -4.1960450     1.1966780    -1.3784460
  H       -5.0360980     1.4800580     0.1524250
  H       -3.5647080     2.3850600    -0.2286020
  H        4.1958480     1.1969260     1.3785180
  H        5.0362170     1.4798500    -0.1522630
  H        3.5648250     2.3850640     0.2282510
units angstrom
no_reorient  #important for SAPT in psi4, default
symmetry c1  #important for SAPT in psi4, default
}

set PROPERTIES_ORIGIN ["COM"]
properties('MP2/aug-cc-pvtz', properties = ['dipole'])
--------------------------------------------------------------------------

    Molecular point group: c1
  Charge       = 0
  Multiplicity = 1
  Basis Set: AUG-CC-PVTZ
    Blend: AUG-CC-PVTZ
  Basis Set: (AUG-CC-PVTZ AUX)
    Blend: AUG-CC-PVTZ-JKFIT

    Orbital Energies [Eh]
    ---------------------

    Doubly Occupied:

       1A    -91.965268     2A    -91.959093     3A    -11.255489
       4A    -11.255105     5A    -11.233419     6A    -11.230866
       7A    -11.222520     8A    -11.221089     9A     -8.965369
      10A     -8.959614    11A     -6.646610    12A     -6.645213
      13A     -6.644383    14A     -6.640895    15A     -6.639553
      16A     -6.638718    17A     -1.111128    18A     -1.079342
      19A     -1.034805    20A     -0.962837    21A     -0.905623
      22A     -0.827860    23A     -0.806244    24A     -0.772496
      25A     -0.650217    26A     -0.647444    27A     -0.594793
      28A     -0.590814    29A     -0.583911    30A     -0.561134
      31A     -0.557327    32A     -0.535885    33A     -0.502344
      34A     -0.498039    35A     -0.489075    36A     -0.485521
      37A     -0.476207    38A     -0.469488    39A     -0.437185
      40A     -0.347040    41A     -0.338184

  @DF-RHF Final Energy: -1030.54331862354115

   => Energetics <=

    Nuclear Repulsion Energy =            533.5908845773827807
    One-Electron Energy =               -2477.4921114122448671
    Two-Electron Energy =                 913.3579082113208187
    Total Energy =                      -1030.5433186235411540
  Basis Set: (AUG-CC-PVTZ AUX)
    Blend: AUG-CC-PVTZ-RI
    Molecular point group: c1

    Geometry (in Angstrom), charge = 0, multiplicity = 1:

       Center              X                  Y                   Z               Mass
    ------------   -----------------  -----------------  -----------------  -----------------
         S           -0.776882609540    -0.919648536916     0.567760093156    31.972071174400
         S            0.850832990460    -1.053891836916    -0.543488806844    31.972071174400
         C           -3.237444009540     0.370510163084     0.339345193156    12.000000000000
         C            3.182588990460     0.370406163084    -0.357247806844    12.000000000000
         C           -1.859869009540     0.258823163084    -0.305198806844    12.000000000000
         C            1.804869990460     0.259002163084     0.287053193156    12.000000000000
         C           -4.077592009540     1.459633163084    -0.324119806844    12.000000000000
         C            4.022701990460     1.459621163084     0.306104193156    12.000000000000
         H           -3.752684009540    -0.593523836916     0.264209193156     1.007825032230
         H           -3.125099009540     0.587823163084     1.407492193156     1.007825032230
         H            3.697732990460    -0.593651836916    -0.281760806844     1.007825032230
         H            3.070460990460     0.587449163084    -1.425471806844     1.007825032230
         H           -1.949967009540     0.011523163084    -1.366807806844     1.007825032230
         H           -1.323769009540     1.209227163084    -0.217406806844     1.007825032230
         H            1.894752990460     0.012014163084     1.348752193156     1.007825032230
         H            1.268858990460     1.209419163084     0.198878193156     1.007825032230
         H           -4.223501009540     1.247955163084    -1.387448806844     1.007825032230
         H           -5.063554009540     1.531335163084     0.143422193156     1.007825032230
         H           -3.592164009540     2.436337163084    -0.237604806844     1.007825032230
         H            4.168391990460     1.248203163084     1.369515193156     1.007825032230
         H            5.008760990460     1.531127163084    -0.161265806844     1.007825032230
         H            3.537368990460     2.436341163084     0.219248193156     1.007825032230

  Basis Set: AUG-CC-PVTZ
    Blend: AUG-CC-PVTZ
  Basis Set: (AUG-CC-PVTZ AUX)
    Blend: AUG-CC-PVTZ-JKFIT
	 Reference Energy          =   -1030.5433186235411540 [Eh]
	 Singles Energy            =      -0.0000000000000000 [Eh]
	 Same-Spin Energy          =      -0.3675715574498811 [Eh]
	 Opposite-Spin Energy      =      -1.2649958296423414 [Eh]
	 Correlation Energy        =      -1.6325673870922226 [Eh]
	 Total Energy              =   -1032.1758860106333486 [Eh]

	 ================> DF-SCS-MP2 Energies <==================
	-----------------------------------------------------------
	 SCS Same-Spin Scale       =       0.3333333333333333 [-]
	 SCS Opposite-Spin Scale   =       1.2000000000000000 [-]
	 SCS Same-Spin Energy      =      -0.1225238524832937 [Eh]
	 SCS Opposite-Spin Energy  =      -1.5179949955708096 [Eh]
	 SCS Correlation Energy    =      -1.6405188480541033 [Eh]
	 SCS Total Energy          =   -1032.1838374715953250 [Eh]
	-----------------------------------------------------------

  Dipole Moment: [D]
     X:    -0.0151      Y:     2.1341      Z:    -0.1327     Total:     2.1383

*** Psi4 exiting successfully. Buy a developer a beer!
