                               Psi4 1.3.2 release

  ==> Input File <==

--------------------------------------------------------------------------
#psi4
#
memory 32 gb

molecule  {
0 1
  S       -0.8296708    -1.0931545     0.4952574
  S        0.8782890    -1.1051690    -0.5344860
  C       -3.2099880     0.3192330     0.3483480
  C        3.2100450     0.3191290    -0.3482450
  C       -1.8324130     0.2075460    -0.2961960
  C        1.8323260     0.2077250     0.2960560
  C       -4.0501360     1.4083560    -0.3151170
  C        4.0501580     1.4083440     0.3151070
  H       -3.7252280    -0.6448010     0.2732120
  H       -3.0976430     0.5365460     1.4164950
  H        3.7251890    -0.6449290    -0.2727580
  H        3.0979170     0.5361720    -1.4164690
  H       -1.9225110    -0.0397540    -1.3578050
  H       -1.2963130     1.1579500    -0.2084040
  H        1.9222090    -0.0392630     1.3577550
  H        1.2963150     1.1581420     0.2078810
  H       -4.1960450     1.1966780    -1.3784460
  H       -5.0360980     1.4800580     0.1524250
  H       -3.5647080     2.3850600    -0.2286020
  H        4.1958480     1.1969260     1.3785180
  H        5.0362170     1.4798500    -0.1522630
  H        3.5648250     2.3850640     0.2282510
units angstrom
no_reorient  #important for SAPT in psi4, default
symmetry c1  #important for SAPT in psi4, default
}

set PROPERTIES_ORIGIN ["COM"]
properties('MP2/aug-cc-pvtz', properties = ['dipole'])
--------------------------------------------------------------------------

    Molecular point group: c1
  Charge       = 0
  Multiplicity = 1
  Basis Set: AUG-CC-PVTZ
    Blend: AUG-CC-PVTZ
  Basis Set: (AUG-CC-PVTZ AUX)
    Blend: AUG-CC-PVTZ-JKFIT

    Orbital Energies [Eh]
    ---------------------

    Doubly Occupied:

       1A    -91.964763     2A    -91.962355     3A    -11.256098
       4A    -11.256044     5A    -11.233535     6A    -11.232523
       7A    -11.222673     8A    -11.222049     9A     -8.964464
      10A     -8.962183    11A     -6.645707    12A     -6.644333
      13A     -6.643504    14A     -6.643386    15A     -6.642114
      16A     -6.641276    17A     -1.108082    18A     -1.080244
      19A     -1.032687    20A     -0.963767    21A     -0.905938
      22A     -0.828433    23A     -0.807230    24A     -0.772557
      25A     -0.650316    26A     -0.648113    27A     -0.595993
      28A     -0.589883    29A     -0.584864    30A     -0.561000
      31A     -0.558044    32A     -0.535949    33A     -0.502142
      34A     -0.497592    35A     -0.489015    36A     -0.486118
      37A     -0.480127    38A     -0.464971    39A     -0.435539
      40A     -0.348729    41A     -0.339376

  @DF-RHF Final Energy: -1030.54809108552217

   => Energetics <=

    Nuclear Repulsion Energy =            531.4954813773005071
    One-Electron Energy =               -2473.2797112710941292
    Two-Electron Energy =                 911.2361388082713347
    Total Energy =                      -1030.5480910855221737
  Basis Set: (AUG-CC-PVTZ AUX)
    Blend: AUG-CC-PVTZ-RI
    Molecular point group: c1

    Geometry (in Angstrom), charge = 0, multiplicity = 1:

       Center              X                  Y                   Z               Mass
    ------------   -----------------  -----------------  -----------------  -----------------
         S           -0.840029107872    -1.015833939914     0.503621041115    31.972071174400
         S            0.867930692128    -1.027848439914    -0.526122358885    31.972071174400
         C           -3.220346307872     0.396553560086     0.356711641115    12.000000000000
         C            3.199686692128     0.396449560086    -0.339881358885    12.000000000000
         C           -1.842771307872     0.284866560086    -0.287832358885    12.000000000000
         C            1.821967692128     0.285045560086     0.304419641115    12.000000000000
         C           -4.060494307872     1.485676560086    -0.306753358885    12.000000000000
         C            4.039799692128     1.485664560086     0.323470641115    12.000000000000
         H           -3.735586307872    -0.567480439914     0.281575641115     1.007825032230
         H           -3.108001307872     0.613866560086     1.424858641115     1.007825032230
         H            3.714830692128    -0.567608439914    -0.264394358885     1.007825032230
         H            3.087558692128     0.613492560086    -1.408105358885     1.007825032230
         H           -1.932869307872     0.037566560086    -1.349441358885     1.007825032230
         H           -1.306671307872     1.235270560086    -0.200040358885     1.007825032230
         H            1.911850692128     0.038057560086     1.366118641115     1.007825032230
         H            1.285956692128     1.235462560086     0.216244641115     1.007825032230
         H           -4.206403307872     1.273998560086    -1.370082358885     1.007825032230
         H           -5.046456307872     1.557378560086     0.160788641115     1.007825032230
         H           -3.575066307872     2.462380560086    -0.220238358885     1.007825032230
         H            4.185489692128     1.274246560086     1.386881641115     1.007825032230
         H            5.025858692128     1.557170560086    -0.143899358885     1.007825032230
         H            3.554466692128     2.462384560086     0.236614641115     1.007825032230

  Basis Set: AUG-CC-PVTZ
    Blend: AUG-CC-PVTZ
  Basis Set: (AUG-CC-PVTZ AUX)
    Blend: AUG-CC-PVTZ-JKFIT
	 Reference Energy          =   -1030.5480910855221737 [Eh]
	 Singles Energy            =      -0.0000000000000000 [Eh]
	 Same-Spin Energy          =      -0.3670175088617408 [Eh]
	 Opposite-Spin Energy      =      -1.2643422125869990 [Eh]
	 Correlation Energy        =      -1.6313597214487396 [Eh]
	 Total Energy              =   -1032.1794508069708627 [Eh]

	 ================> DF-SCS-MP2 Energies <==================
	-----------------------------------------------------------
	 SCS Same-Spin Scale       =       0.3333333333333333 [-]
	 SCS Opposite-Spin Scale   =       1.2000000000000000 [-]
	 SCS Same-Spin Energy      =      -0.1223391696205803 [Eh]
	 SCS Opposite-Spin Energy  =      -1.5172106551043987 [Eh]
	 SCS Correlation Energy    =      -1.6395498247249789 [Eh]
	 SCS Total Energy          =   -1032.1876409102471825 [Eh]
	-----------------------------------------------------------

  Dipole Moment: [D]
     X:    -0.0062      Y:     2.2484      Z:    -0.0073     Total:     2.2485

*** Psi4 exiting successfully. Buy a developer a beer!
