                               Psi4 1.3.2 release

  ==> Input File <==

--------------------------------------------------------------------------
#psi4
#
memory 32 gb

molecule  {
0 1
  S       -0.8782850    -1.1051870     0.5345170
  S        0.8782890    -1.1051690    -0.5344860
  C       -3.2099880     0.3192330     0.3483480
  C        3.2100450     0.3191290    -0.3482450
  C       -1.7277423     0.0635353    -0.2050643
  C        1.8323260     0.2077250     0.2960560
  C       -4.0501360     1.4083560    -0.3151170
  C        4.0501580     1.4083440     0.3151070
  H       -3.7252280    -0.6448010     0.2732120
  H       -3.0976430     0.5365460     1.4164950
  H        3.7251890    -0.6449290    -0.2727580
  H        3.0979170     0.5361720    -1.4164690
  H       -1.9225110    -0.0397540    -1.3578050
  H       -1.2963130     1.1579500    -0.2084040
  H        1.9222090    -0.0392630     1.3577550
  H        1.2963150     1.1581420     0.2078810
  H       -4.1960450     1.1966780    -1.3784460
  H       -5.0360980     1.4800580     0.1524250
  H       -3.5647080     2.3850600    -0.2286020
  H        4.1958480     1.1969260     1.3785180
  H        5.0362170     1.4798500    -0.1522630
  H        3.5648250     2.3850640     0.2282510
units angstrom
no_reorient  #important for SAPT in psi4, default
symmetry c1  #important for SAPT in psi4, default
}

set PROPERTIES_ORIGIN ["COM"]
properties('MP2/aug-cc-pvtz', properties = ['dipole'])
--------------------------------------------------------------------------

    Molecular point group: c1
  Charge       = 0
  Multiplicity = 1
  Basis Set: AUG-CC-PVTZ
    Blend: AUG-CC-PVTZ
  Basis Set: (AUG-CC-PVTZ AUX)
    Blend: AUG-CC-PVTZ-JKFIT

    Orbital Energies [Eh]
    ---------------------

    Doubly Occupied:

       1A    -91.967485     2A    -91.965628     3A    -11.260751
       4A    -11.258468     5A    -11.238841     6A    -11.234176
       7A    -11.224712     8A    -11.223036     9A     -8.968432
      10A     -8.966521    11A     -6.649888    12A     -6.648556
      13A     -6.647554    14A     -6.647324    15A     -6.646359
      16A     -6.645464    17A     -1.119642    18A     -1.081969
      19A     -1.029583    20A     -0.976190    21A     -0.896810
      22A     -0.835688    23A     -0.803466    24A     -0.765837
      25A     -0.650376    26A     -0.635240    27A     -0.605201
      28A     -0.590682    29A     -0.580463    30A     -0.559907
      31A     -0.550365    32A     -0.536746    33A     -0.511114
      34A     -0.500876    35A     -0.489801    36A     -0.486234
      37A     -0.480202    38A     -0.459969    39A     -0.416540
      40A     -0.354495    41A     -0.338725

  @DF-RHF Final Energy: -1030.51090443112162

   => Energetics <=

    Nuclear Repulsion Energy =            532.1143182509578082
    One-Electron Energy =               -2474.3518109762603672
    Two-Electron Energy =                 911.7265882941810560
    Total Energy =                      -1030.5109044311216167
  Basis Set: (AUG-CC-PVTZ AUX)
    Blend: AUG-CC-PVTZ-RI
    Molecular point group: c1

    Geometry (in Angstrom), charge = 0, multiplicity = 1:

       Center              X                  Y                   Z               Mass
    ------------   -----------------  -----------------  -----------------  -----------------
         S           -0.886655697591    -1.013785931084     0.527227636636    31.972071174400
         S            0.869918302409    -1.013767931084    -0.541775363364    31.972071174400
         C           -3.218358697591     0.410634068916     0.341058636636    12.000000000000
         C            3.201674302409     0.410530068916    -0.355534363364    12.000000000000
         C           -1.736112997591     0.154936368916    -0.212353663364    12.000000000000
         C            1.823955302409     0.299126068916     0.288766636636    12.000000000000
         C           -4.058506697591     1.499757068916    -0.322406363364    12.000000000000
         C            4.041787302409     1.499745068916     0.307817636636    12.000000000000
         H           -3.733598697591    -0.553399931084     0.265922636636     1.007825032230
         H           -3.106013697591     0.627947068916     1.409205636636     1.007825032230
         H            3.716818302409    -0.553527931084    -0.280047363364     1.007825032230
         H            3.089546302409     0.627573068916    -1.423758363364     1.007825032230
         H           -1.930881697591     0.051647068916    -1.365094363364     1.007825032230
         H           -1.304683697591     1.249351068916    -0.215693363364     1.007825032230
         H            1.913838302409     0.052138068916     1.350465636636     1.007825032230
         H            1.287944302409     1.249543068916     0.200591636636     1.007825032230
         H           -4.204415697591     1.288079068916    -1.385735363364     1.007825032230
         H           -5.044468697591     1.571459068916     0.145135636636     1.007825032230
         H           -3.573078697591     2.476461068916    -0.235891363364     1.007825032230
         H            4.187477302409     1.288327068916     1.371228636636     1.007825032230
         H            5.027846302409     1.571251068916    -0.159552363364     1.007825032230
         H            3.556454302409     2.476465068916     0.220961636636     1.007825032230

  Basis Set: AUG-CC-PVTZ
    Blend: AUG-CC-PVTZ
  Basis Set: (AUG-CC-PVTZ AUX)
    Blend: AUG-CC-PVTZ-JKFIT
	 Reference Energy          =   -1030.5109044311216167 [Eh]
	 Singles Energy            =      -0.0000000000000000 [Eh]
	 Same-Spin Energy          =      -0.3688202082976197 [Eh]
	 Opposite-Spin Energy      =      -1.2675330362026527 [Eh]
	 Correlation Energy        =      -1.6363532445002724 [Eh]
	 Total Energy              =   -1032.1472576756218587 [Eh]

	 ================> DF-SCS-MP2 Energies <==================
	-----------------------------------------------------------
	 SCS Same-Spin Scale       =       0.3333333333333333 [-]
	 SCS Opposite-Spin Scale   =       1.2000000000000000 [-]
	 SCS Same-Spin Energy      =      -0.1229400694325399 [Eh]
	 SCS Opposite-Spin Energy  =      -1.5210396434431832 [Eh]
	 SCS Correlation Energy    =      -1.6439797128757232 [Eh]
	 SCS Total Energy          =   -1032.1548841439973785 [Eh]
	-----------------------------------------------------------

  Dipole Moment: [D]
     X:     0.1096      Y:     2.1791      Z:     0.0692     Total:     2.1829

*** Psi4 exiting successfully. Buy a developer a beer!
