                               Psi4 1.4a3.dev225

  ==> Input File <==

--------------------------------------------------------------------------
#psi4
#
memory 32 gb

molecule  {
0 1
  S        0.8782360    -1.1051720    -0.5345130
  S       -0.8782360    -1.1051730     0.5345140
  C        3.2099970     0.3192160    -0.3483490
  C       -3.2099950     0.3192180     0.3483520
  C        1.8428654     0.2220156     0.3052161
  C       -1.8324000     0.2076110    -0.2961070
  C        4.0501390     1.4083310     0.3151470
  C       -4.0501390     1.4083310    -0.3151470
  H        3.7252040    -0.6448290    -0.2731450
  H        3.0977470     0.5364970    -1.4165130
  H       -3.7252050    -0.6448260     0.2731560
  H       -3.0977410     0.5365060     1.4165140
  H        1.9224270    -0.0395970     1.3577410
  H        1.2963330     1.1580260     0.2082030
  H       -1.9224330    -0.0396070    -1.3577420
  H       -1.2963320     1.1580220    -0.2082140
  H        4.1959570     1.1966930     1.3784960
  H        5.0361400     1.4799610    -0.1523260
  H        3.5647660     2.3850540     0.2285540
  H       -4.1959620     1.1966860    -1.3784950
  H       -5.0361370     1.4799650     0.1523300
  H       -3.5647630     2.3850530    -0.2285630
units angstrom
no_reorient  #important for SAPT in psi4, default
symmetry c1  #important for SAPT in psi4, default
}

set PROPERTIES_ORIGIN ["COM"]
properties('MP2/aug-cc-pvtz', properties = ['dipole'])
--------------------------------------------------------------------------

    Molecular point group: c1
  Charge       = 0
  Multiplicity = 1
  Basis Set: AUG-CC-PVTZ
    Blend: AUG-CC-PVTZ
  Basis Set: (AUG-CC-PVTZ AUX)
    Blend: AUG-CC-PVTZ-JKFIT

    Orbital Energies [Eh]
    ---------------------

    Doubly Occupied:

       1A    -91.965580     2A    -91.965432     3A    -11.257117
       4A    -11.256646     5A    -11.232853     6A    -11.232788
       7A    -11.222315     8A    -11.222195     9A     -8.964352
      10A     -8.963958    11A     -6.645475    12A     -6.644971
      13A     -6.644209    14A     -6.643821    15A     -6.643331
      16A     -6.642972    17A     -1.102711    18A     -1.081248
      19A     -1.025389    20A     -0.963280    21A     -0.901893
      22A     -0.828207    23A     -0.807210    24A     -0.776491
      25A     -0.651716    26A     -0.648632    27A     -0.593411
      28A     -0.589967    29A     -0.583478    30A     -0.561522
      31A     -0.558207    32A     -0.536824    33A     -0.502382
      34A     -0.497269    35A     -0.488421    36A     -0.486408
      37A     -0.475561    38A     -0.461649    39A     -0.430441
      40A     -0.349971    41A     -0.341629

  @DF-RHF Final Energy: -1030.54920927049011

   => Energetics <=

    Nuclear Repulsion Energy =            528.8620393392179722
    One-Electron Energy =               -2468.0386276929366431
    Two-Electron Energy =                 908.6273790832285613
    Total Energy =                      -1030.5492092704901097
  Basis Set: (AUG-CC-PVTZ AUX)
    Blend: AUG-CC-PVTZ-RI
    Molecular point group: c1

    Geometry (in Angstrom), charge = 0, multiplicity = 1:

       Center              X                  Y                   Z               Mass
    ------------   -----------------  -----------------  -----------------  -----------------
         S            0.877398900922    -1.026440126450    -0.535241893363    31.972071174400
         S           -0.879073099078    -1.026441126450     0.533785106637    31.972071174400
         C            3.209159900922     0.397947873550    -0.349077893363    12.000000000000
         C           -3.210832099078     0.397949873550     0.347623106637    12.000000000000
         C            1.842028300922     0.300747473550     0.304487206637    12.000000000000
         C           -1.833237099078     0.286342873550    -0.296835893363    12.000000000000
         C            4.049301900922     1.487062873550     0.314418106637    12.000000000000
         C           -4.050976099078     1.487062873550    -0.315875893363    12.000000000000
         H            3.724366900922    -0.566097126450    -0.273873893363     1.007825032230
         H            3.096909900922     0.615228873550    -1.417241893363     1.007825032230
         H           -3.726042099078    -0.566094126450     0.272427106637     1.007825032230
         H           -3.098578099078     0.615237873550     1.415785106637     1.007825032230
         H            1.921589900922     0.039134873550     1.357012106637     1.007825032230
         H            1.295495900922     1.236757873550     0.207474106637     1.007825032230
         H           -1.923270099078     0.039124873550    -1.358470893363     1.007825032230
         H           -1.297169099078     1.236753873550    -0.208942893363     1.007825032230
         H            4.195119900922     1.275424873550     1.377767106637     1.007825032230
         H            5.035302900922     1.558692873550    -0.153054893363     1.007825032230
         H            3.563928900922     2.463785873550     0.227825106637     1.007825032230
         H           -4.196799099078     1.275417873550    -1.379223893363     1.007825032230
         H           -5.036974099078     1.558696873550     0.151601106637     1.007825032230
         H           -3.565600099078     2.463784873550    -0.229291893363     1.007825032230

  Basis Set: AUG-CC-PVTZ
    Blend: AUG-CC-PVTZ
  Basis Set: (AUG-CC-PVTZ AUX)
    Blend: AUG-CC-PVTZ-JKFIT
	 Reference Energy          =   -1030.5492092704901097 [Eh]
	 Singles Energy            =      -0.0000000000000000 [Eh]
	 Same-Spin Energy          =      -0.3664056647158940 [Eh]
	 Opposite-Spin Energy      =      -1.2645934387615294 [Eh]
	 Correlation Energy        =      -1.6309991034774234 [Eh]
	 Total Energy              =   -1032.1802083739676164 [Eh]

	 ================> DF-SCS-MP2 Energies <==================
	-----------------------------------------------------------
	 SCS Same-Spin Scale       =       0.3333333333333333 [-]
	 SCS Opposite-Spin Scale   =       1.2000000000000000 [-]
	 SCS Same-Spin Energy      =      -0.1221352215719647 [Eh]
	 SCS Opposite-Spin Energy  =      -1.5175121265138352 [Eh]
	 SCS Correlation Energy    =      -1.6396473480857998 [Eh]
	 SCS Total Energy          =   -1032.1888566185759828 [Eh]
	-----------------------------------------------------------

  Dipole Moment: [D]
     X:     0.0222      Y:     2.2832      Z:     0.0052     Total:     2.2833

*** Psi4 exiting successfully. Buy a developer a beer!
