                               Psi4 1.3.2 release

  ==> Input File <==

--------------------------------------------------------------------------
#psi4
#
memory 32 gb

molecule  {
0 1
  S       -0.9442348    -1.2635123     0.4044783
  S        0.8782890    -1.1051690    -0.5344860
  C       -3.2099880     0.3192330     0.3483480
  C        3.2100450     0.3191290    -0.3482450
  C       -1.8324130     0.2075460    -0.2961960
  C        1.8323260     0.2077250     0.2960560
  C       -4.0501360     1.4083560    -0.3151170
  C        4.0501580     1.4083440     0.3151070
  H       -3.7252280    -0.6448010     0.2732120
  H       -3.0976430     0.5365460     1.4164950
  H        3.7251890    -0.6449290    -0.2727580
  H        3.0979170     0.5361720    -1.4164690
  H       -1.9225110    -0.0397540    -1.3578050
  H       -1.2963130     1.1579500    -0.2084040
  H        1.9222090    -0.0392630     1.3577550
  H        1.2963150     1.1581420     0.2078810
  H       -4.1960450     1.1966780    -1.3784460
  H       -5.0360980     1.4800580     0.1524250
  H       -3.5647080     2.3850600    -0.2286020
  H        4.1958480     1.1969260     1.3785180
  H        5.0362170     1.4798500    -0.1522630
  H        3.5648250     2.3850640     0.2282510
units angstrom
no_reorient  #important for SAPT in psi4, default
symmetry c1  #important for SAPT in psi4, default
}

set PROPERTIES_ORIGIN ["COM"]
properties('MP2/aug-cc-pvtz', properties = ['dipole'])
--------------------------------------------------------------------------

    Molecular point group: c1
  Charge       = 0
  Multiplicity = 1
  Basis Set: AUG-CC-PVTZ
    Blend: AUG-CC-PVTZ
  Basis Set: (AUG-CC-PVTZ AUX)
    Blend: AUG-CC-PVTZ-JKFIT

    Orbital Energies [Eh]
    ---------------------

    Doubly Occupied:

       1A    -91.969516     2A    -91.963969     3A    -11.259691
       4A    -11.258268     5A    -11.234518     6A    -11.233194
       7A    -11.223333     8A    -11.222610     9A     -8.967527
      10A     -8.962760    11A     -6.648551    12A     -6.647320
      13A     -6.646463    14A     -6.643866    15A     -6.642681
      16A     -6.641786    17A     -1.100705    18A     -1.080461
      19A     -1.025030    20A     -0.963281    21A     -0.903475
      22A     -0.829011    23A     -0.807676    24A     -0.775499
      25A     -0.650478    26A     -0.648511    27A     -0.594450
      28A     -0.589014    29A     -0.583239    30A     -0.560644
      31A     -0.558290    32A     -0.536993    33A     -0.501611
      34A     -0.497006    35A     -0.488250    36A     -0.486798
      37A     -0.480092    38A     -0.456911    39A     -0.430284
      40A     -0.359070    41A     -0.332907

  @DF-RHF Final Energy: -1030.54551923675626

   => Energetics <=

    Nuclear Repulsion Energy =            526.7692665780048173
    One-Electron Energy =               -2463.8180933533358257
    Two-Electron Energy =                 906.5033075385748589
    Total Energy =                      -1030.5455192367562631
  Basis Set: (AUG-CC-PVTZ AUX)
    Blend: AUG-CC-PVTZ-RI
    Molecular point group: c1

    Geometry (in Angstrom), charge = 0, multiplicity = 1:

       Center              X                  Y                   Z               Mass
    ------------   -----------------  -----------------  -----------------  -----------------
         S           -0.930182856490    -1.149893454913     0.432184323113    31.972071174400
         S            0.892340943510    -0.991550154913    -0.506779976887    31.972071174400
         C           -3.195936056490     0.432851845087     0.376054023113    12.000000000000
         C            3.224096943510     0.432747845087    -0.320538976887    12.000000000000
         C           -1.818361056490     0.321164845087    -0.268489976887    12.000000000000
         C            1.846377943510     0.321343845087     0.323762023113    12.000000000000
         C           -4.036084056490     1.521974845087    -0.287410976887    12.000000000000
         C            4.064209943510     1.521962845087     0.342813023113    12.000000000000
         H           -3.711176056490    -0.531182154913     0.300918023113     1.007825032230
         H           -3.083591056490     0.650164845087     1.444201023113     1.007825032230
         H            3.739240943510    -0.531310154913    -0.245051976887     1.007825032230
         H            3.111968943510     0.649790845087    -1.388762976887     1.007825032230
         H           -1.908459056490     0.073864845087    -1.330098976887     1.007825032230
         H           -1.282261056490     1.271568845087    -0.180697976887     1.007825032230
         H            1.936260943510     0.074355845087     1.385461023113     1.007825032230
         H            1.310366943510     1.271760845087     0.235587023113     1.007825032230
         H           -4.181993056490     1.310296845087    -1.350739976887     1.007825032230
         H           -5.022046056490     1.593676845087     0.180131023113     1.007825032230
         H           -3.550656056490     2.498678845087    -0.200895976887     1.007825032230
         H            4.209899943510     1.310544845087     1.406224023113     1.007825032230
         H            5.050268943510     1.593468845087    -0.124556976887     1.007825032230
         H            3.578876943510     2.498682845087     0.255957023113     1.007825032230

  Basis Set: AUG-CC-PVTZ
    Blend: AUG-CC-PVTZ
  Basis Set: (AUG-CC-PVTZ AUX)
    Blend: AUG-CC-PVTZ-JKFIT
	 Reference Energy          =   -1030.5455192367562631 [Eh]
	 Singles Energy            =      -0.0000000000000000 [Eh]
	 Same-Spin Energy          =      -0.3661547432023148 [Eh]
	 Opposite-Spin Energy      =      -1.2645195433742837 [Eh]
	 Correlation Energy        =      -1.6306742865765986 [Eh]
	 Total Energy              =   -1032.1761935233328131 [Eh]

	 ================> DF-SCS-MP2 Energies <==================
	-----------------------------------------------------------
	 SCS Same-Spin Scale       =       0.3333333333333333 [-]
	 SCS Opposite-Spin Scale   =       1.2000000000000000 [-]
	 SCS Same-Spin Energy      =      -0.1220515810674383 [Eh]
	 SCS Opposite-Spin Energy  =      -1.5174234520491405 [Eh]
	 SCS Correlation Energy    =      -1.6394750331165788 [Eh]
	 SCS Total Energy          =   -1032.1849942698727318 [Eh]
	-----------------------------------------------------------

  Dipole Moment: [D]
     X:     0.0084      Y:     2.3907      Z:     0.1577     Total:     2.3959

*** Psi4 exiting successfully. Buy a developer a beer!
