                               Psi4 1.4a3.dev225

  ==> Input File <==

--------------------------------------------------------------------------
#psi4
#
memory 32 gb

molecule  {
0 1
  S        0.8782360    -1.1051720    -0.5345130
  S       -0.8782360    -1.1051730     0.5345140
  C        3.2099970     0.3192160    -0.3483490
  C       -3.2099950     0.3192180     0.3483520
  C        1.8585664     0.2436179     0.3188841
  C       -1.8324000     0.2076110    -0.2961070
  C        4.0501390     1.4083310     0.3151470
  C       -4.0501390     1.4083310    -0.3151470
  H        3.7252040    -0.6448290    -0.2731450
  H        3.0977470     0.5364970    -1.4165130
  H       -3.7252050    -0.6448260     0.2731560
  H       -3.0977410     0.5365060     1.4165140
  H        1.9224270    -0.0395970     1.3577410
  H        1.2963330     1.1580260     0.2082030
  H       -1.9224330    -0.0396070    -1.3577420
  H       -1.2963320     1.1580220    -0.2082140
  H        4.1959570     1.1966930     1.3784960
  H        5.0361400     1.4799610    -0.1523260
  H        3.5647660     2.3850540     0.2285540
  H       -4.1959620     1.1966860    -1.3784950
  H       -5.0361370     1.4799650     0.1523300
  H       -3.5647630     2.3850530    -0.2285630
units angstrom
no_reorient  #important for SAPT in psi4, default
symmetry c1  #important for SAPT in psi4, default
}

set PROPERTIES_ORIGIN ["COM"]
properties('MP2/aug-cc-pvtz', properties = ['dipole'])
--------------------------------------------------------------------------

    Molecular point group: c1
  Charge       = 0
  Multiplicity = 1
  Basis Set: AUG-CC-PVTZ
    Blend: AUG-CC-PVTZ
  Basis Set: (AUG-CC-PVTZ AUX)
    Blend: AUG-CC-PVTZ-JKFIT

    Orbital Energies [Eh]
    ---------------------

    Doubly Occupied:

       1A    -91.965042     2A    -91.964557     3A    -11.257735
       4A    -11.256264     5A    -11.232828     6A    -11.232489
       7A    -11.222407     8A    -11.221993     9A     -8.963771
      10A     -8.962823    11A     -6.644869    12A     -6.643856
      13A     -6.643626    14A     -6.642774    15A     -6.642620
      16A     -6.641805    17A     -1.101886    18A     -1.081975
      19A     -1.024540    20A     -0.961770    21A     -0.902449
      22A     -0.827555    23A     -0.808373    24A     -0.776610
      25A     -0.654538    26A     -0.648600    27A     -0.594816
      28A     -0.590267    29A     -0.582025    30A     -0.563040
      31A     -0.558428    32A     -0.536680    33A     -0.504121
      34A     -0.497803    35A     -0.489058    36A     -0.486554
      37A     -0.474169    38A     -0.457950    39A     -0.430682
      40A     -0.349132    41A     -0.340288

  @DF-RHF Final Energy: -1030.54804164163352

   => Energetics <=

    Nuclear Repulsion Energy =            528.4709639196903481
    One-Electron Energy =               -2467.2724826103758460
    Two-Electron Energy =                 908.2534770490519804
    Total Energy =                      -1030.5480416416335174
  Basis Set: (AUG-CC-PVTZ AUX)
    Blend: AUG-CC-PVTZ-RI
    Molecular point group: c1

    Geometry (in Angstrom), charge = 0, multiplicity = 1:

       Center              X                  Y                   Z               Mass
    ------------   -----------------  -----------------  -----------------  -----------------
         S            0.876143270378    -1.028167692064    -0.536334942104    31.972071174400
         S           -0.880328729622    -1.028168692064     0.532692057896    31.972071174400
         C            3.207904270378     0.396220307936    -0.350170942104    12.000000000000
         C           -3.212087729622     0.396222307936     0.346530057896    12.000000000000
         C            1.856473670378     0.320622207936     0.317062157896    12.000000000000
         C           -1.834492729622     0.284615307936    -0.297928942104    12.000000000000
         C            4.048046270378     1.485335307936     0.313325057896    12.000000000000
         C           -4.052231729622     1.485335307936    -0.316968942104    12.000000000000
         H            3.723111270378    -0.567824692064    -0.274966942104     1.007825032230
         H            3.095654270378     0.613501307936    -1.418334942104     1.007825032230
         H           -3.727297729622    -0.567821692064     0.271334057896     1.007825032230
         H           -3.099833729622     0.613510307936     1.414692057896     1.007825032230
         H            1.920334270378     0.037407307936     1.355919057896     1.007825032230
         H            1.294240270378     1.235030307936     0.206381057896     1.007825032230
         H           -1.924525729622     0.037397307936    -1.359563942104     1.007825032230
         H           -1.298424729622     1.235026307936    -0.210035942104     1.007825032230
         H            4.193864270378     1.273697307936     1.376674057896     1.007825032230
         H            5.034047270378     1.556965307936    -0.154147942104     1.007825032230
         H            3.562673270378     2.462058307936     0.226732057896     1.007825032230
         H           -4.198054729622     1.273690307936    -1.380316942104     1.007825032230
         H           -5.038229729622     1.556969307936     0.150508057896     1.007825032230
         H           -3.566855729622     2.462057307936    -0.230384942104     1.007825032230

  Basis Set: AUG-CC-PVTZ
    Blend: AUG-CC-PVTZ
  Basis Set: (AUG-CC-PVTZ AUX)
    Blend: AUG-CC-PVTZ-JKFIT
	 Reference Energy          =   -1030.5480416416335174 [Eh]
	 Singles Energy            =      -0.0000000000000000 [Eh]
	 Same-Spin Energy          =      -0.3663917591972076 [Eh]
	 Opposite-Spin Energy      =      -1.2646643997314868 [Eh]
	 Correlation Energy        =      -1.6310561589286945 [Eh]
	 Total Energy              =   -1032.1790978005622037 [Eh]

	 ================> DF-SCS-MP2 Energies <==================
	-----------------------------------------------------------
	 SCS Same-Spin Scale       =       0.3333333333333333 [-]
	 SCS Opposite-Spin Scale   =       1.2000000000000000 [-]
	 SCS Same-Spin Energy      =      -0.1221305863990692 [Eh]
	 SCS Opposite-Spin Energy  =      -1.5175972796777841 [Eh]
	 SCS Correlation Energy    =      -1.6397278660768533 [Eh]
	 SCS Total Energy          =   -1032.1877695077102999 [Eh]
	-----------------------------------------------------------

  Dipole Moment: [D]
     X:     0.0589      Y:     2.3035      Z:     0.0129     Total:     2.3043

*** Psi4 exiting successfully. Buy a developer a beer!
