                               Psi4 1.3.2 release

  ==> Input File <==

--------------------------------------------------------------------------
#psi4
#
memory 32 gb

molecule  {
0 1
  S       -1.0308584    -1.1316394     0.6460380
  S        0.8782890    -1.1051690    -0.5344860
  C       -3.2099880     0.3192330     0.3483480
  C        3.2100450     0.3191290    -0.3482450
  C       -1.8324130     0.2075460    -0.2961960
  C        1.8323260     0.2077250     0.2960560
  C       -4.0501360     1.4083560    -0.3151170
  C        4.0501580     1.4083440     0.3151070
  H       -3.7252280    -0.6448010     0.2732120
  H       -3.0976430     0.5365460     1.4164950
  H        3.7251890    -0.6449290    -0.2727580
  H        3.0979170     0.5361720    -1.4164690
  H       -1.9225110    -0.0397540    -1.3578050
  H       -1.2963130     1.1579500    -0.2084040
  H        1.9222090    -0.0392630     1.3577550
  H        1.2963150     1.1581420     0.2078810
  H       -4.1960450     1.1966780    -1.3784460
  H       -5.0360980     1.4800580     0.1524250
  H       -3.5647080     2.3850600    -0.2286020
  H        4.1958480     1.1969260     1.3785180
  H        5.0362170     1.4798500    -0.1522630
  H        3.5648250     2.3850640     0.2282510
units angstrom
no_reorient  #important for SAPT in psi4, default
symmetry c1  #important for SAPT in psi4, default
}

set PROPERTIES_ORIGIN ["COM"]
properties('MP2/aug-cc-pvtz', properties = ['dipole'])
--------------------------------------------------------------------------

    Molecular point group: c1
  Charge       = 0
  Multiplicity = 1
  Basis Set: AUG-CC-PVTZ
    Blend: AUG-CC-PVTZ
  Basis Set: (AUG-CC-PVTZ AUX)
    Blend: AUG-CC-PVTZ-JKFIT

    Orbital Energies [Eh]
    ---------------------

    Doubly Occupied:

       1A    -91.974847     2A    -91.968714     3A    -11.258609
       4A    -11.258487     5A    -11.234001     6A    -11.231535
       7A    -11.222903     8A    -11.221196     9A     -8.971550
      10A     -8.965689    11A     -6.652299    12A     -6.651165
      13A     -6.650197    14A     -6.646438    15A     -6.645511
      16A     -6.644462    17A     -1.096638    18A     -1.082670
      19A     -1.008437    20A     -0.966064    21A     -0.887752
      22A     -0.829898    23A     -0.805278    24A     -0.785340
      25A     -0.650707    26A     -0.648451    27A     -0.589632
      28A     -0.588236    29A     -0.578841    30A     -0.560323
      31A     -0.557036    32A     -0.539994    33A     -0.500576
      34A     -0.495456    35A     -0.487708    36A     -0.485832
      37A     -0.467011    38A     -0.461314    39A     -0.410080
      40A     -0.355048    41A     -0.347341

  @DF-RHF Final Energy: -1030.53517818449745

   => Energetics <=

    Nuclear Repulsion Energy =            522.8236139377714835
    One-Electron Energy =               -2455.9510573540255791
    Two-Electron Energy =                 902.5922652317568691
    Total Energy =                      -1030.5351781844974539
  Basis Set: (AUG-CC-PVTZ AUX)
    Blend: AUG-CC-PVTZ-RI
    Molecular point group: c1

    Geometry (in Angstrom), charge = 0, multiplicity = 1:

       Center              X                  Y                   Z               Mass
    ------------   -----------------  -----------------  -----------------  -----------------
         S           -0.998349490501    -1.046118828711     0.622274687189    31.972071174400
         S            0.910797909499    -1.019648428711    -0.558249312811    31.972071174400
         C           -3.177479090501     0.404753571289     0.324584687189    12.000000000000
         C            3.242553909499     0.404649571289    -0.372008312811    12.000000000000
         C           -1.799904090501     0.293066571289    -0.319959312811    12.000000000000
         C            1.864834909499     0.293245571289     0.272292687189    12.000000000000
         C           -4.017627090501     1.493876571289    -0.338880312811    12.000000000000
         C            4.082666909499     1.493864571289     0.291343687189    12.000000000000
         H           -3.692719090501    -0.559280428711     0.249448687189     1.007825032230
         H           -3.065134090501     0.622066571289     1.392731687189     1.007825032230
         H            3.757697909499    -0.559408428711    -0.296521312811     1.007825032230
         H            3.130425909499     0.621692571289    -1.440232312811     1.007825032230
         H           -1.890002090501     0.045766571289    -1.381568312811     1.007825032230
         H           -1.263804090501     1.243470571289    -0.232167312811     1.007825032230
         H            1.954717909499     0.046257571289     1.333991687189     1.007825032230
         H            1.328823909499     1.243662571289     0.184117687189     1.007825032230
         H           -4.163536090501     1.282198571289    -1.402209312811     1.007825032230
         H           -5.003589090501     1.565578571289     0.128661687189     1.007825032230
         H           -3.532199090501     2.470580571289    -0.252365312811     1.007825032230
         H            4.228356909499     1.282446571289     1.354754687189     1.007825032230
         H            5.068725909499     1.565370571289    -0.176026312811     1.007825032230
         H            3.597333909499     2.470584571289     0.204487687189     1.007825032230

  Basis Set: AUG-CC-PVTZ
    Blend: AUG-CC-PVTZ
  Basis Set: (AUG-CC-PVTZ AUX)
    Blend: AUG-CC-PVTZ-JKFIT
	 Reference Energy          =   -1030.5351781844974539 [Eh]
	 Singles Energy            =      -0.0000000000000000 [Eh]
	 Same-Spin Energy          =      -0.3657520830599345 [Eh]
	 Opposite-Spin Energy      =      -1.2670823146782257 [Eh]
	 Correlation Energy        =      -1.6328343977381601 [Eh]
	 Total Energy              =   -1032.1680125822356331 [Eh]

	 ================> DF-SCS-MP2 Energies <==================
	-----------------------------------------------------------
	 SCS Same-Spin Scale       =       0.3333333333333333 [-]
	 SCS Opposite-Spin Scale   =       1.2000000000000000 [-]
	 SCS Same-Spin Energy      =      -0.1219173610199781 [Eh]
	 SCS Opposite-Spin Energy  =      -1.5204987776138708 [Eh]
	 SCS Correlation Energy    =      -1.6424161386338489 [Eh]
	 SCS Total Energy          =   -1032.1775943231314159 [Eh]
	-----------------------------------------------------------

  Dipole Moment: [D]
     X:     0.0326      Y:     2.3177      Z:     0.0053     Total:     2.3180

*** Psi4 exiting successfully. Buy a developer a beer!
