                               Psi4 1.3.2 release

  ==> Input File <==

--------------------------------------------------------------------------
#psi4
#
memory 32 gb

molecule  {
0 1
  S       -0.8538289    -1.0993698     0.5150108
  S        0.8782890    -1.1051690    -0.5344860
  C       -3.2099880     0.3192330     0.3483480
  C        3.2100450     0.3191290    -0.3482450
  C       -1.8324130     0.2075460    -0.2961960
  C        1.8323260     0.2077250     0.2960560
  C       -4.0501360     1.4083560    -0.3151170
  C        4.0501580     1.4083440     0.3151070
  H       -3.7252280    -0.6448010     0.2732120
  H       -3.0976430     0.5365460     1.4164950
  H        3.7251890    -0.6449290    -0.2727580
  H        3.0979170     0.5361720    -1.4164690
  H       -1.9225110    -0.0397540    -1.3578050
  H       -1.2963130     1.1579500    -0.2084040
  H        1.9222090    -0.0392630     1.3577550
  H        1.2963150     1.1581420     0.2078810
  H       -4.1960450     1.1966780    -1.3784460
  H       -5.0360980     1.4800580     0.1524250
  H       -3.5647080     2.3850600    -0.2286020
  H        4.1958480     1.1969260     1.3785180
  H        5.0362170     1.4798500    -0.1522630
  H        3.5648250     2.3850640     0.2282510
units angstrom
no_reorient  #important for SAPT in psi4, default
symmetry c1  #important for SAPT in psi4, default
}

set PROPERTIES_ORIGIN ["COM"]
properties('MP2/aug-cc-pvtz', properties = ['dipole'])
--------------------------------------------------------------------------

    Molecular point group: c1
  Charge       = 0
  Multiplicity = 1
  Basis Set: AUG-CC-PVTZ
    Blend: AUG-CC-PVTZ
  Basis Set: (AUG-CC-PVTZ AUX)
    Blend: AUG-CC-PVTZ-JKFIT

    Orbital Energies [Eh]
    ---------------------

    Doubly Occupied:

       1A    -91.965345     2A    -91.964169     3A    -11.256508
       4A    -11.256486     5A    -11.233253     6A    -11.232755
       7A    -11.222499     8A    -11.222188     9A     -8.964561
      10A     -8.963431    11A     -6.645735    12A     -6.644594
      13A     -6.644387    14A     -6.643577    15A     -6.643344
      16A     -6.642486    17A     -1.105530    18A     -1.080551
      19A     -1.029282    20A     -0.964054    21A     -0.903739
      22A     -0.828560    23A     -0.806854    24A     -0.774443
      25A     -0.650350    26A     -0.648148    27A     -0.594556
      28A     -0.589633    29A     -0.584616    30A     -0.560901
      31A     -0.557914    32A     -0.536417    33A     -0.501872
      34A     -0.497084    35A     -0.488597    36A     -0.486097
      37A     -0.478617    38A     -0.464111    39A     -0.432890
      40A     -0.349665    41A     -0.340909

  @DF-RHF Final Energy: -1030.54915284460299

   => Energetics <=

    Nuclear Repulsion Energy =            530.2935261834270477
    One-Electron Energy =               -2470.8839372281590840
    Two-Electron Energy =                 910.0412582001290502
    Total Energy =                      -1030.5491528446029861
  Basis Set: (AUG-CC-PVTZ AUX)
    Blend: AUG-CC-PVTZ-RI
    Molecular point group: c1

    Geometry (in Angstrom), charge = 0, multiplicity = 1:

       Center              X                  Y                   Z               Mass
    ------------   -----------------  -----------------  -----------------  -----------------
         S           -0.859039820438    -1.020724940523     0.519165566951    31.972071174400
         S            0.873078079562    -1.026524140523    -0.530331233049    31.972071174400
         C           -3.215198920438     0.397877859477     0.352502766951    12.000000000000
         C            3.204834079562     0.397773859477    -0.344090233049    12.000000000000
         C           -1.837623920438     0.286190859477    -0.292041233049    12.000000000000
         C            1.827115079562     0.286369859477     0.300210766951    12.000000000000
         C           -4.055346920438     1.487000859477    -0.310962233049    12.000000000000
         C            4.044947079562     1.486988859477     0.319261766951    12.000000000000
         H           -3.730438920438    -0.566156140523     0.277366766951     1.007825032230
         H           -3.102853920438     0.615190859477     1.420649766951     1.007825032230
         H            3.719978079562    -0.566284140523    -0.268603233049     1.007825032230
         H            3.092706079562     0.614816859477    -1.412314233049     1.007825032230
         H           -1.927721920438     0.038890859477    -1.353650233049     1.007825032230
         H           -1.301523920438     1.236594859477    -0.204249233049     1.007825032230
         H            1.916998079562     0.039381859477     1.361909766951     1.007825032230
         H            1.291104079562     1.236786859477     0.212035766951     1.007825032230
         H           -4.201255920438     1.275322859477    -1.374291233049     1.007825032230
         H           -5.041308920438     1.558702859477     0.156579766951     1.007825032230
         H           -3.569918920438     2.463704859477    -0.224447233049     1.007825032230
         H            4.190637079562     1.275570859477     1.382672766951     1.007825032230
         H            5.031006079562     1.558494859477    -0.148108233049     1.007825032230
         H            3.559614079562     2.463708859477     0.232405766951     1.007825032230

  Basis Set: AUG-CC-PVTZ
    Blend: AUG-CC-PVTZ
  Basis Set: (AUG-CC-PVTZ AUX)
    Blend: AUG-CC-PVTZ-JKFIT
	 Reference Energy          =   -1030.5491528446029861 [Eh]
	 Singles Energy            =      -0.0000000000000000 [Eh]
	 Same-Spin Energy          =      -0.3667126727805271 [Eh]
	 Opposite-Spin Energy      =      -1.2644367191179802 [Eh]
	 Correlation Energy        =      -1.6311493918985072 [Eh]
	 Total Energy              =   -1032.1803022365015750 [Eh]

	 ================> DF-SCS-MP2 Energies <==================
	-----------------------------------------------------------
	 SCS Same-Spin Scale       =       0.3333333333333333 [-]
	 SCS Opposite-Spin Scale   =       1.2000000000000000 [-]
	 SCS Same-Spin Energy      =      -0.1222375575935090 [Eh]
	 SCS Opposite-Spin Energy  =      -1.5173240629415761 [Eh]
	 SCS Correlation Energy    =      -1.6395616205350851 [Eh]
	 SCS Total Energy          =   -1032.1887144651379913 [Eh]
	-----------------------------------------------------------

  Dipole Moment: [D]
     X:    -0.0035      Y:     2.2602      Z:    -0.0034     Total:     2.2602

*** Psi4 exiting successfully. Buy a developer a beer!
