                               Psi4 1.4a3.dev225

  ==> Input File <==

--------------------------------------------------------------------------
#psi4
#
memory 32 gb

molecule  {
0 1
  N        0.0000000     0.0000000    -0.3962120
  C        0.5437842     1.3195816     0.0812415
  C       -1.3676840    -0.1825860     0.0653790
  C        0.8419660    -1.0931550     0.0653780
  H       -0.0986800     2.0874130    -0.3180730
  H        1.5406910     1.4118460    -0.3180610
  H        0.5573710     1.3525640     1.1683600
  H       -1.9930390     0.6283540    -0.3180620
  H       -1.4500410    -0.1935870     1.1683600
  H       -1.7584160    -1.1291660    -0.3180720
  H        0.4523470    -2.0401980    -0.3180610
  H        0.8926760    -1.1589790     1.1683590
  H        1.8570930    -0.9582490    -0.3180760
units angstrom
no_reorient  #important for SAPT in psi4, default
symmetry c1  #important for SAPT in psi4, default
}

set PROPERTIES_ORIGIN ["COM"]
properties('MP2/aug-cc-pvtz', properties = ['dipole'])
--------------------------------------------------------------------------

    Molecular point group: c1
  Charge       = 0
  Multiplicity = 1
  Basis Set: AUG-CC-PVTZ
    Blend: AUG-CC-PVTZ
  Basis Set: (AUG-CC-PVTZ AUX)
    Blend: AUG-CC-PVTZ-JKFIT

    Orbital Energies [Eh]
    ---------------------

    Doubly Occupied:

       1A    -15.546731     2A    -11.239249     3A    -11.238903
       4A    -11.238886     5A     -1.213380     6A     -0.947585
       7A     -0.945220     8A     -0.804395     9A     -0.639548
      10A     -0.625789    11A     -0.621929    12A     -0.549272
      13A     -0.543395    14A     -0.520351    15A     -0.499534
      16A     -0.488784    17A     -0.356049

  @DF-RHF Final Energy:  -173.33253790060181

   => Energetics <=

    Nuclear Repulsion Energy =            138.0034829299600858
    One-Electron Energy =                -506.6340400180945949
    Two-Electron Energy =                 195.2980191875327307
    Total Energy =                       -173.3325379006018068
  Basis Set: (AUG-CC-PVTZ AUX)
    Blend: AUG-CC-PVTZ-RI
    Molecular point group: c1

    Geometry (in Angstrom), charge = 0, multiplicity = 1:

       Center              X                  Y                   Z               Mass
    ------------   -----------------  -----------------  -----------------  -----------------
         N           -0.003669943684    -0.008905603877    -0.372596741913    14.003074004430
         C            0.540114256316     1.310675996123     0.104856758087    12.000000000000
         C           -1.371353943684    -0.191491603877     0.088994258087    12.000000000000
         C            0.838296056316    -1.102060603877     0.088993258087    12.000000000000
         H           -0.102349943684     2.078507396123    -0.294457741913     1.007825032230
         H            1.537021056316     1.402940396123    -0.294445741913     1.007825032230
         H            0.553701056316     1.343658396123     1.191975258087     1.007825032230
         H           -1.996708943684     0.619448396123    -0.294446741913     1.007825032230
         H           -1.453710943684    -0.202492603877     1.191975258087     1.007825032230
         H           -1.762085943684    -1.138071603877    -0.294456741913     1.007825032230
         H            0.448677056316    -2.049103603877    -0.294445741913     1.007825032230
         H            0.889006056316    -1.167884603877     1.191974258087     1.007825032230
         H            1.853423056316    -0.967154603877    -0.294460741913     1.007825032230

  Basis Set: AUG-CC-PVTZ
    Blend: AUG-CC-PVTZ
  Basis Set: (AUG-CC-PVTZ AUX)
    Blend: AUG-CC-PVTZ-JKFIT
	 Reference Energy          =    -173.3325379006018068 [Eh]
	 Singles Energy            =      -0.0000000000000000 [Eh]
	 Same-Spin Energy          =      -0.1797530492885083 [Eh]
	 Opposite-Spin Energy      =      -0.6598947417731753 [Eh]
	 Correlation Energy        =      -0.8396477910616835 [Eh]
	 Total Energy              =    -174.1721856916634863 [Eh]

	 ================> DF-SCS-MP2 Energies <==================
	-----------------------------------------------------------
	 SCS Same-Spin Scale       =       0.3333333333333333 [-]
	 SCS Opposite-Spin Scale   =       1.2000000000000000 [-]
	 SCS Same-Spin Energy      =      -0.0599176830961694 [Eh]
	 SCS Opposite-Spin Energy  =      -0.7918736901278104 [Eh]
	 SCS Correlation Energy    =      -0.8517913732239798 [Eh]
	 SCS Total Energy          =    -174.1843292738257958 [Eh]
	-----------------------------------------------------------

  Dipole Moment: [D]
     X:     0.0389      Y:     0.0944      Z:     0.7261     Total:     0.7333

*** Psi4 exiting successfully. Buy a developer a beer!
