                               Psi4 1.3.2 release

  ==> Input File <==

--------------------------------------------------------------------------
#psi4
#
memory 32 gb

molecule  {
0 1
  N       -0.0266314    -0.0841174    -0.3463090
  C        1.3625880    -0.2166220     0.0654120
  C       -0.4937460     1.2883280     0.0654040
  C       -0.8688710    -1.0717530     0.0654350
  H        2.0081830     0.5783990    -0.3179200
  H        1.7296690    -1.1727270    -0.3177610
  H        1.4443180    -0.2293280     1.1684460
  H        0.1510090     2.0842750    -0.3173820
  H       -0.5237100     1.3654200     1.1684360
  H       -1.5048590     1.4500540    -0.3182880
  H       -1.8805550    -0.9115560    -0.3174590
  H       -0.9205810    -1.1360680     1.1684600
  H       -0.5033050    -2.0283170    -0.3180890
units angstrom
no_reorient  #important for SAPT in psi4, default
symmetry c1  #important for SAPT in psi4, default
}

set PROPERTIES_ORIGIN ["COM"]
properties('MP2/aug-cc-pvtz', properties = ['dipole'])
--------------------------------------------------------------------------

    Molecular point group: c1
  Charge       = 0
  Multiplicity = 1
  Basis Set: AUG-CC-PVTZ
    Blend: AUG-CC-PVTZ
  Basis Set: (AUG-CC-PVTZ AUX)
    Blend: AUG-CC-PVTZ-JKFIT

    Orbital Energies [Eh]
    ---------------------

    Doubly Occupied:

       1A    -15.542048     2A    -11.245093     3A    -11.241843
       4A    -11.233361     5A     -1.234625     6A     -0.958983
       7A     -0.943644     8A     -0.802025     9A     -0.646848
      10A     -0.635019    11A     -0.627817    12A     -0.547529
      13A     -0.539750    14A     -0.522547    15A     -0.516029
      16A     -0.480481    17A     -0.346569

  @DF-RHF Final Energy:  -173.32565305796896

   => Energetics <=

    Nuclear Repulsion Energy =            139.3498434114055158
    One-Electron Energy =                -509.2225701784855119
    Two-Electron Energy =                 196.5470737091110323
    Total Energy =                       -173.3256530579689638
  Basis Set: (AUG-CC-PVTZ AUX)
    Blend: AUG-CC-PVTZ-RI
    Molecular point group: c1

    Geometry (in Angstrom), charge = 0, multiplicity = 1:

       Center              X                  Y                   Z               Mass
    ------------   -----------------  -----------------  -----------------  -----------------
         N           -0.020315553689    -0.064170841866    -0.331354279221    14.003074004430
         C            1.368903846311    -0.196675441866     0.080366720779    12.000000000000
         C           -0.487430153689     1.308274558134     0.080358720779    12.000000000000
         C           -0.862555153689    -1.051806441866     0.080389720779    12.000000000000
         H            2.014498846311     0.598345558134    -0.302965279221     1.007825032230
         H            1.735984846311    -1.152780441866    -0.302806279221     1.007825032230
         H            1.450633846311    -0.209381441866     1.183400720779     1.007825032230
         H            0.157324846311     2.104221558134    -0.302427279221     1.007825032230
         H           -0.517394153689     1.385366558134     1.183390720779     1.007825032230
         H           -1.498543153689     1.470000558134    -0.303333279221     1.007825032230
         H           -1.874239153689    -0.891609441866    -0.302504279221     1.007825032230
         H           -0.914265153689    -1.116121441866     1.183414720779     1.007825032230
         H           -0.496989153689    -2.008370441866    -0.303134279221     1.007825032230

  Basis Set: AUG-CC-PVTZ
    Blend: AUG-CC-PVTZ
  Basis Set: (AUG-CC-PVTZ AUX)
    Blend: AUG-CC-PVTZ-JKFIT
	 Reference Energy          =    -173.3256530579689638 [Eh]
	 Singles Energy            =      -0.0000000000000000 [Eh]
	 Same-Spin Energy          =      -0.1802992669462831 [Eh]
	 Opposite-Spin Energy      =      -0.6595128748762852 [Eh]
	 Correlation Energy        =      -0.8398121418225682 [Eh]
	 Total Energy              =    -174.1654651997915266 [Eh]

	 ================> DF-SCS-MP2 Energies <==================
	-----------------------------------------------------------
	 SCS Same-Spin Scale       =       0.3333333333333333 [-]
	 SCS Opposite-Spin Scale   =       1.2000000000000000 [-]
	 SCS Same-Spin Energy      =      -0.0600997556487610 [Eh]
	 SCS Opposite-Spin Energy  =      -0.7914154498515422 [Eh]
	 SCS Correlation Energy    =      -0.8515152055003032 [Eh]
	 SCS Total Energy          =    -174.1771682634692695 [Eh]
	-----------------------------------------------------------

  Dipole Moment: [D]
     X:     0.1024      Y:     0.2638      Z:     0.4889     Total:     0.5649

*** Psi4 exiting successfully. Buy a developer a beer!
