                               Psi4 1.3.2 release

  ==> Input File <==

--------------------------------------------------------------------------
#psi4
#
memory 32 gb

molecule  {
0 1
  N        0.0158145     0.0417168    -0.4208639
  C        1.3625880    -0.2166220     0.0654120
  C       -0.4937460     1.2883280     0.0654040
  C       -0.8688710    -1.0717530     0.0654350
  H        2.0081830     0.5783990    -0.3179200
  H        1.7296690    -1.1727270    -0.3177610
  H        1.4443180    -0.2293280     1.1684460
  H        0.1510090     2.0842750    -0.3173820
  H       -0.5237100     1.3654200     1.1684360
  H       -1.5048590     1.4500540    -0.3182880
  H       -1.8805550    -0.9115560    -0.3174590
  H       -0.9205810    -1.1360680     1.1684600
  H       -0.5033050    -2.0283170    -0.3180890
units angstrom
no_reorient  #important for SAPT in psi4, default
symmetry c1  #important for SAPT in psi4, default
}

set PROPERTIES_ORIGIN ["COM"]
properties('MP2/aug-cc-pvtz', properties = ['dipole'])
--------------------------------------------------------------------------

    Molecular point group: c1
  Charge       = 0
  Multiplicity = 1
  Basis Set: AUG-CC-PVTZ
    Blend: AUG-CC-PVTZ
  Basis Set: (AUG-CC-PVTZ AUX)
    Blend: AUG-CC-PVTZ-JKFIT

    Orbital Energies [Eh]
    ---------------------

    Doubly Occupied:

       1A    -15.550166     2A    -11.243293     3A    -11.239999
       4A    -11.238101     5A     -1.221779     6A     -0.949619
       7A     -0.942483     8A     -0.806047     9A     -0.639808
      10A     -0.627875    11A     -0.624375    12A     -0.546673
      13A     -0.542333    14A     -0.515191    15A     -0.503650
      16A     -0.483520    17A     -0.361973

  @DF-RHF Final Energy:  -173.33159050697836

   => Energetics <=

    Nuclear Repulsion Energy =            138.4438166452525252
    One-Electron Energy =                -507.4770458495510752
    Two-Electron Energy =                 195.7016386973201918
    Total Energy =                       -173.3315905069783582
  Basis Set: (AUG-CC-PVTZ AUX)
    Blend: AUG-CC-PVTZ-RI
    Molecular point group: c1

    Geometry (in Angstrom), charge = 0, multiplicity = 1:

       Center              X                  Y                   Z               Mass
    ------------   -----------------  -----------------  -----------------  -----------------
         N            0.012068760558     0.031834997940    -0.388236317539    14.003074004430
         C            1.358842260558    -0.226503802060     0.098039582461    12.000000000000
         C           -0.497491739442     1.278446197940     0.098031582461    12.000000000000
         C           -0.872616739442    -1.081634802060     0.098062582461    12.000000000000
         H            2.004437260558     0.568517197940    -0.285292417539     1.007825032230
         H            1.725923260558    -1.182608802060    -0.285133417539     1.007825032230
         H            1.440572260558    -0.239209802060     1.201073582461     1.007825032230
         H            0.147263260558     2.074393197940    -0.284754417539     1.007825032230
         H           -0.527455739442     1.355538197940     1.201063582461     1.007825032230
         H           -1.508604739442     1.440172197940    -0.285660417539     1.007825032230
         H           -1.884300739442    -0.921437802060    -0.284831417539     1.007825032230
         H           -0.924326739442    -1.145949802060     1.201087582461     1.007825032230
         H           -0.507050739442    -2.038198802060    -0.285461417539     1.007825032230

  Basis Set: AUG-CC-PVTZ
    Blend: AUG-CC-PVTZ
  Basis Set: (AUG-CC-PVTZ AUX)
    Blend: AUG-CC-PVTZ-JKFIT
	 Reference Energy          =    -173.3315905069783582 [Eh]
	 Singles Energy            =      -0.0000000000000000 [Eh]
	 Same-Spin Energy          =      -0.1800700152641497 [Eh]
	 Opposite-Spin Energy      =      -0.6602817651637716 [Eh]
	 Correlation Energy        =      -0.8403517804279212 [Eh]
	 Total Energy              =    -174.1719422874062673 [Eh]

	 ================> DF-SCS-MP2 Energies <==================
	-----------------------------------------------------------
	 SCS Same-Spin Scale       =       0.3333333333333333 [-]
	 SCS Opposite-Spin Scale   =       1.2000000000000000 [-]
	 SCS Same-Spin Energy      =      -0.0600233384213832 [Eh]
	 SCS Opposite-Spin Energy  =      -0.7923381181965259 [Eh]
	 SCS Correlation Energy    =      -0.8523614566179092 [Eh]
	 SCS Total Energy          =    -174.1839519635962574 [Eh]
	-----------------------------------------------------------

  Dipole Moment: [D]
     X:    -0.0401      Y:    -0.1155      Z:     0.7590     Total:     0.7687

*** Psi4 exiting successfully. Buy a developer a beer!
