                               Psi4 1.4a3.dev225

  ==> Input File <==

--------------------------------------------------------------------------
#psi4
#
memory 32 gb

molecule  {
0 1
  N        0.0000000     0.0000000    -0.3962120
  C        0.5076518     1.2319004     0.0495165
  C       -1.3676840    -0.1825860     0.0653790
  C        0.8419660    -1.0931550     0.0653780
  H       -0.0986800     2.0874130    -0.3180730
  H        1.5406910     1.4118460    -0.3180610
  H        0.5573710     1.3525640     1.1683600
  H       -1.9930390     0.6283540    -0.3180620
  H       -1.4500410    -0.1935870     1.1683600
  H       -1.7584160    -1.1291660    -0.3180720
  H        0.4523470    -2.0401980    -0.3180610
  H        0.8926760    -1.1589790     1.1683590
  H        1.8570930    -0.9582490    -0.3180760
units angstrom
no_reorient  #important for SAPT in psi4, default
symmetry c1  #important for SAPT in psi4, default
}

set PROPERTIES_ORIGIN ["COM"]
properties('MP2/aug-cc-pvtz', properties = ['dipole'])
--------------------------------------------------------------------------

    Molecular point group: c1
  Charge       = 0
  Multiplicity = 1
  Basis Set: AUG-CC-PVTZ
    Blend: AUG-CC-PVTZ
  Basis Set: (AUG-CC-PVTZ AUX)
    Blend: AUG-CC-PVTZ-JKFIT

    Orbital Energies [Eh]
    ---------------------

    Doubly Occupied:

       1A    -15.547839     2A    -11.241940     3A    -11.241770
       4A    -11.241754     5A     -1.237139     6A     -0.950053
       7A     -0.948282     8A     -0.805468     9A     -0.644458
      10A     -0.633788    11A     -0.630324    12A     -0.543412
      13A     -0.539107    14A     -0.512662    15A     -0.504038
      16A     -0.492281    17A     -0.357800

  @DF-RHF Final Energy:  -173.33205232731422

   => Energetics <=

    Nuclear Repulsion Energy =            139.4870595055070339
    One-Electron Energy =                -509.4939938873810661
    Two-Electron Energy =                 196.6748820545598164
    Total Energy =                       -173.3320523273142157
  Basis Set: (AUG-CC-PVTZ AUX)
    Blend: AUG-CC-PVTZ-RI
    Molecular point group: c1

    Geometry (in Angstrom), charge = 0, multiplicity = 1:

       Center              X                  Y                   Z               Mass
    ------------   -----------------  -----------------  -----------------  -----------------
         N            0.003669875442     0.008905672119    -0.366152227799    14.003074004430
         C            0.511321675442     1.240806072119     0.079576272201    12.000000000000
         C           -1.364014124558    -0.173680327881     0.095438772201    12.000000000000
         C            0.845635875442    -1.084249327881     0.095437772201    12.000000000000
         H           -0.095010124558     2.096318672119    -0.288013227799     1.007825032230
         H            1.544360875442     1.420751672119    -0.288001227799     1.007825032230
         H            0.561040875442     1.361469672119     1.198419772201     1.007825032230
         H           -1.989369124558     0.637259672119    -0.288002227799     1.007825032230
         H           -1.446371124558    -0.184681327881     1.198419772201     1.007825032230
         H           -1.754746124558    -1.120260327881    -0.288012227799     1.007825032230
         H            0.456016875442    -2.031292327881    -0.288001227799     1.007825032230
         H            0.896345875442    -1.150073327881     1.198418772201     1.007825032230
         H            1.860762875442    -0.949343327881    -0.288016227799     1.007825032230

  Basis Set: AUG-CC-PVTZ
    Blend: AUG-CC-PVTZ
  Basis Set: (AUG-CC-PVTZ AUX)
    Blend: AUG-CC-PVTZ-JKFIT
	 Reference Energy          =    -173.3320523273142157 [Eh]
	 Singles Energy            =      -0.0000000000000000 [Eh]
	 Same-Spin Energy          =      -0.1803679723454723 [Eh]
	 Opposite-Spin Energy      =      -0.6597260327108802 [Eh]
	 Correlation Energy        =      -0.8400940050563525 [Eh]
	 Total Energy              =    -174.1721463323705734 [Eh]

	 ================> DF-SCS-MP2 Energies <==================
	-----------------------------------------------------------
	 SCS Same-Spin Scale       =       0.3333333333333333 [-]
	 SCS Opposite-Spin Scale   =       1.2000000000000000 [-]
	 SCS Same-Spin Energy      =      -0.0601226574484908 [Eh]
	 SCS Opposite-Spin Energy  =      -0.7916712392530562 [Eh]
	 SCS Correlation Energy    =      -0.8517938967015469 [Eh]
	 SCS Total Energy          =    -174.1838462240157526 [Eh]
	-----------------------------------------------------------

  Dipole Moment: [D]
     X:    -0.0473      Y:    -0.1147      Z:     0.6195     Total:     0.6318

*** Psi4 exiting successfully. Buy a developer a beer!
