                               Psi4 1.3.2 release

  ==> Input File <==

--------------------------------------------------------------------------
#psi4
#
memory 32 gb

molecule  {
0 1
  N        0.0332698     0.0830999    -0.4445703
  C        1.3625880    -0.2166220     0.0654120
  C       -0.4937460     1.2883280     0.0654040
  C       -0.8688710    -1.0717530     0.0654350
  H        2.0081830     0.5783990    -0.3179200
  H        1.7296690    -1.1727270    -0.3177610
  H        1.4443180    -0.2293280     1.1684460
  H        0.1510090     2.0842750    -0.3173820
  H       -0.5237100     1.3654200     1.1684360
  H       -1.5048590     1.4500540    -0.3182880
  H       -1.8805550    -0.9115560    -0.3174590
  H       -0.9205810    -1.1360680     1.1684600
  H       -0.5033050    -2.0283170    -0.3180890
units angstrom
no_reorient  #important for SAPT in psi4, default
symmetry c1  #important for SAPT in psi4, default
}

set PROPERTIES_ORIGIN ["COM"]
properties('MP2/aug-cc-pvtz', properties = ['dipole'])
--------------------------------------------------------------------------

    Molecular point group: c1
  Charge       = 0
  Multiplicity = 1
  Basis Set: AUG-CC-PVTZ
    Blend: AUG-CC-PVTZ
  Basis Set: (AUG-CC-PVTZ AUX)
    Blend: AUG-CC-PVTZ-JKFIT

    Orbital Energies [Eh]
    ---------------------

    Doubly Occupied:

       1A    -15.553168     2A    -11.246016     3A    -11.240137
       4A    -11.236308     5A     -1.220678     6A     -0.951917
       7A     -0.938135     8A     -0.806468     9A     -0.638518
      10A     -0.628423    11A     -0.621607    12A     -0.551742
      13A     -0.542244    14A     -0.515413    15A     -0.507133
      16A     -0.468508    17A     -0.366058

  @DF-RHF Final Energy:  -173.32431279769131

   => Energetics <=

    Nuclear Repulsion Energy =            138.1657086178280736
    One-Electron Energy =                -506.9150962511613443
    Two-Electron Energy =                 195.4250748356419933
    Total Energy =                       -173.3243127976913058
  Basis Set: (AUG-CC-PVTZ AUX)
    Blend: AUG-CC-PVTZ-RI
    Molecular point group: c1

    Geometry (in Angstrom), charge = 0, multiplicity = 1:

       Center              X                  Y                   Z               Mass
    ------------   -----------------  -----------------  -----------------  -----------------
         N            0.025386370044     0.063408443547    -0.406323235410    14.003074004430
         C            1.354704570044    -0.236313456453     0.103659064590    12.000000000000
         C           -0.501629429956     1.268636543547     0.103651064590    12.000000000000
         C           -0.876754429956    -1.091444456453     0.103682064590    12.000000000000
         H            2.000299570044     0.558707543547    -0.279672935410     1.007825032230
         H            1.721785570044    -1.192418456453    -0.279513935410     1.007825032230
         H            1.436434570044    -0.249019456453     1.206693064590     1.007825032230
         H            0.143125570044     2.064583543547    -0.279134935410     1.007825032230
         H           -0.531593429956     1.345728543547     1.206683064590     1.007825032230
         H           -1.512742429956     1.430362543547    -0.280040935410     1.007825032230
         H           -1.888438429956    -0.931247456453    -0.279211935410     1.007825032230
         H           -0.928464429956    -1.155759456453     1.206707064590     1.007825032230
         H           -0.511188429956    -2.048008456453    -0.279841935410     1.007825032230

  Basis Set: AUG-CC-PVTZ
    Blend: AUG-CC-PVTZ
  Basis Set: (AUG-CC-PVTZ AUX)
    Blend: AUG-CC-PVTZ-JKFIT
	 Reference Energy          =    -173.3243127976913058 [Eh]
	 Singles Energy            =      -0.0000000000000000 [Eh]
	 Same-Spin Energy          =      -0.1803357638524229 [Eh]
	 Opposite-Spin Energy      =      -0.6612573182846320 [Eh]
	 Correlation Energy        =      -0.8415930821370549 [Eh]
	 Total Energy              =    -174.1659058798283581 [Eh]

	 ================> DF-SCS-MP2 Energies <==================
	-----------------------------------------------------------
	 SCS Same-Spin Scale       =       0.3333333333333333 [-]
	 SCS Opposite-Spin Scale   =       1.2000000000000000 [-]
	 SCS Same-Spin Energy      =      -0.0601119212841410 [Eh]
	 SCS Opposite-Spin Energy  =      -0.7935087819415584 [Eh]
	 SCS Correlation Energy    =      -0.8536207032256994 [Eh]
	 SCS Total Energy          =    -174.1779335009169927 [Eh]
	-----------------------------------------------------------

  Dipole Moment: [D]
     X:    -0.0737      Y:    -0.2173      Z:     0.8324     Total:     0.8634

*** Psi4 exiting successfully. Buy a developer a beer!
