                               Psi4 1.3.2 release

  ==> Input File <==

--------------------------------------------------------------------------
#psi4
#
memory 32 gb

molecule  {
0 1
  N       -0.0374158    -0.1264534    -0.3204132
  C        1.3625880    -0.2166220     0.0654120
  C       -0.4937460     1.2883280     0.0654040
  C       -0.8688710    -1.0717530     0.0654350
  H        2.0081830     0.5783990    -0.3179200
  H        1.7296690    -1.1727270    -0.3177610
  H        1.4443180    -0.2293280     1.1684460
  H        0.1510090     2.0842750    -0.3173820
  H       -0.5237100     1.3654200     1.1684360
  H       -1.5048590     1.4500540    -0.3182880
  H       -1.8805550    -0.9115560    -0.3174590
  H       -0.9205810    -1.1360680     1.1684600
  H       -0.5033050    -2.0283170    -0.3180890
units angstrom
no_reorient  #important for SAPT in psi4, default
symmetry c1  #important for SAPT in psi4, default
}

set PROPERTIES_ORIGIN ["COM"]
properties('MP2/aug-cc-pvtz', properties = ['dipole'])
--------------------------------------------------------------------------

    Molecular point group: c1
  Charge       = 0
  Multiplicity = 1
  Basis Set: AUG-CC-PVTZ
    Blend: AUG-CC-PVTZ
  Basis Set: (AUG-CC-PVTZ AUX)
    Blend: AUG-CC-PVTZ-JKFIT

    Orbital Energies [Eh]
    ---------------------

    Doubly Occupied:

       1A    -15.539659     2A    -11.247693     3A    -11.243339
       4A    -11.229817     5A     -1.242672     6A     -0.965357
       7A     -0.942079     8A     -0.799699     9A     -0.650539
      10A     -0.639377    11A     -0.628680    12A     -0.553037
      13A     -0.539803    14A     -0.530751    15A     -0.516754
      16A     -0.469330    17A     -0.340349

  @DF-RHF Final Energy:  -173.31228832018240

   => Energetics <=

    Nuclear Repulsion Energy =            139.6843141228027321
    One-Electron Energy =                -509.8353349086630715
    Two-Electron Energy =                 196.8387324656779356
    Total Energy =                       -173.3122883201824038
  Basis Set: (AUG-CC-PVTZ AUX)
    Blend: AUG-CC-PVTZ-RI
    Molecular point group: c1

    Geometry (in Angstrom), charge = 0, multiplicity = 1:

       Center              X                  Y                   Z               Mass
    ------------   -----------------  -----------------  -----------------  -----------------
         N           -0.028543566255    -0.096471307352    -0.311596947538    14.003074004430
         C            1.371460233745    -0.186639907352     0.074228252462    12.000000000000
         C           -0.484873766255     1.318310092648     0.074220252462    12.000000000000
         C           -0.859998766255    -1.041770907352     0.074251252462    12.000000000000
         H            2.017055233745     0.608381092648    -0.309103747538     1.007825032230
         H            1.738541233745    -1.142744907352    -0.308944747538     1.007825032230
         H            1.453190233745    -0.199345907352     1.177262252462     1.007825032230
         H            0.159881233745     2.114257092648    -0.308565747538     1.007825032230
         H           -0.514837766255     1.395402092648     1.177252252462     1.007825032230
         H           -1.495986766255     1.480036092648    -0.309471747538     1.007825032230
         H           -1.871682766255    -0.881573907352    -0.308642747538     1.007825032230
         H           -0.911708766255    -1.106085907352     1.177276252462     1.007825032230
         H           -0.494432766255    -1.998334907352    -0.309272747538     1.007825032230

  Basis Set: AUG-CC-PVTZ
    Blend: AUG-CC-PVTZ
  Basis Set: (AUG-CC-PVTZ AUX)
    Blend: AUG-CC-PVTZ-JKFIT
	 Reference Energy          =    -173.3122883201824038 [Eh]
	 Singles Energy            =      -0.0000000000000000 [Eh]
	 Same-Spin Energy          =      -0.1807454289537108 [Eh]
	 Opposite-Spin Energy      =      -0.6600126111356845 [Eh]
	 Correlation Energy        =      -0.8407580400893953 [Eh]
	 Total Energy              =    -174.1530463602717873 [Eh]

	 ================> DF-SCS-MP2 Energies <==================
	-----------------------------------------------------------
	 SCS Same-Spin Scale       =       0.3333333333333333 [-]
	 SCS Opposite-Spin Scale   =       1.2000000000000000 [-]
	 SCS Same-Spin Energy      =      -0.0602484763179036 [Eh]
	 SCS Opposite-Spin Energy  =      -0.7920151333628215 [Eh]
	 SCS Correlation Energy    =      -0.8522636096807250 [Eh]
	 SCS Total Energy          =    -174.1645519298631370 [Eh]
	-----------------------------------------------------------

  Dipole Moment: [D]
     X:     0.1666      Y:     0.4074      Z:     0.3797     Total:     0.5813

*** Psi4 exiting successfully. Buy a developer a beer!
