                               Psi4 1.3.2 release

  ==> Input File <==

--------------------------------------------------------------------------
#psi4
#
memory 32 gb

molecule  {
0 1
  N        0.0000000     0.0000190    -0.3965650
  C        1.3624449    -0.2616514     0.0419263
  C       -0.4937460     1.2883280     0.0654040
  C       -0.8688710    -1.0717530     0.0654350
  H        2.0081830     0.5783990    -0.3179200
  H        1.7296690    -1.1727270    -0.3177610
  H        1.4443180    -0.2293280     1.1684460
  H        0.1510090     2.0842750    -0.3173820
  H       -0.5237100     1.3654200     1.1684360
  H       -1.5048590     1.4500540    -0.3182880
  H       -1.8805550    -0.9115560    -0.3174590
  H       -0.9205810    -1.1360680     1.1684600
  H       -0.5033050    -2.0283170    -0.3180890
units angstrom
no_reorient  #important for SAPT in psi4, default
symmetry c1  #important for SAPT in psi4, default
}

set PROPERTIES_ORIGIN ["COM"]
properties('MP2/aug-cc-pvtz', properties = ['dipole'])
--------------------------------------------------------------------------

    Molecular point group: c1
  Charge       = 0
  Multiplicity = 1
  Basis Set: AUG-CC-PVTZ
    Blend: AUG-CC-PVTZ
  Basis Set: (AUG-CC-PVTZ AUX)
    Blend: AUG-CC-PVTZ-JKFIT

    Orbital Energies [Eh]
    ---------------------

    Doubly Occupied:

       1A    -15.547302     2A    -11.241229     3A    -11.241061
       4A    -11.239687     5A     -1.223947     6A     -0.950241
       7A     -0.945789     8A     -0.805461     9A     -0.642359
      10A     -0.629483    11A     -0.626665    12A     -0.544081
      13A     -0.538167    14A     -0.519769    15A     -0.503834
      16A     -0.492157    17A     -0.355197

  @DF-RHF Final Energy:  -173.33173324186646

   => Energetics <=

    Nuclear Repulsion Energy =            138.6794666041734274
    One-Electron Energy =                -507.9295386994090791
    Two-Electron Energy =                 195.9183388533691641
    Total Energy =                       -173.3317332418664591
  Basis Set: (AUG-CC-PVTZ AUX)
    Blend: AUG-CC-PVTZ-RI
    Molecular point group: c1

    Geometry (in Angstrom), charge = 0, multiplicity = 1:

       Center              X                  Y                   Z               Mass
    ------------   -----------------  -----------------  -----------------  -----------------
         N            0.000032076610     0.009168577368    -0.364926539491    14.003074004430
         C            1.362476976610    -0.252501822632     0.073564760509    12.000000000000
         C           -0.493713923390     1.297477577368     0.097042460509    12.000000000000
         C           -0.868838923390    -1.062603422632     0.097073460509    12.000000000000
         H            2.008215076610     0.587548577368    -0.286281539491     1.007825032230
         H            1.729701076610    -1.163577422632    -0.286122539491     1.007825032230
         H            1.444350076610    -0.220178422632     1.200084460509     1.007825032230
         H            0.151041076610     2.093424577368    -0.285743539491     1.007825032230
         H           -0.523677923390     1.374569577368     1.200074460509     1.007825032230
         H           -1.504826923390     1.459203577368    -0.286649539491     1.007825032230
         H           -1.880522923390    -0.902406422632    -0.285820539491     1.007825032230
         H           -0.920548923390    -1.126918422632     1.200098460509     1.007825032230
         H           -0.503272923390    -2.019167422632    -0.286450539491     1.007825032230

  Basis Set: AUG-CC-PVTZ
    Blend: AUG-CC-PVTZ
  Basis Set: (AUG-CC-PVTZ AUX)
    Blend: AUG-CC-PVTZ-JKFIT
	 Reference Energy          =    -173.3317332418664591 [Eh]
	 Singles Energy            =      -0.0000000000000000 [Eh]
	 Same-Spin Energy          =      -0.1799953453191503 [Eh]
	 Opposite-Spin Energy      =      -0.6597159369635195 [Eh]
	 Correlation Energy        =      -0.8397112822826698 [Eh]
	 Total Energy              =    -174.1714445241491376 [Eh]

	 ================> DF-SCS-MP2 Energies <==================
	-----------------------------------------------------------
	 SCS Same-Spin Scale       =       0.3333333333333333 [-]
	 SCS Opposite-Spin Scale   =       1.2000000000000000 [-]
	 SCS Same-Spin Energy      =      -0.0599984484397168 [Eh]
	 SCS Opposite-Spin Energy  =      -0.7916591243562233 [Eh]
	 SCS Correlation Energy    =      -0.8516575727959401 [Eh]
	 SCS Total Energy          =    -174.1833908146624026 [Eh]
	-----------------------------------------------------------

  Dipole Moment: [D]
     X:    -0.0052      Y:    -0.0174      Z:     0.6340     Total:     0.6343

*** Psi4 exiting successfully. Buy a developer a beer!
