                               Psi4 1.3.2 release

  ==> Input File <==

--------------------------------------------------------------------------
#psi4
#
memory 32 gb

molecule  {
0 1
  N        0.0000000     0.0000190    -0.3965650
  C        1.3606419    -0.3063619     0.0179064
  C       -0.4937460     1.2883280     0.0654040
  C       -0.8688710    -1.0717530     0.0654350
  H        2.0081830     0.5783990    -0.3179200
  H        1.7296690    -1.1727270    -0.3177610
  H        1.4443180    -0.2293280     1.1684460
  H        0.1510090     2.0842750    -0.3173820
  H       -0.5237100     1.3654200     1.1684360
  H       -1.5048590     1.4500540    -0.3182880
  H       -1.8805550    -0.9115560    -0.3174590
  H       -0.9205810    -1.1360680     1.1684600
  H       -0.5033050    -2.0283170    -0.3180890
units angstrom
no_reorient  #important for SAPT in psi4, default
symmetry c1  #important for SAPT in psi4, default
}

set PROPERTIES_ORIGIN ["COM"]
properties('MP2/aug-cc-pvtz', properties = ['dipole'])
--------------------------------------------------------------------------

    Molecular point group: c1
  Charge       = 0
  Multiplicity = 1
  Basis Set: AUG-CC-PVTZ
    Blend: AUG-CC-PVTZ
  Basis Set: (AUG-CC-PVTZ AUX)
    Blend: AUG-CC-PVTZ-JKFIT

    Orbital Energies [Eh]
    ---------------------

    Doubly Occupied:

       1A    -15.547722     2A    -11.242848     3A    -11.242541
       4A    -11.239321     5A     -1.223944     6A     -0.953662
       7A     -0.944519     8A     -0.807002     9A     -0.647160
      10A     -0.629697    11A     -0.625770    12A     -0.546327
      13A     -0.536042    14A     -0.523345    15A     -0.505905
      16A     -0.484771    17A     -0.352955

  @DF-RHF Final Energy:  -173.32205930572741

   => Energetics <=

    Nuclear Repulsion Energy =            138.6403288927647282
    One-Electron Energy =                -507.8177178239748173
    Two-Electron Energy =                 195.8553296254826819
    Total Energy =                       -173.3220593057274073
  Basis Set: (AUG-CC-PVTZ AUX)
    Blend: AUG-CC-PVTZ-RI
    Molecular point group: c1

    Geometry (in Angstrom), charge = 0, multiplicity = 1:

       Center              X                  Y                   Z               Mass
    ------------   -----------------  -----------------  -----------------  -----------------
         N            0.000398332211     0.018250924045    -0.360047214524    14.003074004430
         C            1.361040232211    -0.288129975955     0.054424185476    12.000000000000
         C           -0.493347667789     1.306559924045     0.101921785476    12.000000000000
         C           -0.868472667789    -1.053521075955     0.101952785476    12.000000000000
         H            2.008581332211     0.596630924045    -0.281402214524     1.007825032230
         H            1.730067332211    -1.154495075955    -0.281243214524     1.007825032230
         H            1.444716332211    -0.211096075955     1.204963785476     1.007825032230
         H            0.151407332211     2.102506924045    -0.280864214524     1.007825032230
         H           -0.523311667789     1.383651924045     1.204953785476     1.007825032230
         H           -1.504460667789     1.468285924045    -0.281770214524     1.007825032230
         H           -1.880156667789    -0.893324075955    -0.280941214524     1.007825032230
         H           -0.920182667789    -1.117836075955     1.204977785476     1.007825032230
         H           -0.502906667789    -2.010085075955    -0.281571214524     1.007825032230

  Basis Set: AUG-CC-PVTZ
    Blend: AUG-CC-PVTZ
  Basis Set: (AUG-CC-PVTZ AUX)
    Blend: AUG-CC-PVTZ-JKFIT
	 Reference Energy          =    -173.3220593057274073 [Eh]
	 Singles Energy            =      -0.0000000000000000 [Eh]
	 Same-Spin Energy          =      -0.1801323228940409 [Eh]
	 Opposite-Spin Energy      =      -0.6601112490392949 [Eh]
	 Correlation Energy        =      -0.8402435719333358 [Eh]
	 Total Energy              =    -174.1623028776607498 [Eh]

	 ================> DF-SCS-MP2 Energies <==================
	-----------------------------------------------------------
	 SCS Same-Spin Scale       =       0.3333333333333333 [-]
	 SCS Opposite-Spin Scale   =       1.2000000000000000 [-]
	 SCS Same-Spin Energy      =      -0.0600441076313470 [Eh]
	 SCS Opposite-Spin Energy  =      -0.7921334988471538 [Eh]
	 SCS Correlation Energy    =      -0.8521776064785007 [Eh]
	 SCS Total Energy          =    -174.1742369122059131 [Eh]
	-----------------------------------------------------------

  Dipole Moment: [D]
     X:    -0.0251      Y:    -0.0271      Z:     0.5881     Total:     0.5893

*** Psi4 exiting successfully. Buy a developer a beer!
