                               Psi4 1.3.2 release

  ==> Input File <==

--------------------------------------------------------------------------
#psi4
#
memory 32 gb

molecule  {
0 1
  N       -0.0072858    -0.0209321    -0.3842026
  C        1.3625880    -0.2166220     0.0654120
  C       -0.4937460     1.2883280     0.0654040
  C       -0.8688710    -1.0717530     0.0654350
  H        2.0081830     0.5783990    -0.3179200
  H        1.7296690    -1.1727270    -0.3177610
  H        1.4443180    -0.2293280     1.1684460
  H        0.1510090     2.0842750    -0.3173820
  H       -0.5237100     1.3654200     1.1684360
  H       -1.5048590     1.4500540    -0.3182880
  H       -1.8805550    -0.9115560    -0.3174590
  H       -0.9205810    -1.1360680     1.1684600
  H       -0.5033050    -2.0283170    -0.3180890
units angstrom
no_reorient  #important for SAPT in psi4, default
symmetry c1  #important for SAPT in psi4, default
}

set PROPERTIES_ORIGIN ["COM"]
properties('MP2/aug-cc-pvtz', properties = ['dipole'])
--------------------------------------------------------------------------

    Molecular point group: c1
  Charge       = 0
  Multiplicity = 1
  Basis Set: AUG-CC-PVTZ
    Blend: AUG-CC-PVTZ
  Basis Set: (AUG-CC-PVTZ AUX)
    Blend: AUG-CC-PVTZ-JKFIT

    Orbital Energies [Eh]
    ---------------------

    Doubly Occupied:

       1A    -15.545951     2A    -11.241364     3A    -11.240465
       4A    -11.238568     5A     -1.226217     6A     -0.950141
       7A     -0.946423     8A     -0.804598     9A     -0.642654
      10A     -0.629264    11A     -0.627469    12A     -0.543555
      13A     -0.541631    14A     -0.515416    15A     -0.504776
      16A     -0.494309    17A     -0.354869

  @DF-RHF Final Energy:  -173.33442027047215

   => Energetics <=

    Nuclear Repulsion Energy =            138.8805612711381627
    One-Electron Energy =                -508.3346210933816565
    Two-Electron Energy =                 196.1196395517713427
    Total Energy =                       -173.3344202704721511
  Basis Set: (AUG-CC-PVTZ AUX)
    Blend: AUG-CC-PVTZ-RI
    Molecular point group: c1

    Geometry (in Angstrom), charge = 0, multiplicity = 1:

       Center              X                  Y                   Z               Mass
    ------------   -----------------  -----------------  -----------------  -----------------
         N           -0.005555730250    -0.015963297416    -0.360265393141    14.003074004430
         C            1.364318069750    -0.211653197416     0.089349206859    12.000000000000
         C           -0.492015930250     1.293296802584     0.089341206859    12.000000000000
         C           -0.867140930250    -1.066784197416     0.089372206859    12.000000000000
         H            2.009913069750     0.583367802584    -0.293982793141     1.007825032230
         H            1.731399069750    -1.167758197416    -0.293823793141     1.007825032230
         H            1.446048069750    -0.224359197416     1.192383206859     1.007825032230
         H            0.152739069750     2.089243802584    -0.293444793141     1.007825032230
         H           -0.521979930250     1.370388802584     1.192373206859     1.007825032230
         H           -1.503128930250     1.455022802584    -0.294350793141     1.007825032230
         H           -1.878824930250    -0.906587197416    -0.293521793141     1.007825032230
         H           -0.918850930250    -1.131099197416     1.192397206859     1.007825032230
         H           -0.501574930250    -2.023348197416    -0.294151793141     1.007825032230

  Basis Set: AUG-CC-PVTZ
    Blend: AUG-CC-PVTZ
  Basis Set: (AUG-CC-PVTZ AUX)
    Blend: AUG-CC-PVTZ-JKFIT
	 Reference Energy          =    -173.3344202704721511 [Eh]
	 Singles Energy            =      -0.0000000000000000 [Eh]
	 Same-Spin Energy          =      -0.1799837068233729 [Eh]
	 Opposite-Spin Energy      =      -0.6594791756793685 [Eh]
	 Correlation Energy        =      -0.8394628825027415 [Eh]
	 Total Energy              =    -174.1738831529748950 [Eh]

	 ================> DF-SCS-MP2 Energies <==================
	-----------------------------------------------------------
	 SCS Same-Spin Scale       =       0.3333333333333333 [-]
	 SCS Opposite-Spin Scale   =       1.2000000000000000 [-]
	 SCS Same-Spin Energy      =      -0.0599945689411243 [Eh]
	 SCS Opposite-Spin Energy  =      -0.7913750108152422 [Eh]
	 SCS Correlation Energy    =      -0.8513695797563665 [Eh]
	 SCS Total Energy          =    -174.1857898502285309 [Eh]
	-----------------------------------------------------------

  Dipole Moment: [D]
     X:     0.0227      Y:     0.0622      Z:     0.6341     Total:     0.6375

*** Psi4 exiting successfully. Buy a developer a beer!
