                               Psi4 1.3.2 release

  ==> Input File <==

--------------------------------------------------------------------------
#psi4
#
memory 32 gb

molecule  {
0 1
  N        0.0077009     0.0209041    -0.4087867
  C        1.3625880    -0.2166220     0.0654120
  C       -0.4937460     1.2883280     0.0654040
  C       -0.8688710    -1.0717530     0.0654350
  H        2.0081830     0.5783990    -0.3179200
  H        1.7296690    -1.1727270    -0.3177610
  H        1.4443180    -0.2293280     1.1684460
  H        0.1510090     2.0842750    -0.3173820
  H       -0.5237100     1.3654200     1.1684360
  H       -1.5048590     1.4500540    -0.3182880
  H       -1.8805550    -0.9115560    -0.3174590
  H       -0.9205810    -1.1360680     1.1684600
  H       -0.5033050    -2.0283170    -0.3180890
units angstrom
no_reorient  #important for SAPT in psi4, default
symmetry c1  #important for SAPT in psi4, default
}

set PROPERTIES_ORIGIN ["COM"]
properties('MP2/aug-cc-pvtz', properties = ['dipole'])
--------------------------------------------------------------------------

    Molecular point group: c1
  Charge       = 0
  Multiplicity = 1
  Basis Set: AUG-CC-PVTZ
    Blend: AUG-CC-PVTZ
  Basis Set: (AUG-CC-PVTZ AUX)
    Blend: AUG-CC-PVTZ-JKFIT

    Orbital Energies [Eh]
    ---------------------

    Doubly Occupied:

       1A    -15.548726     2A    -11.241793     3A    -11.240061
       4A    -11.239120     5A     -1.222858     6A     -0.948516
       7A     -0.944888     8A     -0.805682     9A     -0.640625
      10A     -0.627676    11A     -0.625910    12A     -0.544616
      13A     -0.542556    14A     -0.515212    15A     -0.501084
      16A     -0.490840    17A     -0.359734

  @DF-RHF Final Energy:  -173.33368915989575

   => Energetics <=

    Nuclear Repulsion Energy =            138.5863657279883796
    One-Electron Energy =                -507.7603181992880081
    Two-Electron Energy =                 195.8402633114038736
    Total Energy =                       -173.3336891598957550
  Basis Set: (AUG-CC-PVTZ AUX)
    Blend: AUG-CC-PVTZ-RI
    Molecular point group: c1

    Geometry (in Angstrom), charge = 0, multiplicity = 1:

       Center              X                  Y                   Z               Mass
    ------------   -----------------  -----------------  -----------------  -----------------
         N            0.005878448371     0.015955843130    -0.379021956670    14.003074004430
         C            1.360765548371    -0.221570256870     0.095176743330    12.000000000000
         C           -0.495568451629     1.283379743130     0.095168743330    12.000000000000
         C           -0.870693451629    -1.076701256870     0.095199743330    12.000000000000
         H            2.006360548371     0.573450743130    -0.288155256670     1.007825032230
         H            1.727846548371    -1.177675256870    -0.287996256670     1.007825032230
         H            1.442495548371    -0.234276256870     1.198210743330     1.007825032230
         H            0.149186548371     2.079326743130    -0.287617256670     1.007825032230
         H           -0.525532451629     1.360471743130     1.198200743330     1.007825032230
         H           -1.506681451629     1.445105743130    -0.288523256670     1.007825032230
         H           -1.882377451629    -0.916504256870    -0.287694256670     1.007825032230
         H           -0.922403451629    -1.141016256870     1.198224743330     1.007825032230
         H           -0.505127451629    -2.033265256870    -0.288324256670     1.007825032230

  Basis Set: AUG-CC-PVTZ
    Blend: AUG-CC-PVTZ
  Basis Set: (AUG-CC-PVTZ AUX)
    Blend: AUG-CC-PVTZ-JKFIT
	 Reference Energy          =    -173.3336891598957550 [Eh]
	 Singles Energy            =      -0.0000000000000000 [Eh]
	 Same-Spin Energy          =      -0.1799983929611639 [Eh]
	 Opposite-Spin Energy      =      -0.6599240634503457 [Eh]
	 Correlation Energy        =      -0.8399224564115096 [Eh]
	 Total Energy              =    -174.1736116163072552 [Eh]

	 ================> DF-SCS-MP2 Energies <==================
	-----------------------------------------------------------
	 SCS Same-Spin Scale       =       0.3333333333333333 [-]
	 SCS Opposite-Spin Scale   =       1.2000000000000000 [-]
	 SCS Same-Spin Energy      =      -0.0599994643203880 [Eh]
	 SCS Opposite-Spin Energy  =      -0.7919088761404148 [Eh]
	 SCS Correlation Energy    =      -0.8519083404608028 [Eh]
	 SCS Total Energy          =    -174.1855975003565504 [Eh]
	-----------------------------------------------------------

  Dipole Moment: [D]
     X:    -0.0209      Y:    -0.0593      Z:     0.7194     Total:     0.7222

*** Psi4 exiting successfully. Buy a developer a beer!
