                               Psi4 1.3.2 release

  ==> Input File <==

--------------------------------------------------------------------------
#psi4
#
memory 32 gb

molecule  {
0 1
  N        0.0000000     0.0000190    -0.3965650
  C        1.3610710    -0.1713287     0.0883348
  C       -0.4937460     1.2883280     0.0654040
  C       -0.8688710    -1.0717530     0.0654350
  H        2.0081830     0.5783990    -0.3179200
  H        1.7296690    -1.1727270    -0.3177610
  H        1.4443180    -0.2293280     1.1684460
  H        0.1510090     2.0842750    -0.3173820
  H       -0.5237100     1.3654200     1.1684360
  H       -1.5048590     1.4500540    -0.3182880
  H       -1.8805550    -0.9115560    -0.3174590
  H       -0.9205810    -1.1360680     1.1684600
  H       -0.5033050    -2.0283170    -0.3180890
units angstrom
no_reorient  #important for SAPT in psi4, default
symmetry c1  #important for SAPT in psi4, default
}

set PROPERTIES_ORIGIN ["COM"]
properties('MP2/aug-cc-pvtz', properties = ['dipole'])
--------------------------------------------------------------------------

    Molecular point group: c1
  Charge       = 0
  Multiplicity = 1
  Basis Set: AUG-CC-PVTZ
    Blend: AUG-CC-PVTZ
  Basis Set: (AUG-CC-PVTZ AUX)
    Blend: AUG-CC-PVTZ-JKFIT

    Orbital Energies [Eh]
    ---------------------

    Doubly Occupied:

       1A    -15.547763     2A    -11.240893     3A    -11.240332
       4A    -11.239498     5A     -1.225099     6A     -0.949430
       7A     -0.945209     8A     -0.805906     9A     -0.644157
      10A     -0.628564    11A     -0.624550    12A     -0.548717
      13A     -0.542477    14A     -0.513685    15A     -0.502061
      16A     -0.486807    17A     -0.359457

  @DF-RHF Final Energy:  -173.33168519155456

   => Energetics <=

    Nuclear Repulsion Energy =            138.7950502983854051
    One-Electron Energy =                -508.1642640461923293
    Two-Electron Energy =                 196.0375285562523970
    Total Energy =                       -173.3316851915545556
  Basis Set: (AUG-CC-PVTZ AUX)
    Blend: AUG-CC-PVTZ-RI
    Molecular point group: c1

    Geometry (in Angstrom), charge = 0, multiplicity = 1:

       Center              X                  Y                   Z               Mass
    ------------   -----------------  -----------------  -----------------  -----------------
         N            0.000311166222    -0.009179284413    -0.374353812408    14.003074004430
         C            1.361382166222    -0.180526984413     0.110545987592    12.000000000000
         C           -0.493434833778     1.279129715587     0.087615187592    12.000000000000
         C           -0.868559833778    -1.080951284413     0.087646187592    12.000000000000
         H            2.008494166222     0.569200715587    -0.295708812408     1.007825032230
         H            1.729980166222    -1.181925284413    -0.295549812408     1.007825032230
         H            1.444629166222    -0.238526284413     1.190657187592     1.007825032230
         H            0.151320166222     2.075076715587    -0.295170812408     1.007825032230
         H           -0.523398833778     1.356221715587     1.190647187592     1.007825032230
         H           -1.504547833778     1.440855715587    -0.296076812408     1.007825032230
         H           -1.880243833778    -0.920754284413    -0.295247812408     1.007825032230
         H           -0.920269833778    -1.145266284413     1.190671187592     1.007825032230
         H           -0.502993833778    -2.037515284413    -0.295877812408     1.007825032230

  Basis Set: AUG-CC-PVTZ
    Blend: AUG-CC-PVTZ
  Basis Set: (AUG-CC-PVTZ AUX)
    Blend: AUG-CC-PVTZ-JKFIT
	 Reference Energy          =    -173.3316851915545556 [Eh]
	 Singles Energy            =      -0.0000000000000000 [Eh]
	 Same-Spin Energy          =      -0.1800508401362182 [Eh]
	 Opposite-Spin Energy      =      -0.6599166264798807 [Eh]
	 Correlation Energy        =      -0.8399674666160989 [Eh]
	 Total Energy              =    -174.1716526581706432 [Eh]

	 ================> DF-SCS-MP2 Energies <==================
	-----------------------------------------------------------
	 SCS Same-Spin Scale       =       0.3333333333333333 [-]
	 SCS Opposite-Spin Scale   =       1.2000000000000000 [-]
	 SCS Same-Spin Energy      =      -0.0600169467120727 [Eh]
	 SCS Opposite-Spin Energy  =      -0.7918999517758568 [Eh]
	 SCS Correlation Energy    =      -0.8519168984879295 [Eh]
	 SCS Total Energy          =    -174.1836020900424842 [Eh]
	-----------------------------------------------------------

  Dipole Moment: [D]
     X:    -0.0090      Y:     0.0246      Z:     0.7195     Total:     0.7200

*** Psi4 exiting successfully. Buy a developer a beer!
