                               Psi4 1.3.2 release

  ==> Input File <==

--------------------------------------------------------------------------
#psi4
#
memory 32 gb

molecule  {
0 1
  N        0.0000000     0.0000190    -0.3965650
  C        1.3571811    -0.3506992    -0.0066185
  C       -0.4937460     1.2883280     0.0654040
  C       -0.8688710    -1.0717530     0.0654350
  H        2.0081830     0.5783990    -0.3179200
  H        1.7296690    -1.1727270    -0.3177610
  H        1.4443180    -0.2293280     1.1684460
  H        0.1510090     2.0842750    -0.3173820
  H       -0.5237100     1.3654200     1.1684360
  H       -1.5048590     1.4500540    -0.3182880
  H       -1.8805550    -0.9115560    -0.3174590
  H       -0.9205810    -1.1360680     1.1684600
  H       -0.5033050    -2.0283170    -0.3180890
units angstrom
no_reorient  #important for SAPT in psi4, default
symmetry c1  #important for SAPT in psi4, default
}

set PROPERTIES_ORIGIN ["COM"]
properties('MP2/aug-cc-pvtz', properties = ['dipole'])
--------------------------------------------------------------------------

    Molecular point group: c1
  Charge       = 0
  Multiplicity = 1
  Basis Set: AUG-CC-PVTZ
    Blend: AUG-CC-PVTZ
  Basis Set: (AUG-CC-PVTZ AUX)
    Blend: AUG-CC-PVTZ-JKFIT

    Orbital Energies [Eh]
    ---------------------

    Doubly Occupied:

       1A    -15.548591     2A    -11.245559     3A    -11.244138
       4A    -11.239123     5A     -1.224305     6A     -0.957794
       7A     -0.943682     8A     -0.810109     9A     -0.654125
      10A     -0.629593    11A     -0.624750    12A     -0.549927
      13A     -0.537200    14A     -0.522337    15A     -0.506763
      16A     -0.476140    17A     -0.350625

  @DF-RHF Final Energy:  -173.30483399682848

   => Energetics <=

    Nuclear Repulsion Energy =            138.6163529275048916
    One-Electron Energy =                -507.7128513439305380
    Two-Electron Energy =                 195.7916644195971969
    Total Energy =                       -173.3048339968284779
  Basis Set: (AUG-CC-PVTZ AUX)
    Blend: AUG-CC-PVTZ-RI
    Molecular point group: c1

    Geometry (in Angstrom), charge = 0, multiplicity = 1:

       Center              X                  Y                   Z               Mass
    ------------   -----------------  -----------------  -----------------  -----------------
         N            0.001101347954     0.027257460078    -0.355065305486    14.003074004430
         C            1.358282447954    -0.323460739922     0.034881194514    12.000000000000
         C           -0.492644652046     1.315566460078     0.106903694514    12.000000000000
         C           -0.867769652046    -1.044514539922     0.106934694514    12.000000000000
         H            2.009284347954     0.605637460078    -0.276420305486     1.007825032230
         H            1.730770347954    -1.145488539922    -0.276261305486     1.007825032230
         H            1.445419347954    -0.202089539922     1.209945694514     1.007825032230
         H            0.152110347954     2.111513460078    -0.275882305486     1.007825032230
         H           -0.522608652046     1.392658460078     1.209935694514     1.007825032230
         H           -1.503757652046     1.477292460078    -0.276788305486     1.007825032230
         H           -1.879453652046    -0.884317539922    -0.275959305486     1.007825032230
         H           -0.919479652046    -1.108829539922     1.209959694514     1.007825032230
         H           -0.502203652046    -2.001078539922    -0.276589305486     1.007825032230

  Basis Set: AUG-CC-PVTZ
    Blend: AUG-CC-PVTZ
  Basis Set: (AUG-CC-PVTZ AUX)
    Blend: AUG-CC-PVTZ-JKFIT
	 Reference Energy          =    -173.3048339968284779 [Eh]
	 Singles Energy            =      -0.0000000000000000 [Eh]
	 Same-Spin Energy          =      -0.1803830897433316 [Eh]
	 Opposite-Spin Energy      =      -0.6608502065238280 [Eh]
	 Correlation Energy        =      -0.8412332962671596 [Eh]
	 Total Energy              =    -174.1460672930956264 [Eh]

	 ================> DF-SCS-MP2 Energies <==================
	-----------------------------------------------------------
	 SCS Same-Spin Scale       =       0.3333333333333333 [-]
	 SCS Opposite-Spin Scale   =       1.2000000000000000 [-]
	 SCS Same-Spin Energy      =      -0.0601276965811105 [Eh]
	 SCS Opposite-Spin Energy  =      -0.7930202478285936 [Eh]
	 SCS Correlation Energy    =      -0.8531479444097041 [Eh]
	 SCS Total Energy          =    -174.1579819412381767 [Eh]
	-----------------------------------------------------------

  Dipole Moment: [D]
     X:    -0.0602      Y:    -0.0294      Z:     0.5401     Total:     0.5442

*** Psi4 exiting successfully. Buy a developer a beer!
