                               Psi4 1.3.2 release

  ==> Input File <==

--------------------------------------------------------------------------
#psi4
#
memory 32 gb

molecule  {
0 1
  N       -0.0141544    -0.0419428    -0.3717033
  C        1.3625880    -0.2166220     0.0654120
  C       -0.4937460     1.2883280     0.0654040
  C       -0.8688710    -1.0717530     0.0654350
  H        2.0081830     0.5783990    -0.3179200
  H        1.7296690    -1.1727270    -0.3177610
  H        1.4443180    -0.2293280     1.1684460
  H        0.1510090     2.0842750    -0.3173820
  H       -0.5237100     1.3654200     1.1684360
  H       -1.5048590     1.4500540    -0.3182880
  H       -1.8805550    -0.9115560    -0.3174590
  H       -0.9205810    -1.1360680     1.1684600
  H       -0.5033050    -2.0283170    -0.3180890
units angstrom
no_reorient  #important for SAPT in psi4, default
symmetry c1  #important for SAPT in psi4, default
}

set PROPERTIES_ORIGIN ["COM"]
properties('MP2/aug-cc-pvtz', properties = ['dipole'])
--------------------------------------------------------------------------

    Molecular point group: c1
  Charge       = 0
  Multiplicity = 1
  Basis Set: AUG-CC-PVTZ
    Blend: AUG-CC-PVTZ
  Basis Set: (AUG-CC-PVTZ AUX)
    Blend: AUG-CC-PVTZ-JKFIT

    Orbital Energies [Eh]
    ---------------------

    Doubly Occupied:

       1A    -15.544614     2A    -11.242569     3A    -11.240816
       4A    -11.236868     5A     -1.228550     6A     -0.952973
       7A     -0.945444     8A     -0.803867     9A     -0.643888
      10A     -0.631084    11A     -0.627483    12A     -0.544452
      13A     -0.540690    14A     -0.515602    15A     -0.511212
      16A     -0.490148    17A     -0.352238

  @DF-RHF Final Energy:  -173.33289390406071

   => Energetics <=

    Nuclear Repulsion Energy =            139.0329493913685326
    One-Electron Energy =                -508.6266899455863495
    Two-Electron Energy =                 196.2608466501570774
    Total Energy =                       -173.3328939040607111
  Basis Set: (AUG-CC-PVTZ AUX)
    Blend: AUG-CC-PVTZ-RI
    Molecular point group: c1

    Geometry (in Angstrom), charge = 0, multiplicity = 1:

       Center              X                  Y                   Z               Mass
    ------------   -----------------  -----------------  -----------------  -----------------
         N           -0.010796163386    -0.031993517327    -0.350728988940    14.003074004430
         C            1.365946236614    -0.206672717327     0.086386311060    12.000000000000
         C           -0.490387763386     1.298277282673     0.086378311060    12.000000000000
         C           -0.865512763386    -1.061803717327     0.086409311060    12.000000000000
         H            2.011541236614     0.588348282673    -0.296945688940     1.007825032230
         H            1.733027236614    -1.162777717327    -0.296786688940     1.007825032230
         H            1.447676236614    -0.219378717327     1.189420311060     1.007825032230
         H            0.154367236614     2.094224282673    -0.296407688940     1.007825032230
         H           -0.520351763386     1.375369282673     1.189410311060     1.007825032230
         H           -1.501500763386     1.460003282673    -0.297313688940     1.007825032230
         H           -1.877196763386    -0.901606717327    -0.296484688940     1.007825032230
         H           -0.917222763386    -1.126118717327     1.189434311060     1.007825032230
         H           -0.499946763386    -2.018367717327    -0.297114688940     1.007825032230

  Basis Set: AUG-CC-PVTZ
    Blend: AUG-CC-PVTZ
  Basis Set: (AUG-CC-PVTZ AUX)
    Blend: AUG-CC-PVTZ-JKFIT
	 Reference Energy          =    -173.3328939040607111 [Eh]
	 Singles Energy            =      -0.0000000000000000 [Eh]
	 Same-Spin Energy          =      -0.1800428706794748 [Eh]
	 Opposite-Spin Energy      =      -0.6593956177558989 [Eh]
	 Correlation Energy        =      -0.8394384884353737 [Eh]
	 Total Energy              =    -174.1723323924960880 [Eh]

	 ================> DF-SCS-MP2 Energies <==================
	-----------------------------------------------------------
	 SCS Same-Spin Scale       =       0.3333333333333333 [-]
	 SCS Opposite-Spin Scale   =       1.2000000000000000 [-]
	 SCS Same-Spin Energy      =      -0.0600142902264916 [Eh]
	 SCS Opposite-Spin Energy  =      -0.7912747413070788 [Eh]
	 SCS Correlation Energy    =      -0.8512890315335704 [Eh]
	 SCS Total Energy          =    -174.1841829355942934 [Eh]
	-----------------------------------------------------------

  Dipole Moment: [D]
     X:     0.0472      Y:     0.1271      Z:     0.5881     Total:     0.6035

*** Psi4 exiting successfully. Buy a developer a beer!
