                               Psi4 1.3.2 release

  ==> Input File <==

--------------------------------------------------------------------------
#psi4
#
memory 32 gb

molecule  {
0 1
  N        0.0000000     0.0000000    -0.3962120
  C        0.5329445     1.2932772     0.0717240
  C       -1.3676840    -0.1825860     0.0653790
  C        0.8419660    -1.0931550     0.0653780
  H       -0.0986800     2.0874130    -0.3180730
  H        1.5406910     1.4118460    -0.3180610
  H        0.5573710     1.3525640     1.1683600
  H       -1.9930390     0.6283540    -0.3180620
  H       -1.4500410    -0.1935870     1.1683600
  H       -1.7584160    -1.1291660    -0.3180720
  H        0.4523470    -2.0401980    -0.3180610
  H        0.8926760    -1.1589790     1.1683590
  H        1.8570930    -0.9582490    -0.3180760
units angstrom
no_reorient  #important for SAPT in psi4, default
symmetry c1  #important for SAPT in psi4, default
}

set PROPERTIES_ORIGIN ["COM"]
properties('MP2/aug-cc-pvtz', properties = ['dipole'])
--------------------------------------------------------------------------

    Molecular point group: c1
  Charge       = 0
  Multiplicity = 1
  Basis Set: AUG-CC-PVTZ
    Blend: AUG-CC-PVTZ
  Basis Set: (AUG-CC-PVTZ AUX)
    Blend: AUG-CC-PVTZ-JKFIT

    Orbital Energies [Eh]
    ---------------------

    Doubly Occupied:

       1A    -15.547076     2A    -11.239729     3A    -11.239663
       4A    -11.239646     5A     -1.219720     6A     -0.947411
       7A     -0.946525     8A     -0.804916     9A     -0.640643
      10A     -0.626723    11A     -0.625215    12A     -0.545295
      13A     -0.542996    14A     -0.517194    15A     -0.498961
      16A     -0.494574    17A     -0.356887

  @DF-RHF Final Energy:  -173.33433237881977

   => Energetics <=

    Nuclear Repulsion Energy =            138.4351118610118476
    One-Electron Energy =                -507.4725417610326303
    Two-Electron Energy =                 195.7030975212010446
    Total Energy =                       -173.3343323788197665
  Basis Set: (AUG-CC-PVTZ AUX)
    Blend: AUG-CC-PVTZ-RI
    Molecular point group: c1

    Geometry (in Angstrom), charge = 0, multiplicity = 1:

       Center              X                  Y                   Z               Mass
    ------------   -----------------  -----------------  -----------------  -----------------
         N           -0.001468002009    -0.003562212953    -0.370663387679    14.003074004430
         C            0.531476497991     1.289714987047     0.097272612321    12.000000000000
         C           -1.369152002009    -0.186148212953     0.090927612321    12.000000000000
         C            0.840497997991    -1.096717212953     0.090926612321    12.000000000000
         H           -0.100148002009     2.083850787047    -0.292524387679     1.007825032230
         H            1.539222997991     1.408283787047    -0.292512387679     1.007825032230
         H            0.555902997991     1.349001787047     1.193908612321     1.007825032230
         H           -1.994507002009     0.624791787047    -0.292513387679     1.007825032230
         H           -1.451509002009    -0.197149212953     1.193908612321     1.007825032230
         H           -1.759884002009    -1.132728212953    -0.292523387679     1.007825032230
         H            0.450878997991    -2.043760212953    -0.292512387679     1.007825032230
         H            0.891207997991    -1.162541212953     1.193907612321     1.007825032230
         H            1.855624997991    -0.961811212953    -0.292527387679     1.007825032230

  Basis Set: AUG-CC-PVTZ
    Blend: AUG-CC-PVTZ
  Basis Set: (AUG-CC-PVTZ AUX)
    Blend: AUG-CC-PVTZ-JKFIT
	 Reference Energy          =    -173.3343323788197665 [Eh]
	 Singles Energy            =      -0.0000000000000000 [Eh]
	 Same-Spin Energy          =      -0.1798585956248971 [Eh]
	 Opposite-Spin Energy      =      -0.6597100964717409 [Eh]
	 Correlation Energy        =      -0.8395686920966381 [Eh]
	 Total Energy              =    -174.1739010709164006 [Eh]

	 ================> DF-SCS-MP2 Energies <==================
	-----------------------------------------------------------
	 SCS Same-Spin Scale       =       0.3333333333333333 [-]
	 SCS Opposite-Spin Scale   =       1.2000000000000000 [-]
	 SCS Same-Spin Energy      =      -0.0599528652082990 [Eh]
	 SCS Opposite-Spin Energy  =      -0.7916521157660891 [Eh]
	 SCS Correlation Energy    =      -0.8516049809743881 [Eh]
	 SCS Total Energy          =    -174.1859373597941669 [Eh]
	-----------------------------------------------------------

  Dipole Moment: [D]
     X:     0.0165      Y:     0.0401      Z:     0.6977     Total:     0.6990

*** Psi4 exiting successfully. Buy a developer a beer!
