                               Psi4 1.3.2 release

  ==> Input File <==

--------------------------------------------------------------------------
#psi4
#
memory 32 gb

molecule  {
0 1
  N        0.0000000     0.0000190    -0.3965650
  C        1.3530661    -0.0801713     0.1323810
  C       -0.4937460     1.2883280     0.0654040
  C       -0.8688710    -1.0717530     0.0654350
  H        2.0081830     0.5783990    -0.3179200
  H        1.7296690    -1.1727270    -0.3177610
  H        1.4443180    -0.2293280     1.1684460
  H        0.1510090     2.0842750    -0.3173820
  H       -0.5237100     1.3654200     1.1684360
  H       -1.5048590     1.4500540    -0.3182880
  H       -1.8805550    -0.9115560    -0.3174590
  H       -0.9205810    -1.1360680     1.1684600
  H       -0.5033050    -2.0283170    -0.3180890
units angstrom
no_reorient  #important for SAPT in psi4, default
symmetry c1  #important for SAPT in psi4, default
}

set PROPERTIES_ORIGIN ["COM"]
properties('MP2/aug-cc-pvtz', properties = ['dipole'])
--------------------------------------------------------------------------

    Molecular point group: c1
  Charge       = 0
  Multiplicity = 1
  Basis Set: AUG-CC-PVTZ
    Blend: AUG-CC-PVTZ
  Basis Set: (AUG-CC-PVTZ AUX)
    Blend: AUG-CC-PVTZ-JKFIT

    Orbital Energies [Eh]
    ---------------------

    Doubly Occupied:

       1A    -15.549812     2A    -11.243526     3A    -11.242659
       4A    -11.239008     5A     -1.227828     6A     -0.954192
       7A     -0.942102     8A     -0.809109     9A     -0.653880
      10A     -0.631399    11A     -0.620032    12A     -0.560292
      13A     -0.542775    14A     -0.514845    15A     -0.506306
      16A     -0.457201    17A     -0.363220

  @DF-RHF Final Energy:  -173.31157811472679

   => Energetics <=

    Nuclear Repulsion Energy =            138.9437918523480278
    One-Electron Energy =                -508.3943630139856964
    Two-Electron Energy =                 196.1389930469108549
    Total Energy =                       -173.3115781147267853
  Basis Set: (AUG-CC-PVTZ AUX)
    Blend: AUG-CC-PVTZ-RI
    Molecular point group: c1

    Geometry (in Angstrom), charge = 0, multiplicity = 1:

       Center              X                  Y                   Z               Mass
    ------------   -----------------  -----------------  -----------------  -----------------
         N            0.001937255774    -0.027696704459    -0.383301215326    14.003074004430
         C            1.355003355774    -0.107887004459     0.145644784674    12.000000000000
         C           -0.491808744226     1.260612295541     0.078667784674    12.000000000000
         C           -0.866933744226    -1.099468704459     0.078698784674    12.000000000000
         H            2.010120255774     0.550683295541    -0.304656215326     1.007825032230
         H            1.731606255774    -1.200442704459    -0.304497215326     1.007825032230
         H            1.446255255774    -0.257043704459     1.181709784674     1.007825032230
         H            0.152946255774     2.056559295541    -0.304118215326     1.007825032230
         H           -0.521772744226     1.337704295541     1.181699784674     1.007825032230
         H           -1.502921744226     1.422338295541    -0.305024215326     1.007825032230
         H           -1.878617744226    -0.939271704459    -0.304195215326     1.007825032230
         H           -0.918643744226    -1.163783704459     1.181723784674     1.007825032230
         H           -0.501367744226    -2.056032704459    -0.304825215326     1.007825032230

  Basis Set: AUG-CC-PVTZ
    Blend: AUG-CC-PVTZ
  Basis Set: (AUG-CC-PVTZ AUX)
    Blend: AUG-CC-PVTZ-JKFIT
	 Reference Energy          =    -173.3115781147267853 [Eh]
	 Singles Energy            =      -0.0000000000000000 [Eh]
	 Same-Spin Energy          =      -0.1805257531272225 [Eh]
	 Opposite-Spin Energy      =      -0.6612957724707262 [Eh]
	 Correlation Energy        =      -0.8418215255979488 [Eh]
	 Total Energy              =    -174.1533996403247215 [Eh]

	 ================> DF-SCS-MP2 Energies <==================
	-----------------------------------------------------------
	 SCS Same-Spin Scale       =       0.3333333333333333 [-]
	 SCS Opposite-Spin Scale   =       1.2000000000000000 [-]
	 SCS Same-Spin Energy      =      -0.0601752510424075 [Eh]
	 SCS Opposite-Spin Energy  =      -0.7935549269648715 [Eh]
	 SCS Correlation Energy    =      -0.8537301780072790 [Eh]
	 SCS Total Energy          =    -174.1653082927340677 [Eh]
	-----------------------------------------------------------

  Dipole Moment: [D]
     X:    -0.0658      Y:     0.0923      Z:     0.7951     Total:     0.8032

*** Psi4 exiting successfully. Buy a developer a beer!
