                               Psi4 1.3.2 release

  ==> Input File <==

--------------------------------------------------------------------------
#psi4
#
memory 32 gb

molecule  {
0 1
  N        0.0000000     0.0000190    -0.3965650
  C        1.2689388    -0.2017325     0.0336608
  C       -0.4937460     1.2883280     0.0654040
  C       -0.8688710    -1.0717530     0.0654350
  H        2.0081830     0.5783990    -0.3179200
  H        1.7296690    -1.1727270    -0.3177610
  H        1.4443180    -0.2293280     1.1684460
  H        0.1510090     2.0842750    -0.3173820
  H       -0.5237100     1.3654200     1.1684360
  H       -1.5048590     1.4500540    -0.3182880
  H       -1.8805550    -0.9115560    -0.3174590
  H       -0.9205810    -1.1360680     1.1684600
  H       -0.5033050    -2.0283170    -0.3180890
units angstrom
no_reorient  #important for SAPT in psi4, default
symmetry c1  #important for SAPT in psi4, default
}

set PROPERTIES_ORIGIN ["COM"]
properties('MP2/aug-cc-pvtz', properties = ['dipole'])
--------------------------------------------------------------------------

    Molecular point group: c1
  Charge       = 0
  Multiplicity = 1
  Basis Set: AUG-CC-PVTZ
    Blend: AUG-CC-PVTZ
  Basis Set: (AUG-CC-PVTZ AUX)
    Blend: AUG-CC-PVTZ-JKFIT

    Orbital Energies [Eh]
    ---------------------

    Doubly Occupied:

       1A    -15.548453     2A    -11.244382     3A    -11.243640
       4A    -11.243624     5A     -1.252213     6A     -0.953069
       7A     -0.950296     8A     -0.805037     9A     -0.648422
      10A     -0.640482    11A     -0.634201    12A     -0.544518
      13A     -0.539627    14A     -0.512945    15A     -0.505507
      16A     -0.482448    17A     -0.357320

  @DF-RHF Final Energy:  -173.32368599713880

   => Energetics <=

    Nuclear Repulsion Energy =            140.2870781468558619
    One-Electron Energy =                -511.0091589579689071
    Two-Electron Energy =                 197.3983948139742779
    Total Energy =                       -173.3236859971387958
  Basis Set: (AUG-CC-PVTZ AUX)
    Blend: AUG-CC-PVTZ-RI
    Molecular point group: c1

    Geometry (in Angstrom), charge = 0, multiplicity = 1:

       Center              X                  Y                   Z               Mass
    ------------   -----------------  -----------------  -----------------  -----------------
         N            0.019026603993    -0.003003154603    -0.363247512496    14.003074004430
         C            1.287965403993    -0.204754654603     0.066978287504    12.000000000000
         C           -0.474719396007     1.285305845397     0.098721487504    12.000000000000
         C           -0.849844396007    -1.074775154603     0.098752487504    12.000000000000
         H            2.027209603993     0.575376845397    -0.284602512496     1.007825032230
         H            1.748695603993    -1.175749154603    -0.284443512496     1.007825032230
         H            1.463344603993    -0.232350154603     1.201763487504     1.007825032230
         H            0.170035603993     2.081252845397    -0.284064512496     1.007825032230
         H           -0.504683396007     1.362397845397     1.201753487504     1.007825032230
         H           -1.485832396007     1.447031845397    -0.284970512496     1.007825032230
         H           -1.861528396007    -0.914578154603    -0.284141512496     1.007825032230
         H           -0.901554396007    -1.139090154603     1.201777487504     1.007825032230
         H           -0.484278396007    -2.031339154603    -0.284771512496     1.007825032230

  Basis Set: AUG-CC-PVTZ
    Blend: AUG-CC-PVTZ
  Basis Set: (AUG-CC-PVTZ AUX)
    Blend: AUG-CC-PVTZ-JKFIT
	 Reference Energy          =    -173.3236859971387958 [Eh]
	 Singles Energy            =      -0.0000000000000000 [Eh]
	 Same-Spin Energy          =      -0.1809722731933097 [Eh]
	 Opposite-Spin Energy      =      -0.6601383008746977 [Eh]
	 Correlation Energy        =      -0.8411105740680074 [Eh]
	 Total Energy              =    -174.1647965712068071 [Eh]

	 ================> DF-SCS-MP2 Energies <==================
	-----------------------------------------------------------
	 SCS Same-Spin Scale       =       0.3333333333333333 [-]
	 SCS Opposite-Spin Scale   =       1.2000000000000000 [-]
	 SCS Same-Spin Energy      =      -0.0603240910644365 [Eh]
	 SCS Opposite-Spin Energy  =      -0.7921659610496372 [Eh]
	 SCS Correlation Energy    =      -0.8524900521140738 [Eh]
	 SCS Total Energy          =    -174.1761760492528595 [Eh]
	-----------------------------------------------------------

  Dipole Moment: [D]
     X:    -0.2694      Y:     0.0427      Z:     0.5533     Total:     0.6169

*** Psi4 exiting successfully. Buy a developer a beer!
