                               Psi4 1.3.2 release

  ==> Input File <==

--------------------------------------------------------------------------
#psi4
#
memory 32 gb

molecule  {
0 1
  N        0.0000000     0.0000190    -0.3965650
  C        1.3627240    -0.2391731     0.0537377
  C       -0.4937460     1.2883280     0.0654040
  C       -0.8688710    -1.0717530     0.0654350
  H        2.0081830     0.5783990    -0.3179200
  H        1.7296690    -1.1727270    -0.3177610
  H        1.4443180    -0.2293280     1.1684460
  H        0.1510090     2.0842750    -0.3173820
  H       -0.5237100     1.3654200     1.1684360
  H       -1.5048590     1.4500540    -0.3182880
  H       -1.8805550    -0.9115560    -0.3174590
  H       -0.9205810    -1.1360680     1.1684600
  H       -0.5033050    -2.0283170    -0.3180890
units angstrom
no_reorient  #important for SAPT in psi4, default
symmetry c1  #important for SAPT in psi4, default
}

set PROPERTIES_ORIGIN ["COM"]
properties('MP2/aug-cc-pvtz', properties = ['dipole'])
--------------------------------------------------------------------------

    Molecular point group: c1
  Charge       = 0
  Multiplicity = 1
  Basis Set: AUG-CC-PVTZ
    Blend: AUG-CC-PVTZ
  Basis Set: (AUG-CC-PVTZ AUX)
    Blend: AUG-CC-PVTZ-JKFIT

    Orbital Energies [Eh]
    ---------------------

    Doubly Occupied:

       1A    -15.547258     2A    -11.240683     3A    -11.240519
       4A    -11.239931     5A     -1.224090     6A     -0.948771
       7A     -0.946571     8A     -0.805191     9A     -0.641424
      10A     -0.628754    11A     -0.627093    12A     -0.543407
      13A     -0.540351    14A     -0.517252    15A     -0.501587
      16A     -0.495266    17A     -0.356291

  @DF-RHF Final Energy:  -173.33398728361189

   => Energetics <=

    Nuclear Repulsion Energy =            138.7041288914491588
    One-Electron Energy =                -507.9873529926745164
    Two-Electron Energy =                 195.9492368176134676
    Total Energy =                       -173.3339872836118900
  Basis Set: (AUG-CC-PVTZ AUX)
    Blend: AUG-CC-PVTZ-RI
    Molecular point group: c1

    Geometry (in Angstrom), charge = 0, multiplicity = 1:

       Center              X                  Y                   Z               Mass
    ------------   -----------------  -----------------  -----------------  -----------------
         N           -0.000024618864     0.004602408050    -0.367325869168    14.003074004430
         C            1.362699381136    -0.234589691950     0.082976830832    12.000000000000
         C           -0.493770618864     1.292911408050     0.094643130832    12.000000000000
         C           -0.868895618864    -1.067169591950     0.094674130832    12.000000000000
         H            2.008158381136     0.582982408050    -0.288680869168     1.007825032230
         H            1.729644381136    -1.168143591950    -0.288521869168     1.007825032230
         H            1.444293381136    -0.224744591950     1.197685130832     1.007825032230
         H            0.150984381136     2.088858408050    -0.288142869168     1.007825032230
         H           -0.523734618864     1.370003408050     1.197675130832     1.007825032230
         H           -1.504883618864     1.454637408050    -0.289048869168     1.007825032230
         H           -1.880579618864    -0.906972591950    -0.288219869168     1.007825032230
         H           -0.920605618864    -1.131484591950     1.197699130832     1.007825032230
         H           -0.503329618864    -2.023733591950    -0.288849869168     1.007825032230

  Basis Set: AUG-CC-PVTZ
    Blend: AUG-CC-PVTZ
  Basis Set: (AUG-CC-PVTZ AUX)
    Blend: AUG-CC-PVTZ-JKFIT
	 Reference Energy          =    -173.3339872836118900 [Eh]
	 Singles Energy            =      -0.0000000000000000 [Eh]
	 Same-Spin Energy          =      -0.1799686267412411 [Eh]
	 Opposite-Spin Energy      =      -0.6596446814766315 [Eh]
	 Correlation Energy        =      -0.8396133082178726 [Eh]
	 Total Energy              =    -174.1736005918297678 [Eh]

	 ================> DF-SCS-MP2 Energies <==================
	-----------------------------------------------------------
	 SCS Same-Spin Scale       =       0.3333333333333333 [-]
	 SCS Opposite-Spin Scale   =       1.2000000000000000 [-]
	 SCS Same-Spin Energy      =      -0.0599895422470804 [Eh]
	 SCS Opposite-Spin Energy  =      -0.7915736177719578 [Eh]
	 SCS Correlation Energy    =      -0.8515631600190382 [Eh]
	 SCS Total Energy          =    -174.1855504436309161 [Eh]
	-----------------------------------------------------------

  Dipole Moment: [D]
     X:    -0.0008      Y:    -0.0096      Z:     0.6562     Total:     0.6563

*** Psi4 exiting successfully. Buy a developer a beer!
