                               Psi4 1.3.2 release

  ==> Input File <==

--------------------------------------------------------------------------
#psi4
#
memory 32 gb

molecule  {
0 1
  N        0.0000000     0.0000190    -0.3965650
  C        1.5498863    -0.2464010     0.1289143
  C       -0.4937460     1.2883280     0.0654040
  C       -0.8688710    -1.0717530     0.0654350
  H        2.0081830     0.5783990    -0.3179200
  H        1.7296690    -1.1727270    -0.3177610
  H        1.4443180    -0.2293280     1.1684460
  H        0.1510090     2.0842750    -0.3173820
  H       -0.5237100     1.3654200     1.1684360
  H       -1.5048590     1.4500540    -0.3182880
  H       -1.8805550    -0.9115560    -0.3174590
  H       -0.9205810    -1.1360680     1.1684600
  H       -0.5033050    -2.0283170    -0.3180890
units angstrom
no_reorient  #important for SAPT in psi4, default
symmetry c1  #important for SAPT in psi4, default
}

set PROPERTIES_ORIGIN ["COM"]
properties('MP2/aug-cc-pvtz', properties = ['dipole'])
--------------------------------------------------------------------------

    Molecular point group: c1
  Charge       = 0
  Multiplicity = 1
  Basis Set: AUG-CC-PVTZ
    Blend: AUG-CC-PVTZ
  Basis Set: (AUG-CC-PVTZ AUX)
    Blend: AUG-CC-PVTZ-JKFIT

    Orbital Energies [Eh]
    ---------------------

    Doubly Occupied:

       1A    -15.544772     2A    -11.241269     3A    -11.236054
       4A    -11.236037     5A     -1.189538     6A     -0.951157
       7A     -0.940116     8A     -0.800907     9A     -0.638226
      10A     -0.625548    11A     -0.609356    12A     -0.569431
      13A     -0.551422    14A     -0.528905    15A     -0.497711
      16A     -0.454747    17A     -0.349130

  @DF-RHF Final Energy:  -173.30624700976040

   => Energetics <=

    Nuclear Repulsion Energy =            135.9730631383438606
    One-Electron Energy =                -502.6299628848509542
    Two-Electron Energy =                 193.3506527367466674
    Total Energy =                       -173.3062470097603978
  Basis Set: (AUG-CC-PVTZ AUX)
    Blend: AUG-CC-PVTZ-RI
    Molecular point group: c1

    Geometry (in Angstrom), charge = 0, multiplicity = 1:

       Center              X                  Y                   Z               Mass
    ------------   -----------------  -----------------  -----------------  -----------------
         N           -0.038044164461     0.006070660329    -0.382597001076    14.003074004430
         C            1.511842135539    -0.240349339671     0.142882298924    12.000000000000
         C           -0.531790164461     1.294379660329     0.079371998924    12.000000000000
         C           -0.906915164461    -1.065701339671     0.079402998924    12.000000000000
         H            1.970138835539     0.584450660329    -0.303952001076     1.007825032230
         H            1.691624835539    -1.166675339671    -0.303793001076     1.007825032230
         H            1.406273835539    -0.223276339671     1.182413998924     1.007825032230
         H            0.112964835539     2.090326660329    -0.303414001076     1.007825032230
         H           -0.561754164461     1.371471660329     1.182403998924     1.007825032230
         H           -1.542903164461     1.456105660329    -0.304320001076     1.007825032230
         H           -1.918599164461    -0.905504339671    -0.303491001076     1.007825032230
         H           -0.958625164461    -1.130016339671     1.182427998924     1.007825032230
         H           -0.541349164461    -2.022265339671    -0.304121001076     1.007825032230

  Basis Set: AUG-CC-PVTZ
    Blend: AUG-CC-PVTZ
  Basis Set: (AUG-CC-PVTZ AUX)
    Blend: AUG-CC-PVTZ-JKFIT
	 Reference Energy          =    -173.3062470097603978 [Eh]
	 Singles Energy            =      -0.0000000000000000 [Eh]
	 Same-Spin Energy          =      -0.1801330114755478 [Eh]
	 Opposite-Spin Energy      =      -0.6624309183515973 [Eh]
	 Correlation Energy        =      -0.8425639298271451 [Eh]
	 Total Energy              =    -174.1488109395875483 [Eh]

	 ================> DF-SCS-MP2 Energies <==================
	-----------------------------------------------------------
	 SCS Same-Spin Scale       =       0.3333333333333333 [-]
	 SCS Opposite-Spin Scale   =       1.2000000000000000 [-]
	 SCS Same-Spin Energy      =      -0.0600443371585159 [Eh]
	 SCS Opposite-Spin Energy  =      -0.7949171020219167 [Eh]
	 SCS Correlation Energy    =      -0.8549614391804327 [Eh]
	 SCS Total Energy          =    -174.1612084489408403 [Eh]
	-----------------------------------------------------------

  Dipole Moment: [D]
     X:     0.2796      Y:    -0.0445      Z:     0.8288     Total:     0.8758

*** Psi4 exiting successfully. Buy a developer a beer!
