                               Psi4 1.3.2 release

  ==> Input File <==

--------------------------------------------------------------------------
#psi4
#
memory 32 gb

molecule  {
0 1
  N        0.0523446     0.1241179    -0.4676553
  C        1.3625880    -0.2166220     0.0654120
  C       -0.4937460     1.2883280     0.0654040
  C       -0.8688710    -1.0717530     0.0654350
  H        2.0081830     0.5783990    -0.3179200
  H        1.7296690    -1.1727270    -0.3177610
  H        1.4443180    -0.2293280     1.1684460
  H        0.1510090     2.0842750    -0.3173820
  H       -0.5237100     1.3654200     1.1684360
  H       -1.5048590     1.4500540    -0.3182880
  H       -1.8805550    -0.9115560    -0.3174590
  H       -0.9205810    -1.1360680     1.1684600
  H       -0.5033050    -2.0283170    -0.3180890
units angstrom
no_reorient  #important for SAPT in psi4, default
symmetry c1  #important for SAPT in psi4, default
}

set PROPERTIES_ORIGIN ["COM"]
properties('MP2/aug-cc-pvtz', properties = ['dipole'])
--------------------------------------------------------------------------

    Molecular point group: c1
  Charge       = 0
  Multiplicity = 1
  Basis Set: AUG-CC-PVTZ
    Blend: AUG-CC-PVTZ
  Basis Set: (AUG-CC-PVTZ AUX)
    Blend: AUG-CC-PVTZ-JKFIT

    Orbital Energies [Eh]
    ---------------------

    Doubly Occupied:

       1A    -15.556372     2A    -11.248307     3A    -11.240601
       4A    -11.234894     5A     -1.220788     6A     -0.954309
       7A     -0.934391     8A     -0.806562     9A     -0.637621
      10A     -0.629125    11A     -0.619286    12A     -0.557624
      13A     -0.542468    14A     -0.516185    15A     -0.508554
      16A     -0.453409    17A     -0.369558

  @DF-RHF Final Energy:  -173.31342137896058

   => Energetics <=

    Nuclear Repulsion Energy =            137.8938381844148751
    One-Electron Energy =                -506.3544127347878430
    Two-Electron Energy =                 195.1471531714123557
    Total Energy =                       -173.3134213789605838
  Basis Set: (AUG-CC-PVTZ AUX)
    Blend: AUG-CC-PVTZ-RI
    Molecular point group: c1

    Geometry (in Angstrom), charge = 0, multiplicity = 1:

       Center              X                  Y                   Z               Mass
    ------------   -----------------  -----------------  -----------------  -----------------
         N            0.039939585252     0.094703334262    -0.423936053006    14.003074004430
         C            1.350182985252    -0.246036565738     0.109131246994    12.000000000000
         C           -0.506151014748     1.258913434262     0.109123246994    12.000000000000
         C           -0.881276014748    -1.101167565738     0.109154246994    12.000000000000
         H            1.995777985252     0.548984434262    -0.274200753006     1.007825032230
         H            1.717263985252    -1.202141565738    -0.274041753006     1.007825032230
         H            1.431912985252    -0.258742565738     1.212165246994     1.007825032230
         H            0.138603985252     2.054860434262    -0.273662753006     1.007825032230
         H           -0.536115014748     1.336005434262     1.212155246994     1.007825032230
         H           -1.517264014748     1.420639434262    -0.274568753006     1.007825032230
         H           -1.892960014748    -0.940970565738    -0.273739753006     1.007825032230
         H           -0.932986014748    -1.165482565738     1.212179246994     1.007825032230
         H           -0.515710014748    -2.057731565738    -0.274369753006     1.007825032230

  Basis Set: AUG-CC-PVTZ
    Blend: AUG-CC-PVTZ
  Basis Set: (AUG-CC-PVTZ AUX)
    Blend: AUG-CC-PVTZ-JKFIT
	 Reference Energy          =    -173.3134213789605838 [Eh]
	 Singles Energy            =      -0.0000000000000000 [Eh]
	 Same-Spin Energy          =      -0.1807559691636624 [Eh]
	 Opposite-Spin Energy      =      -0.6625653094209224 [Eh]
	 Correlation Energy        =      -0.8433212785845848 [Eh]
	 Total Energy              =    -174.1567426575451805 [Eh]

	 ================> DF-SCS-MP2 Energies <==================
	-----------------------------------------------------------
	 SCS Same-Spin Scale       =       0.3333333333333333 [-]
	 SCS Opposite-Spin Scale   =       1.2000000000000000 [-]
	 SCS Same-Spin Energy      =      -0.0602519897212208 [Eh]
	 SCS Opposite-Spin Energy  =      -0.7950783713051068 [Eh]
	 SCS Correlation Energy    =      -0.8553303610263276 [Eh]
	 SCS Total Energy          =    -174.1687517399869023 [Eh]
	-----------------------------------------------------------

  Dipole Moment: [D]
     X:    -0.1013      Y:    -0.3043      Z:     0.8988     Total:     0.9543

*** Psi4 exiting successfully. Buy a developer a beer!
