                               Psi4 1.3.2 release

  ==> Input File <==

--------------------------------------------------------------------------
#psi4
#
memory 32 gb

molecule  {
0 1
  N        0.0000000     0.0000190    -0.3965650
  C        1.3625880    -0.2166220     0.0654120
  C       -0.4937460     1.2883280     0.0654040
  C       -0.8688710    -1.0717530     0.0654350
  H        2.0081830     0.5783990    -0.3179200
  H        1.7296690    -1.1727270    -0.3177610
  H        1.4443180    -0.2293280     1.1684460
  H        0.1510090     2.0842750    -0.3173820
  H       -0.5237100     1.3654200     1.1684360
  H       -1.5048590     1.4500540    -0.3182880
  H       -1.8805550    -0.9115560    -0.3174590
  H       -0.9205810    -1.1360680     1.1684600
  H       -0.5033050    -2.0283170    -0.3180890
units angstrom
no_reorient  #important for SAPT in psi4, default
symmetry c1  #important for SAPT in psi4, default
}

set PROPERTIES_ORIGIN ["COM"]
properties('MP2/aug-cc-pvtz', properties = ['dipole'])
--------------------------------------------------------------------------

    Molecular point group: c1
  Charge       = 0
  Multiplicity = 1
  Basis Set: AUG-CC-PVTZ
    Blend: AUG-CC-PVTZ
  Basis Set: (AUG-CC-PVTZ AUX)
    Blend: AUG-CC-PVTZ-JKFIT

    Orbital Energies [Eh]
    ---------------------

    Doubly Occupied:

       1A    -15.547321     2A    -11.240222     3A    -11.240220
       4A    -11.240198     5A     -1.224328     6A     -0.947449
       7A     -0.947443     8A     -0.805201     9A     -0.641570
      10A     -0.627540    11A     -0.627537    12A     -0.542947
      13A     -0.542934    14A     -0.515289    15A     -0.497965
      16A     -0.497951    17A     -0.357367

  @DF-RHF Final Energy:  -173.33465867067821

   => Energetics <=

    Nuclear Repulsion Energy =            138.7318174110193070
    One-Electron Energy =                -508.0459897909649953
    Two-Electron Energy =                 195.9795137092675077
    Total Energy =                       -173.3346586706782091
  Basis Set: (AUG-CC-PVTZ AUX)
    Blend: AUG-CC-PVTZ-RI
    Molecular point group: c1

    Geometry (in Angstrom), charge = 0, multiplicity = 1:

       Center              X                  Y                   Z               Mass
    ------------   -----------------  -----------------  -----------------  -----------------
         N            0.000003007737     0.000021450374    -0.369697348794    14.003074004430
         C            1.362591007737    -0.216619549626     0.092279651206    12.000000000000
         C           -0.493742992263     1.288330450374     0.092271651206    12.000000000000
         C           -0.868867992263    -1.071750549626     0.092302651206    12.000000000000
         H            2.008186007737     0.578401450374    -0.291052348794     1.007825032230
         H            1.729672007737    -1.172724549626    -0.290893348794     1.007825032230
         H            1.444321007737    -0.229325549626     1.195313651206     1.007825032230
         H            0.151012007737     2.084277450374    -0.290514348794     1.007825032230
         H           -0.523706992263     1.365422450374     1.195303651206     1.007825032230
         H           -1.504855992263     1.450056450374    -0.291420348794     1.007825032230
         H           -1.880551992263    -0.911553549626    -0.290591348794     1.007825032230
         H           -0.920577992263    -1.136065549626     1.195327651206     1.007825032230
         H           -0.503301992263    -2.028314549626    -0.291221348794     1.007825032230

  Basis Set: AUG-CC-PVTZ
    Blend: AUG-CC-PVTZ
  Basis Set: (AUG-CC-PVTZ AUX)
    Blend: AUG-CC-PVTZ-JKFIT
	 Reference Energy          =    -173.3346586706782091 [Eh]
	 Singles Energy            =      -0.0000000000000000 [Eh]
	 Same-Spin Energy          =      -0.1799692414419442 [Eh]
	 Opposite-Spin Energy      =      -0.6596558872366027 [Eh]
	 Correlation Energy        =      -0.8396251286785469 [Eh]
	 Total Energy              =    -174.1742837993567434 [Eh]

	 ================> DF-SCS-MP2 Energies <==================
	-----------------------------------------------------------
	 SCS Same-Spin Scale       =       0.3333333333333333 [-]
	 SCS Opposite-Spin Scale   =       1.2000000000000000 [-]
	 SCS Same-Spin Energy      =      -0.0599897471473147 [Eh]
	 SCS Opposite-Spin Energy  =      -0.7915870646839233 [Eh]
	 SCS Correlation Energy    =      -0.8515768118312380 [Eh]
	 SCS Total Energy          =    -174.1862354825094599 [Eh]
	-----------------------------------------------------------

  Dipole Moment: [D]
     X:     0.0000      Y:    -0.0001      Z:     0.6778     Total:     0.6778

*** Psi4 exiting successfully. Buy a developer a beer!
