                               Psi4 1.3.2 release

  ==> Input File <==

--------------------------------------------------------------------------
#psi4
#
memory 32 gb

molecule  {
0 1
  N        0.0000000     0.0000190    -0.3965650
  C        1.3620369    -0.1940049     0.0769455
  C       -0.4937460     1.2883280     0.0654040
  C       -0.8688710    -1.0717530     0.0654350
  H        2.0081830     0.5783990    -0.3179200
  H        1.7296690    -1.1727270    -0.3177610
  H        1.4443180    -0.2293280     1.1684460
  H        0.1510090     2.0842750    -0.3173820
  H       -0.5237100     1.3654200     1.1684360
  H       -1.5048590     1.4500540    -0.3182880
  H       -1.8805550    -0.9115560    -0.3174590
  H       -0.9205810    -1.1360680     1.1684600
  H       -0.5033050    -2.0283170    -0.3180890
units angstrom
no_reorient  #important for SAPT in psi4, default
symmetry c1  #important for SAPT in psi4, default
}

set PROPERTIES_ORIGIN ["COM"]
properties('MP2/aug-cc-pvtz', properties = ['dipole'])
--------------------------------------------------------------------------

    Molecular point group: c1
  Charge       = 0
  Multiplicity = 1
  Basis Set: AUG-CC-PVTZ
    Blend: AUG-CC-PVTZ
  Basis Set: (AUG-CC-PVTZ AUX)
    Blend: AUG-CC-PVTZ-JKFIT

    Orbital Energies [Eh]
    ---------------------

    Doubly Occupied:

       1A    -15.547490     2A    -11.240535     3A    -11.240151
       4A    -11.239816     5A     -1.224664     6A     -0.948398
       7A     -0.946265     8A     -0.805452     9A     -0.642565
      10A     -0.628025    11A     -0.626058    12A     -0.545762
      13A     -0.542646    14A     -0.514152    15A     -0.500210
      16A     -0.492930    17A     -0.358423

  @DF-RHF Final Energy:  -173.33385486560482

   => Energetics <=

    Nuclear Repulsion Energy =            138.7622310322058468
    One-Electron Energy =                -508.1050870631859198
    Two-Electron Energy =                 196.0090011653752811
    Total Energy =                       -173.3338548656048204
  Basis Set: (AUG-CC-PVTZ AUX)
    Blend: AUG-CC-PVTZ-RI
    Molecular point group: c1

    Geometry (in Angstrom), charge = 0, multiplicity = 1:

       Center              X                  Y                   Z               Mass
    ------------   -----------------  -----------------  -----------------  -----------------
         N            0.000114956413    -0.004572914328    -0.372040226762    14.003074004430
         C            1.362151856413    -0.198596814328     0.101470273238    12.000000000000
         C           -0.493631043587     1.283736085672     0.089928773238    12.000000000000
         C           -0.868756043587    -1.076344914328     0.089959773238    12.000000000000
         H            2.008297956413     0.573807085672    -0.293395226762     1.007825032230
         H            1.729783956413    -1.177318914328    -0.293236226762     1.007825032230
         H            1.444432956413    -0.233919914328     1.192970773238     1.007825032230
         H            0.151123956413     2.079683085672    -0.292857226762     1.007825032230
         H           -0.523595043587     1.360828085672     1.192960773238     1.007825032230
         H           -1.504744043587     1.445462085672    -0.293763226762     1.007825032230
         H           -1.880440043587    -0.916147914328    -0.292934226762     1.007825032230
         H           -0.920466043587    -1.140659914328     1.192984773238     1.007825032230
         H           -0.503190043587    -2.032908914328    -0.293564226762     1.007825032230

  Basis Set: AUG-CC-PVTZ
    Blend: AUG-CC-PVTZ
  Basis Set: (AUG-CC-PVTZ AUX)
    Blend: AUG-CC-PVTZ-JKFIT
	 Reference Energy          =    -173.3338548656048204 [Eh]
	 Singles Energy            =      -0.0000000000000000 [Eh]
	 Same-Spin Energy          =      -0.1799967828320473 [Eh]
	 Opposite-Spin Energy      =      -0.6597474849129412 [Eh]
	 Correlation Energy        =      -0.8397442677449886 [Eh]
	 Total Energy              =    -174.1735991333497964 [Eh]

	 ================> DF-SCS-MP2 Energies <==================
	-----------------------------------------------------------
	 SCS Same-Spin Scale       =       0.3333333333333333 [-]
	 SCS Opposite-Spin Scale   =       1.2000000000000000 [-]
	 SCS Same-Spin Energy      =      -0.0599989276106824 [Eh]
	 SCS Opposite-Spin Energy  =      -0.7916969818955294 [Eh]
	 SCS Correlation Energy    =      -0.8516959095062119 [Eh]
	 SCS Total Energy          =    -174.1855507751110395 [Eh]
	-----------------------------------------------------------

  Dipole Moment: [D]
     X:    -0.0028      Y:     0.0114      Z:     0.6989     Total:     0.6990

*** Psi4 exiting successfully. Buy a developer a beer!
