                               Psi4 1.3.2 release

  ==> Input File <==

--------------------------------------------------------------------------
#psi4
#
memory 32 gb

molecule  {
0 1
  N        0.0000000     0.0000190    -0.3965650
  C        1.1752897    -0.1868430     0.0019097
  C       -0.4937460     1.2883280     0.0654040
  C       -0.8688710    -1.0717530     0.0654350
  H        2.0081830     0.5783990    -0.3179200
  H        1.7296690    -1.1727270    -0.3177610
  H        1.4443180    -0.2293280     1.1684460
  H        0.1510090     2.0842750    -0.3173820
  H       -0.5237100     1.3654200     1.1684360
  H       -1.5048590     1.4500540    -0.3182880
  H       -1.8805550    -0.9115560    -0.3174590
  H       -0.9205810    -1.1360680     1.1684600
  H       -0.5033050    -2.0283170    -0.3180890
units angstrom
no_reorient  #important for SAPT in psi4, default
symmetry c1  #important for SAPT in psi4, default
}

set PROPERTIES_ORIGIN ["COM"]
properties('MP2/aug-cc-pvtz', properties = ['dipole'])
--------------------------------------------------------------------------

    Molecular point group: c1
  Charge       = 0
  Multiplicity = 1
  Basis Set: AUG-CC-PVTZ
    Blend: AUG-CC-PVTZ
  Basis Set: (AUG-CC-PVTZ AUX)
    Blend: AUG-CC-PVTZ-JKFIT

    Orbital Energies [Eh]
    ---------------------

    Doubly Occupied:

       1A    -15.550259     2A    -11.250972     3A    -11.248621
       4A    -11.248606     5A     -1.290063     6A     -0.960866
       7A     -0.958744     8A     -0.801156     9A     -0.659753
      10A     -0.654565    11A     -0.645686    12A     -0.549901
      13A     -0.548321    14A     -0.517572    15A     -0.501241
      16A     -0.456613    17A     -0.351841

  @DF-RHF Final Energy:  -173.28499795704249

   => Energetics <=

    Nuclear Repulsion Energy =            142.0249645579393700
    One-Electron Energy =                -514.2303605875384847
    Two-Electron Energy =                 198.9203980725566225
    Total Energy =                       -173.2849979570424921
  Basis Set: (AUG-CC-PVTZ AUX)
    Blend: AUG-CC-PVTZ-RI
    Molecular point group: c1

    Geometry (in Angstrom), charge = 0, multiplicity = 1:

       Center              X                  Y                   Z               Mass
    ------------   -----------------  -----------------  -----------------  -----------------
         N            0.038050179935    -0.006027759580    -0.356797696511    14.003074004430
         C            1.213339879935    -0.192889759580     0.041677003489    12.000000000000
         C           -0.455695820065     1.282281240420     0.105171303489    12.000000000000
         C           -0.830820820065    -1.077799759580     0.105202303489    12.000000000000
         H            2.046233179935     0.572352240420    -0.278152696511     1.007825032230
         H            1.767719179935    -1.178773759580    -0.277993696511     1.007825032230
         H            1.482368179935    -0.235374759580     1.208213303489     1.007825032230
         H            0.189059179935     2.078228240420    -0.277614696511     1.007825032230
         H           -0.485659820065     1.359373240420     1.208203303489     1.007825032230
         H           -1.466808820065     1.444007240420    -0.278520696511     1.007825032230
         H           -1.842504820065    -0.917602759580    -0.277691696511     1.007825032230
         H           -0.882530820065    -1.142114759580     1.208227303489     1.007825032230
         H           -0.465254820065    -2.034363759580    -0.278321696511     1.007825032230

  Basis Set: AUG-CC-PVTZ
    Blend: AUG-CC-PVTZ
  Basis Set: (AUG-CC-PVTZ AUX)
    Blend: AUG-CC-PVTZ-JKFIT
	 Reference Energy          =    -173.2849979570424921 [Eh]
	 Singles Energy            =      -0.0000000000000000 [Eh]
	 Same-Spin Energy          =      -0.1827807614902514 [Eh]
	 Opposite-Spin Energy      =      -0.6619591011038035 [Eh]
	 Correlation Energy        =      -0.8447398625940550 [Eh]
	 Total Energy              =    -174.1297378196365457 [Eh]

	 ================> DF-SCS-MP2 Energies <==================
	-----------------------------------------------------------
	 SCS Same-Spin Scale       =       0.3333333333333333 [-]
	 SCS Opposite-Spin Scale   =       1.2000000000000000 [-]
	 SCS Same-Spin Energy      =      -0.0609269204967505 [Eh]
	 SCS Opposite-Spin Energy  =      -0.7943509213245642 [Eh]
	 SCS Correlation Energy    =      -0.8552778418213147 [Eh]
	 SCS Total Energy          =    -174.1402757988637973 [Eh]
	-----------------------------------------------------------

  Dipole Moment: [D]
     X:    -0.6516      Y:     0.1035      Z:     0.3876     Total:     0.7652

*** Psi4 exiting successfully. Buy a developer a beer!
