                               Psi4 1.4a3.dev225

  ==> Input File <==

--------------------------------------------------------------------------
#psi4
#
memory 32 gb

molecule  {
0 1
  N        0.0000000     0.0000000    -0.3962120
  C        0.5184915     1.2582048     0.0590340
  C       -1.3676840    -0.1825860     0.0653790
  C        0.8419660    -1.0931550     0.0653780
  H       -0.0986800     2.0874130    -0.3180730
  H        1.5406910     1.4118460    -0.3180610
  H        0.5573710     1.3525640     1.1683600
  H       -1.9930390     0.6283540    -0.3180620
  H       -1.4500410    -0.1935870     1.1683600
  H       -1.7584160    -1.1291660    -0.3180720
  H        0.4523470    -2.0401980    -0.3180610
  H        0.8926760    -1.1589790     1.1683590
  H        1.8570930    -0.9582490    -0.3180760
units angstrom
no_reorient  #important for SAPT in psi4, default
symmetry c1  #important for SAPT in psi4, default
}

set PROPERTIES_ORIGIN ["COM"]
properties('MP2/aug-cc-pvtz', properties = ['dipole'])
--------------------------------------------------------------------------

    Molecular point group: c1
  Charge       = 0
  Multiplicity = 1
  Basis Set: AUG-CC-PVTZ
    Blend: AUG-CC-PVTZ
  Basis Set: (AUG-CC-PVTZ AUX)
    Blend: AUG-CC-PVTZ-JKFIT

    Orbital Energies [Eh]
    ---------------------

    Doubly Occupied:

       1A    -15.547513     2A    -11.240815     3A    -11.240804
       4A    -11.240784     5A     -1.229191     6A     -0.948450
       7A     -0.947659     8A     -0.805371     9A     -0.642596
      10A     -0.629973    11A     -0.628528    12A     -0.543043
      13A     -0.540988    14A     -0.513825    15A     -0.500880
      16A     -0.496287    17A     -0.357611

  @DF-RHF Final Energy:  -173.33424318686610

   => Energetics <=

    Nuclear Repulsion Energy =            139.0278853033960331
    One-Electron Energy =                -508.6156197968480797
    Two-Electron Energy =                 196.2534913065859428
    Total Energy =                       -173.3342431868661038
  Basis Set: (AUG-CC-PVTZ AUX)
    Blend: AUG-CC-PVTZ-RI
    Molecular point group: c1

    Geometry (in Angstrom), charge = 0, multiplicity = 1:

       Center              X                  Y                   Z               Mass
    ------------   -----------------  -----------------  -----------------  -----------------
         N            0.001467933767     0.003562281195    -0.368085582033    14.003074004430
         C            0.519959433767     1.261767081195     0.087160417967    12.000000000000
         C           -1.366216066233    -0.179023718805     0.093505417967    12.000000000000
         C            0.843433933767    -1.089592718805     0.093504417967    12.000000000000
         H           -0.097212066233     2.090975281195    -0.289946582033     1.007825032230
         H            1.542158933767     1.415408281195    -0.289934582033     1.007825032230
         H            0.558838933767     1.356126281195     1.196486417967     1.007825032230
         H           -1.991571066233     0.631916281195    -0.289935582033     1.007825032230
         H           -1.448573066233    -0.190024718805     1.196486417967     1.007825032230
         H           -1.756948066233    -1.125603718805    -0.289945582033     1.007825032230
         H            0.453814933767    -2.036635718805    -0.289934582033     1.007825032230
         H            0.894143933767    -1.155416718805     1.196485417967     1.007825032230
         H            1.858560933767    -0.954686718805    -0.289949582033     1.007825032230

  Basis Set: AUG-CC-PVTZ
    Blend: AUG-CC-PVTZ
  Basis Set: (AUG-CC-PVTZ AUX)
    Blend: AUG-CC-PVTZ-JKFIT
	 Reference Energy          =    -173.3342431868661038 [Eh]
	 Singles Energy            =      -0.0000000000000000 [Eh]
	 Same-Spin Energy          =      -0.1801033699320211 [Eh]
	 Opposite-Spin Energy      =      -0.6596413481353989 [Eh]
	 Correlation Energy        =      -0.8397447180674200 [Eh]
	 Total Energy              =    -174.1739879049335116 [Eh]

	 ================> DF-SCS-MP2 Energies <==================
	-----------------------------------------------------------
	 SCS Same-Spin Scale       =       0.3333333333333333 [-]
	 SCS Opposite-Spin Scale   =       1.2000000000000000 [-]
	 SCS Same-Spin Energy      =      -0.0600344566440070 [Eh]
	 SCS Opposite-Spin Energy  =      -0.7915696177624786 [Eh]
	 SCS Correlation Energy    =      -0.8516040744064856 [Eh]
	 SCS Total Energy          =    -174.1858472612725848 [Eh]
	-----------------------------------------------------------

  Dipole Moment: [D]
     X:    -0.0179      Y:    -0.0433      Z:     0.6551     Total:     0.6568

*** Psi4 exiting successfully. Buy a developer a beer!
