                               Psi4 1.3.2 release

  ==> Input File <==

--------------------------------------------------------------------------
#psi4
#
memory 32 gb

molecule  {
0 1
  N        0.0000000     0.0000190    -0.3965650
  C        1.3578957    -0.1258266     0.1106669
  C       -0.4937460     1.2883280     0.0654040
  C       -0.8688710    -1.0717530     0.0654350
  H        2.0081830     0.5783990    -0.3179200
  H        1.7296690    -1.1727270    -0.3177610
  H        1.4443180    -0.2293280     1.1684460
  H        0.1510090     2.0842750    -0.3173820
  H       -0.5237100     1.3654200     1.1684360
  H       -1.5048590     1.4500540    -0.3182880
  H       -1.8805550    -0.9115560    -0.3174590
  H       -0.9205810    -1.1360680     1.1684600
  H       -0.5033050    -2.0283170    -0.3180890
units angstrom
no_reorient  #important for SAPT in psi4, default
symmetry c1  #important for SAPT in psi4, default
}

set PROPERTIES_ORIGIN ["COM"]
properties('MP2/aug-cc-pvtz', properties = ['dipole'])
--------------------------------------------------------------------------

    Molecular point group: c1
  Charge       = 0
  Multiplicity = 1
  Basis Set: AUG-CC-PVTZ
    Blend: AUG-CC-PVTZ
  Basis Set: (AUG-CC-PVTZ AUX)
    Blend: AUG-CC-PVTZ-JKFIT

    Orbital Energies [Eh]
    ---------------------

    Doubly Occupied:

       1A    -15.548604     2A    -11.241712     3A    -11.241434
       4A    -11.239096     5A     -1.226265     6A     -0.951697
       7A     -0.943450     8A     -0.807289     9A     -0.648518
      10A     -0.629837    11A     -0.621924    12A     -0.554676
      13A     -0.542452    14A     -0.513914    15A     -0.504697
      16A     -0.472610    17A     -0.361434

  @DF-RHF Final Energy:  -173.32369266753585

   => Energetics <=

    Nuclear Repulsion Energy =            138.8665957572300158
    One-Electron Energy =                -508.2813567306702112
    Two-Electron Energy =                 196.0910683059043436
    Total Energy =                       -173.3236926675358518
  Basis Set: (AUG-CC-PVTZ AUX)
    Blend: AUG-CC-PVTZ-RI
    Molecular point group: c1

    Geometry (in Angstrom), charge = 0, multiplicity = 1:

       Center              X                  Y                   Z               Mass
    ------------   -----------------  -----------------  -----------------  -----------------
         N            0.000956186416    -0.018422434160    -0.378890283130    14.003074004430
         C            1.358851886416    -0.144268034160     0.128341616870    12.000000000000
         C           -0.492789813584     1.269886565840     0.083078716870    12.000000000000
         C           -0.867914813584    -1.090194434160     0.083109716870    12.000000000000
         H            2.009139186416     0.559957565840    -0.300245283130     1.007825032230
         H            1.730625186416    -1.191168434160    -0.300086283130     1.007825032230
         H            1.445274186416    -0.247769434160     1.186120716870     1.007825032230
         H            0.151965186416     2.065833565840    -0.299707283130     1.007825032230
         H           -0.522753813584     1.346978565840     1.186110716870     1.007825032230
         H           -1.503902813584     1.431612565840    -0.300613283130     1.007825032230
         H           -1.879598813584    -0.929997434160    -0.299784283130     1.007825032230
         H           -0.919624813584    -1.154509434160     1.186134716870     1.007825032230
         H           -0.502348813584    -2.046758434160    -0.300414283130     1.007825032230

  Basis Set: AUG-CC-PVTZ
    Blend: AUG-CC-PVTZ
  Basis Set: (AUG-CC-PVTZ AUX)
    Blend: AUG-CC-PVTZ-JKFIT
	 Reference Energy          =    -173.3236926675358518 [Eh]
	 Singles Energy            =      -0.0000000000000000 [Eh]
	 Same-Spin Energy          =      -0.1802370342173832 [Eh]
	 Opposite-Spin Energy      =      -0.6604730240288310 [Eh]
	 Correlation Energy        =      -0.8407100582462141 [Eh]
	 Total Energy              =    -174.1644027257820539 [Eh]

	 ================> DF-SCS-MP2 Energies <==================
	-----------------------------------------------------------
	 SCS Same-Spin Scale       =       0.3333333333333333 [-]
	 SCS Opposite-Spin Scale   =       1.2000000000000000 [-]
	 SCS Same-Spin Energy      =      -0.0600790114057944 [Eh]
	 SCS Opposite-Spin Energy  =      -0.7925676288345972 [Eh]
	 SCS Correlation Energy    =      -0.8526466402403916 [Eh]
	 SCS Total Energy          =    -174.1763393077762316 [Eh]
	-----------------------------------------------------------

  Dipole Moment: [D]
     X:    -0.0314      Y:     0.0558      Z:     0.7587     Total:     0.7614

*** Psi4 exiting successfully. Buy a developer a beer!
