                               Psi4 1.3.2 release

  ==> Input File <==

--------------------------------------------------------------------------
#psi4
#
memory 32 gb

molecule  {
0 1
  N        0.0000000     0.0000190    -0.3965650
  C        1.4562372    -0.2315115     0.0971632
  C       -0.4937460     1.2883280     0.0654040
  C       -0.8688710    -1.0717530     0.0654350
  H        2.0081830     0.5783990    -0.3179200
  H        1.7296690    -1.1727270    -0.3177610
  H        1.4443180    -0.2293280     1.1684460
  H        0.1510090     2.0842750    -0.3173820
  H       -0.5237100     1.3654200     1.1684360
  H       -1.5048590     1.4500540    -0.3182880
  H       -1.8805550    -0.9115560    -0.3174590
  H       -0.9205810    -1.1360680     1.1684600
  H       -0.5033050    -2.0283170    -0.3180890
units angstrom
no_reorient  #important for SAPT in psi4, default
symmetry c1  #important for SAPT in psi4, default
}

set PROPERTIES_ORIGIN ["COM"]
properties('MP2/aug-cc-pvtz', properties = ['dipole'])
--------------------------------------------------------------------------

    Molecular point group: c1
  Charge       = 0
  Multiplicity = 1
  Basis Set: AUG-CC-PVTZ
    Blend: AUG-CC-PVTZ
  Basis Set: (AUG-CC-PVTZ AUX)
    Blend: AUG-CC-PVTZ-JKFIT

    Orbital Energies [Eh]
    ---------------------

    Doubly Occupied:

       1A    -15.546133     2A    -11.239114     3A    -11.237795
       4A    -11.237779     5A     -1.204120     6A     -0.948390
       7A     -0.943264     8A     -0.803329     9A     -0.638401
      10A     -0.624969    11A     -0.617026    12A     -0.556357
      13A     -0.545104    14A     -0.524921    15A     -0.499289
      16A     -0.477948    17A     -0.354244

  @DF-RHF Final Energy:  -173.32655682803687

   => Energetics <=

    Nuclear Repulsion Energy =            137.3081722254881640
    One-Electron Energy =                -505.2730915400273375
    Two-Electron Energy =                 194.6383624865023307
    Total Energy =                       -173.3265568280368711
  Basis Set: (AUG-CC-PVTZ AUX)
    Blend: AUG-CC-PVTZ-RI
    Molecular point group: c1

    Geometry (in Angstrom), charge = 0, multiplicity = 1:

       Center              X                  Y                   Z               Mass
    ------------   -----------------  -----------------  -----------------  -----------------
         N           -0.019020588519     0.003046055352    -0.376147185092    14.003074004430
         C            1.437216611481    -0.228484444648     0.117581014908    12.000000000000
         C           -0.512766588519     1.291355055352     0.085821814908    12.000000000000
         C           -0.887891588519    -1.068725944648     0.085852814908    12.000000000000
         H            1.989162411481     0.581426055352    -0.297502185092     1.007825032230
         H            1.710648411481    -1.169699944648    -0.297343185092     1.007825032230
         H            1.425297411481    -0.226300944648     1.188863814908     1.007825032230
         H            0.131988411481     2.087302055352    -0.296964185092     1.007825032230
         H           -0.542730588519     1.368447055352     1.188853814908     1.007825032230
         H           -1.523879588519     1.453081055352    -0.297870185092     1.007825032230
         H           -1.899575588519    -0.908528944648    -0.297041185092     1.007825032230
         H           -0.939601588519    -1.133040944648     1.188877814908     1.007825032230
         H           -0.522325588519    -2.025289944648    -0.297671185092     1.007825032230

  Basis Set: AUG-CC-PVTZ
    Blend: AUG-CC-PVTZ
  Basis Set: (AUG-CC-PVTZ AUX)
    Blend: AUG-CC-PVTZ-JKFIT
	 Reference Energy          =    -173.3265568280368711 [Eh]
	 Singles Energy            =      -0.0000000000000000 [Eh]
	 Same-Spin Energy          =      -0.1797212594091791 [Eh]
	 Opposite-Spin Energy      =      -0.6604533182309863 [Eh]
	 Correlation Energy        =      -0.8401745776401653 [Eh]
	 Total Energy              =    -174.1667314056770408 [Eh]

	 ================> DF-SCS-MP2 Energies <==================
	-----------------------------------------------------------
	 SCS Same-Spin Scale       =       0.3333333333333333 [-]
	 SCS Opposite-Spin Scale   =       1.2000000000000000 [-]
	 SCS Same-Spin Energy      =      -0.0599070864697264 [Eh]
	 SCS Opposite-Spin Energy  =      -0.7925439818771836 [Eh]
	 SCS Correlation Energy    =      -0.8524510683469099 [Eh]
	 SCS Total Energy          =    -174.1790078963837800 [Eh]
	-----------------------------------------------------------

  Dipole Moment: [D]
     X:     0.1814      Y:    -0.0289      Z:     0.7681     Total:     0.7898

*** Psi4 exiting successfully. Buy a developer a beer!
