                               Psi4 1.3.2 release

  ==> Input File <==

--------------------------------------------------------------------------
#psi4
#
memory 32 gb

molecule  {
1 1
  N        2.4325060    -0.9845600     0.0091070
  C        1.1463630    -0.2321410    -0.0173850
  C       -1.2536230    -0.2748500     0.0109180
  C       -0.0352110    -0.9646830     0.0005950
  C        1.1983270     1.1549650    -0.0097610
  C       -1.2241940     1.1288950     0.0124220
  C       -0.0217590     1.8354230    -0.0002870
  C       -2.5623340    -1.0168010    -0.0065280
  H       -0.0261220    -2.0543070     0.0007630
  H        2.1405510     1.6994190    -0.0171620
  H       -2.1612926     1.6773713     0.2209680
  H       -0.0275340     2.9214870    -0.0002680
  H        3.1916030    -0.4398890    -0.4234570
  H        2.7260810    -1.2141090     0.9696670
  H        2.3592330    -1.8699500    -0.5112020
  H       -2.4267910    -2.0731080     0.2370320
  H       -3.2605850    -0.5864750     0.7158300
  H       -3.0261010    -0.9534780    -0.9957790
units angstrom
no_reorient  #important for SAPT in psi4, default
symmetry c1  #important for SAPT in psi4, default
}

set PROPERTIES_ORIGIN ["COM"]
properties('MP2/aug-cc-pvtz', properties = ['dipole'])
--------------------------------------------------------------------------

    Molecular point group: c1
  Charge       = 1
  Multiplicity = 1
  Basis Set: AUG-CC-PVTZ
    Blend: AUG-CC-PVTZ
  Basis Set: (AUG-CC-PVTZ AUX)
    Blend: AUG-CC-PVTZ-JKFIT

    Orbital Energies [Eh]
    ---------------------

    Doubly Occupied:

       1A    -15.892876     2A    -11.463945     3A    -11.404408
       4A    -11.402555     5A    -11.399848     6A    -11.391886
       7A    -11.383570     8A    -11.348710     9A     -1.506842
      10A     -1.312579    11A     -1.201318    12A     -1.174200
      13A     -1.082851    14A     -1.001165    15A     -0.984070
      16A     -0.953730    17A     -0.925924    18A     -0.870548
      19A     -0.824734    20A     -0.792038    21A     -0.752986
      22A     -0.728972    23A     -0.707618    24A     -0.676101
      25A     -0.653706    26A     -0.647863    27A     -0.643612
      28A     -0.500326    29A     -0.484139

  @DF-RHF Final Energy:  -325.23895304938310

   => Energetics <=

    Nuclear Repulsion Energy =            353.2104383179346883
    One-Electron Energy =               -1128.6725447154960875
    Two-Electron Energy =                 450.2231533481783572
    Total Energy =                       -325.2389530493830989
  Basis Set: (AUG-CC-PVTZ AUX)
    Blend: AUG-CC-PVTZ-RI
    Molecular point group: c1

    Geometry (in Angstrom), charge = 1, multiplicity = 1:

       Center              X                  Y                   Z               Mass
    ------------   -----------------  -----------------  -----------------  -----------------
         N            2.427709300128    -1.011087734139     0.007208959150    14.003074004430
         C            1.141566300128    -0.258668734139    -0.019283040850    12.000000000000
         C           -1.258419699872    -0.301377734139     0.009019959150    12.000000000000
         C           -0.040007699872    -0.991210734139    -0.001303040850    12.000000000000
         C            1.193530300128     1.128437265861    -0.011659040850    12.000000000000
         C           -1.228990699872     1.102367265861     0.010523959150    12.000000000000
         C           -0.026555699872     1.808895265861    -0.002185040850    12.000000000000
         C           -2.567130699872    -1.043328734139    -0.008426040850    12.000000000000
         H           -0.030918699872    -2.080834734139    -0.001135040850     1.007825032230
         H            2.135754300128     1.672891265861    -0.019060040850     1.007825032230
         H           -2.166089299872     1.650843565861     0.219069959150     1.007825032230
         H           -0.032330699872     2.894959265861    -0.002166040850     1.007825032230
         H            3.186806300128    -0.466416734139    -0.425355040850     1.007825032230
         H            2.721284300128    -1.240636734139     0.967768959150     1.007825032230
         H            2.354436300128    -1.896477734139    -0.513100040850     1.007825032230
         H           -2.431587699872    -2.099635734139     0.235133959150     1.007825032230
         H           -3.265381699872    -0.613002734139     0.713931959150     1.007825032230
         H           -3.030897699872    -0.980005734139    -0.997677040850     1.007825032230

  Basis Set: AUG-CC-PVTZ
    Blend: AUG-CC-PVTZ
  Basis Set: (AUG-CC-PVTZ AUX)
    Blend: AUG-CC-PVTZ-JKFIT
	 Reference Energy          =    -325.2389530493830989 [Eh]
	 Singles Energy            =      -0.0000000000000000 [Eh]
	 Same-Spin Energy          =      -0.3532220495493998 [Eh]
	 Opposite-Spin Energy      =      -1.1492726962300581 [Eh]
	 Correlation Energy        =      -1.5024947457794580 [Eh]
	 Total Energy              =    -326.7414477951625713 [Eh]

	 ================> DF-SCS-MP2 Energies <==================
	-----------------------------------------------------------
	 SCS Same-Spin Scale       =       0.3333333333333333 [-]
	 SCS Opposite-Spin Scale   =       1.2000000000000000 [-]
	 SCS Same-Spin Energy      =      -0.1177406831831333 [Eh]
	 SCS Opposite-Spin Energy  =      -1.3791272354760697 [Eh]
	 SCS Correlation Energy    =      -1.4968679186592031 [Eh]
	 SCS Total Energy          =    -326.7358209680422760 [Eh]
	-----------------------------------------------------------

  Dipole Moment: [D]
     X:     7.3071      Y:    -3.2143      Z:     0.1509     Total:     7.9842

*** Psi4 exiting successfully. Buy a developer a beer!
