                               Psi4 1.3.2 release

  ==> Input File <==

--------------------------------------------------------------------------
#psi4
#
memory 32 gb

molecule  {
1 1
  N        2.4325060    -0.9845600     0.0091070
  C        1.1463630    -0.2321410    -0.0173850
  C       -1.2536230    -0.2748500     0.0109180
  C       -0.0352110    -0.9646830     0.0005950
  C        1.1983270     1.1549650    -0.0097610
  C       -1.2241940     1.1288950     0.0124220
  C       -0.0217590     1.8354230    -0.0002870
  C       -2.5627346    -1.0178759     0.1434676
  H       -0.0261220    -2.0543070     0.0007630
  H        2.1405510     1.6994190    -0.0171620
  H       -2.1632860     1.6774730     0.0209780
  H       -0.0275340     2.9214870    -0.0002680
  H        3.1916030    -0.4398890    -0.4234570
  H        2.7260810    -1.2141090     0.9696670
  H        2.3592330    -1.8699500    -0.5112020
  H       -2.4267910    -2.0731080     0.2370320
  H       -3.2605850    -0.5864750     0.7158300
  H       -3.0261010    -0.9534780    -0.9957790
units angstrom
no_reorient  #important for SAPT in psi4, default
symmetry c1  #important for SAPT in psi4, default
}

set PROPERTIES_ORIGIN ["COM"]
properties('MP2/aug-cc-pvtz', properties = ['dipole'])
--------------------------------------------------------------------------

    Molecular point group: c1
  Charge       = 1
  Multiplicity = 1
  Basis Set: AUG-CC-PVTZ
    Blend: AUG-CC-PVTZ
  Basis Set: (AUG-CC-PVTZ AUX)
    Blend: AUG-CC-PVTZ-JKFIT

    Orbital Energies [Eh]
    ---------------------

    Doubly Occupied:

       1A    -15.892769     2A    -11.463976     3A    -11.403457
       4A    -11.402848     5A    -11.401651     6A    -11.391709
       7A    -11.381725     8A    -11.352935     9A     -1.506693
      10A     -1.312498    11A     -1.201288    12A     -1.174454
      13A     -1.084606    14A     -1.001902    15A     -0.985480
      16A     -0.953590    17A     -0.925981    18A     -0.871761
      19A     -0.827643    20A     -0.794914    21A     -0.753545
      22A     -0.731492    23A     -0.713622    24A     -0.681416
      25A     -0.661890    26A     -0.647178    27A     -0.624650
      28A     -0.500789    29A     -0.479018

  @DF-RHF Final Energy:  -325.22106611678191

   => Energetics <=

    Nuclear Repulsion Energy =            353.1911289472033673
    One-Electron Energy =               -1128.5734265101714300
    Two-Electron Energy =                 450.1612314461860933
    Total Energy =                       -325.2210661167819126
  Basis Set: (AUG-CC-PVTZ AUX)
    Blend: AUG-CC-PVTZ-RI
    Molecular point group: c1

    Geometry (in Angstrom), charge = 1, multiplicity = 1:

       Center              X                  Y                   Z               Mass
    ------------   -----------------  -----------------  -----------------  -----------------
         N            2.427772365588    -1.010969338993    -0.007579833287    14.003074004430
         C            1.141629365588    -0.258550338993    -0.034071833287    12.000000000000
         C           -1.258356634412    -0.301259338993    -0.005768833287    12.000000000000
         C           -0.039944634412    -0.991092338993    -0.016091833287    12.000000000000
         C            1.193593365588     1.128555661007    -0.026447833287    12.000000000000
         C           -1.228927634412     1.102485661007    -0.004264833287    12.000000000000
         C           -0.026492634412     1.809013661007    -0.016973833287    12.000000000000
         C           -2.567468234412    -1.044285238993     0.126780766713    12.000000000000
         H           -0.030855634412    -2.080716338993    -0.015923833287     1.007825032230
         H            2.135817365588     1.673009661007    -0.033848833287     1.007825032230
         H           -2.168019634412     1.651063661007     0.004291166713     1.007825032230
         H           -0.032267634412     2.895077661007    -0.016954833287     1.007825032230
         H            3.186869365588    -0.466298338993    -0.440143833287     1.007825032230
         H            2.721347365588    -1.240518338993     0.952980166713     1.007825032230
         H            2.354499365588    -1.896359338993    -0.527888833287     1.007825032230
         H           -2.431524634412    -2.099517338993     0.220345166713     1.007825032230
         H           -3.265318634412    -0.612884338993     0.699143166713     1.007825032230
         H           -3.030834634412    -0.979887338993    -1.012465833287     1.007825032230

  Basis Set: AUG-CC-PVTZ
    Blend: AUG-CC-PVTZ
  Basis Set: (AUG-CC-PVTZ AUX)
    Blend: AUG-CC-PVTZ-JKFIT
	 Reference Energy          =    -325.2210661167819126 [Eh]
	 Singles Energy            =      -0.0000000000000000 [Eh]
	 Same-Spin Energy          =      -0.3533666553689541 [Eh]
	 Opposite-Spin Energy      =      -1.1498320963327504 [Eh]
	 Correlation Energy        =      -1.5031987517017045 [Eh]
	 Total Energy              =    -326.7242648684836013 [Eh]

	 ================> DF-SCS-MP2 Energies <==================
	-----------------------------------------------------------
	 SCS Same-Spin Scale       =       0.3333333333333333 [-]
	 SCS Opposite-Spin Scale   =       1.2000000000000000 [-]
	 SCS Same-Spin Energy      =      -0.1177888851229847 [Eh]
	 SCS Opposite-Spin Energy  =      -1.3797985155993004 [Eh]
	 SCS Correlation Energy    =      -1.4975874007222851 [Eh]
	 SCS Total Energy          =    -326.7186535175042081 [Eh]
	-----------------------------------------------------------

  Dipole Moment: [D]
     X:     7.2403      Y:    -3.2418      Z:    -0.0025     Total:     7.9329

*** Psi4 exiting successfully. Buy a developer a beer!
