                               Psi4 1.3.2 release

  ==> Input File <==

--------------------------------------------------------------------------
#psi4
#
memory 32 gb

molecule  {
1 1
  N        2.4325060    -0.9845600     0.0091070
  C        1.1463630    -0.2321410    -0.0173850
  C       -1.2536230    -0.2748500     0.0109180
  C       -0.0352110    -0.9646830     0.0005950
  C        1.1983270     1.1549650    -0.0097610
  C       -1.2241940     1.1288950     0.0124220
  C       -0.0217590     1.8354230    -0.0002870
  C       -2.5623340    -1.0168010    -0.0065280
  H       -0.0261220    -2.0543070     0.0007630
  H        2.1405510     1.6994190    -0.0171620
  H       -2.1632860     1.6774730     0.0209780
  H       -0.0284486     2.9213897    -0.1002638
  H        3.1916030    -0.4398890    -0.4234570
  H        2.7260810    -1.2141090     0.9696670
  H        2.3592330    -1.8699500    -0.5112020
  H       -2.4267910    -2.0731080     0.2370320
  H       -3.2605850    -0.5864750     0.7158300
  H       -3.0261010    -0.9534780    -0.9957790
units angstrom
no_reorient  #important for SAPT in psi4, default
symmetry c1  #important for SAPT in psi4, default
}

set PROPERTIES_ORIGIN ["COM"]
properties('MP2/aug-cc-pvtz', properties = ['dipole'])
--------------------------------------------------------------------------

    Molecular point group: c1
  Charge       = 1
  Multiplicity = 1
  Basis Set: AUG-CC-PVTZ
    Blend: AUG-CC-PVTZ
  Basis Set: (AUG-CC-PVTZ AUX)
    Blend: AUG-CC-PVTZ-JKFIT

    Orbital Energies [Eh]
    ---------------------

    Doubly Occupied:

       1A    -15.892743     2A    -11.463711     3A    -11.404342
       4A    -11.402514     5A    -11.399638     6A    -11.392004
       7A    -11.382136     8A    -11.348688     9A     -1.506680
      10A     -1.312517    11A     -1.201259    12A     -1.174408
      13A     -1.082921    14A     -1.001626    15A     -0.984115
      16A     -0.953577    17A     -0.925621    18A     -0.870357
      19A     -0.827260    20A     -0.791930    21A     -0.752636
      22A     -0.729163    23A     -0.707086    24A     -0.677959
      25A     -0.652065    26A     -0.651165    27A     -0.642772
      28A     -0.500687    29A     -0.484099

  @DF-RHF Final Energy:  -325.24101432972418

   => Energetics <=

    Nuclear Repulsion Energy =            353.2641550446189740
    One-Electron Energy =               -1128.7789803974378628
    Two-Electron Energy =                 450.2738110230947086
    Total Energy =                       -325.2410143297241802
  Basis Set: (AUG-CC-PVTZ AUX)
    Blend: AUG-CC-PVTZ-RI
    Molecular point group: c1

    Geometry (in Angstrom), charge = 1, multiplicity = 1:

       Center              X                  Y                   Z               Mass
    ------------   -----------------  -----------------  -----------------  -----------------
         N            2.427736416332    -1.011087775168     0.010006234262    14.003074004430
         C            1.141593416332    -0.258668775168    -0.016485765738    12.000000000000
         C           -1.258392583668    -0.301377775168     0.011817234262    12.000000000000
         C           -0.039980583668    -0.991210775168     0.001494234262    12.000000000000
         C            1.193557416332     1.128437224832    -0.008861765738    12.000000000000
         C           -1.228963583668     1.102367224832     0.013321234262    12.000000000000
         C           -0.026528583668     1.808895224832     0.000612234262    12.000000000000
         C           -2.567103583668    -1.043328775168    -0.005628765738    12.000000000000
         H           -0.030891583668    -2.080834775168     0.001662234262     1.007825032230
         H            2.135781416332     1.672891224832    -0.016262765738     1.007825032230
         H           -2.168055583668     1.650945224832     0.021877234262     1.007825032230
         H           -0.033218183668     2.894861924832    -0.099364565738     1.007825032230
         H            3.186833416332    -0.466416775168    -0.422557765738     1.007825032230
         H            2.721311416332    -1.240636775168     0.970566234262     1.007825032230
         H            2.354463416332    -1.896477775168    -0.510302765738     1.007825032230
         H           -2.431560583668    -2.099635775168     0.237931234262     1.007825032230
         H           -3.265354583668    -0.613002775168     0.716729234262     1.007825032230
         H           -3.030870583668    -0.980005775168    -0.994879765738     1.007825032230

  Basis Set: AUG-CC-PVTZ
    Blend: AUG-CC-PVTZ
  Basis Set: (AUG-CC-PVTZ AUX)
    Blend: AUG-CC-PVTZ-JKFIT
	 Reference Energy          =    -325.2410143297241802 [Eh]
	 Singles Energy            =      -0.0000000000000000 [Eh]
	 Same-Spin Energy          =      -0.3531093772232997 [Eh]
	 Opposite-Spin Energy      =      -1.1490361323461982 [Eh]
	 Correlation Energy        =      -1.5021455095694978 [Eh]
	 Total Energy              =    -326.7431598392936962 [Eh]

	 ================> DF-SCS-MP2 Energies <==================
	-----------------------------------------------------------
	 SCS Same-Spin Scale       =       0.3333333333333333 [-]
	 SCS Opposite-Spin Scale   =       1.2000000000000000 [-]
	 SCS Same-Spin Energy      =      -0.1177031257410999 [Eh]
	 SCS Opposite-Spin Energy  =      -1.3788433588154378 [Eh]
	 SCS Correlation Energy    =      -1.4965464845565377 [Eh]
	 SCS Total Energy          =    -326.7375608142806982 [Eh]
	-----------------------------------------------------------

  Dipole Moment: [D]
     X:     7.2809      Y:    -3.2080      Z:    -0.0178     Total:     7.9564

*** Psi4 exiting successfully. Buy a developer a beer!
