                               Psi4 1.3.2 release

  ==> Input File <==

--------------------------------------------------------------------------
#psi4
#
memory 32 gb

molecule  {
1 1
  N        2.4325060    -0.9845600     0.0091070
  C        1.1463630    -0.2321410    -0.0173850
  C       -1.2536230    -0.2748500     0.0109180
  C       -0.0352110    -0.9646830     0.0005950
  C        1.1984967     1.1546220    -0.0597595
  C       -1.2241940     1.1288950     0.0124220
  C       -0.0217590     1.8354230    -0.0002870
  C       -2.5623340    -1.0168010    -0.0065280
  H       -0.0261220    -2.0543070     0.0007630
  H        2.1405510     1.6994190    -0.0171620
  H       -2.1632860     1.6774730     0.0209780
  H       -0.0275340     2.9214870    -0.0002680
  H        3.1916030    -0.4398890    -0.4234570
  H        2.7260810    -1.2141090     0.9696670
  H        2.3592330    -1.8699500    -0.5112020
  H       -2.4267910    -2.0731080     0.2370320
  H       -3.2605850    -0.5864750     0.7158300
  H       -3.0261010    -0.9534780    -0.9957790
units angstrom
no_reorient  #important for SAPT in psi4, default
symmetry c1  #important for SAPT in psi4, default
}

set PROPERTIES_ORIGIN ["COM"]
properties('MP2/aug-cc-pvtz', properties = ['dipole'])
--------------------------------------------------------------------------

    Molecular point group: c1
  Charge       = 1
  Multiplicity = 1
  Basis Set: AUG-CC-PVTZ
    Blend: AUG-CC-PVTZ
  Basis Set: (AUG-CC-PVTZ AUX)
    Blend: AUG-CC-PVTZ-JKFIT

    Orbital Energies [Eh]
    ---------------------

    Doubly Occupied:

       1A    -15.892742     2A    -11.463886     3A    -11.404527
       4A    -11.402367     5A    -11.399763     6A    -11.391916
       7A    -11.381988     8A    -11.348724     9A     -1.506697
      10A     -1.312405    11A     -1.201181    12A     -1.174427
      13A     -1.082938    14A     -1.001595    15A     -0.984223
      16A     -0.953583    17A     -0.925805    18A     -0.870356
      19A     -0.827127    20A     -0.791808    21A     -0.753170
      22A     -0.729067    23A     -0.707120    24A     -0.677989
      25A     -0.651700    26A     -0.650818    27A     -0.643608
      28A     -0.500639    29A     -0.484178

  @DF-RHF Final Energy:  -325.24105299984126

   => Energetics <=

    Nuclear Repulsion Energy =            353.2506672860729964
    One-Electron Energy =               -1128.7507467489740520
    Two-Electron Energy =                 450.2590264630598540
    Total Energy =                       -325.2410529998412585
  Basis Set: (AUG-CC-PVTZ AUX)
    Blend: AUG-CC-PVTZ-RI
    Molecular point group: c1

    Geometry (in Angstrom), charge = 1, multiplicity = 1:

       Center              X                  Y                   Z               Mass
    ------------   -----------------  -----------------  -----------------  -----------------
         N            2.427709046601    -1.011050600025     0.014625013063    14.003074004430
         C            1.141566046601    -0.258631600025    -0.011866986937    12.000000000000
         C           -1.258419953399    -0.301340600025     0.016436013063    12.000000000000
         C           -0.040007953399    -0.991173600025     0.006113013063    12.000000000000
         C            1.193699746601     1.128131399975    -0.054241486937    12.000000000000
         C           -1.228990953399     1.102404399975     0.017940013063    12.000000000000
         C           -0.026555953399     1.808932399975     0.005231013063    12.000000000000
         C           -2.567130953399    -1.043291600025    -0.001009986937    12.000000000000
         H           -0.030918953399    -2.080797600025     0.006281013063     1.007825032230
         H            2.135754046601     1.672928399975    -0.011643986937     1.007825032230
         H           -2.168082953399     1.650982399975     0.026496013063     1.007825032230
         H           -0.032330953399     2.894996399975     0.005250013063     1.007825032230
         H            3.186806046601    -0.466379600025    -0.417938986937     1.007825032230
         H            2.721284046601    -1.240599600025     0.975185013063     1.007825032230
         H            2.354436046601    -1.896440600025    -0.505683986937     1.007825032230
         H           -2.431587953399    -2.099598600025     0.242550013063     1.007825032230
         H           -3.265381953399    -0.612965600025     0.721348013063     1.007825032230
         H           -3.030897953399    -0.979968600025    -0.990260986937     1.007825032230

  Basis Set: AUG-CC-PVTZ
    Blend: AUG-CC-PVTZ
  Basis Set: (AUG-CC-PVTZ AUX)
    Blend: AUG-CC-PVTZ-JKFIT
	 Reference Energy          =    -325.2410529998412585 [Eh]
	 Singles Energy            =      -0.0000000000000000 [Eh]
	 Same-Spin Energy          =      -0.3531036431229027 [Eh]
	 Opposite-Spin Energy      =      -1.1490539444833707 [Eh]
	 Correlation Energy        =      -1.5021575876062734 [Eh]
	 Total Energy              =    -326.7432105874475496 [Eh]

	 ================> DF-SCS-MP2 Energies <==================
	-----------------------------------------------------------
	 SCS Same-Spin Scale       =       0.3333333333333333 [-]
	 SCS Opposite-Spin Scale   =       1.2000000000000000 [-]
	 SCS Same-Spin Energy      =      -0.1177012143743009 [Eh]
	 SCS Opposite-Spin Energy  =      -1.3788647333800448 [Eh]
	 SCS Correlation Energy    =      -1.4965659477543456 [Eh]
	 SCS Total Energy          =    -326.7376189475955925 [Eh]
	-----------------------------------------------------------

  Dipole Moment: [D]
     X:     7.2796      Y:    -3.2043      Z:     0.0893     Total:     7.9541

*** Psi4 exiting successfully. Buy a developer a beer!
