                               Psi4 1.3.2 release

  ==> Input File <==

--------------------------------------------------------------------------
#psi4
#
memory 32 gb

molecule  {
1 1
  N        2.4325060    -0.9845600     0.0091070
  C        1.1463630    -0.2321410    -0.0173850
  C       -1.2536230    -0.2748500     0.0109180
  C       -0.0352110    -0.9646830     0.0005950
  C        1.1983270     1.1549650    -0.0097610
  C       -1.2241940     1.1288950     0.0124220
  C       -0.0217590     1.8354230    -0.0002870
  C       -2.5623340    -1.0168010    -0.0065280
  H       -0.0225972    -2.0535874     0.3007414
  H        2.1405510     1.6994190    -0.0171620
  H       -2.1632860     1.6774730     0.0209780
  H       -0.0275340     2.9214870    -0.0002680
  H        3.1916030    -0.4398890    -0.4234570
  H        2.7260810    -1.2141090     0.9696670
  H        2.3592330    -1.8699500    -0.5112020
  H       -2.4267910    -2.0731080     0.2370320
  H       -3.2605850    -0.5864750     0.7158300
  H       -3.0261010    -0.9534780    -0.9957790
units angstrom
no_reorient  #important for SAPT in psi4, default
symmetry c1  #important for SAPT in psi4, default
}

set PROPERTIES_ORIGIN ["COM"]
properties('MP2/aug-cc-pvtz', properties = ['dipole'])
--------------------------------------------------------------------------

    Molecular point group: c1
  Charge       = 1
  Multiplicity = 1
  Basis Set: AUG-CC-PVTZ
    Blend: AUG-CC-PVTZ
  Basis Set: (AUG-CC-PVTZ AUX)
    Blend: AUG-CC-PVTZ-JKFIT

    Orbital Energies [Eh]
    ---------------------

    Doubly Occupied:

       1A    -15.892437     2A    -11.464145     3A    -11.405289
       4A    -11.404685     5A    -11.400551     6A    -11.392513
       7A    -11.382304     8A    -11.348766     9A     -1.506530
      10A     -1.312651    11A     -1.201274    12A     -1.173854
      13A     -1.082768    14A     -1.000431    15A     -0.984206
      16A     -0.953419    17A     -0.924777    18A     -0.869494
      19A     -0.824113    20A     -0.791808    21A     -0.750599
      22A     -0.728449    23A     -0.706034    24A     -0.677243
      25A     -0.652125    26A     -0.651561    27A     -0.641215
      28A     -0.500651    29A     -0.484226

  @DF-RHF Final Energy:  -325.23580162629338

   => Energetics <=

    Nuclear Repulsion Energy =            353.1203621812933875
    One-Electron Energy =               -1128.4960932214337390
    Two-Electron Energy =                 450.1399294138470282
    Total Energy =                       -325.2358016262933802
  Basis Set: (AUG-CC-PVTZ AUX)
    Blend: AUG-CC-PVTZ-RI
    Molecular point group: c1

    Geometry (in Angstrom), charge = 1, multiplicity = 1:

       Center              X                  Y                   Z               Mass
    ------------   -----------------  -----------------  -----------------  -----------------
         N            2.427695020295    -1.011095392508     0.006276598142    14.003074004430
         C            1.141552020295    -0.258676392508    -0.020215401858    12.000000000000
         C           -1.258433979705    -0.301385392508     0.008087598142    12.000000000000
         C           -0.040021979705    -0.991218392508    -0.002235401858    12.000000000000
         C            1.193516020295     1.128429607492    -0.012591401858    12.000000000000
         C           -1.229004979705     1.102359607492     0.009591598142    12.000000000000
         C           -0.026569979705     1.808887607492    -0.003117401858    12.000000000000
         C           -2.567144979705    -1.043336392508    -0.009358401858    12.000000000000
         H           -0.027408179705    -2.080122792508     0.297910998142     1.007825032230
         H            2.135740020295     1.672883607492    -0.019992401858     1.007825032230
         H           -2.168096979705     1.650937607492     0.018147598142     1.007825032230
         H           -0.032344979705     2.894951607492    -0.003098401858     1.007825032230
         H            3.186792020295    -0.466424392508    -0.426287401858     1.007825032230
         H            2.721270020295    -1.240644392508     0.966836598142     1.007825032230
         H            2.354422020295    -1.896485392508    -0.514032401858     1.007825032230
         H           -2.431601979705    -2.099643392508     0.234201598142     1.007825032230
         H           -3.265395979705    -0.613010392508     0.712999598142     1.007825032230
         H           -3.030911979705    -0.980013392508    -0.998609401858     1.007825032230

  Basis Set: AUG-CC-PVTZ
    Blend: AUG-CC-PVTZ
  Basis Set: (AUG-CC-PVTZ AUX)
    Blend: AUG-CC-PVTZ-JKFIT
	 Reference Energy          =    -325.2358016262933802 [Eh]
	 Singles Energy            =      -0.0000000000000000 [Eh]
	 Same-Spin Energy          =      -0.3533987396897488 [Eh]
	 Opposite-Spin Energy      =      -1.1496378103409475 [Eh]
	 Correlation Energy        =      -1.5030365500306964 [Eh]
	 Total Energy              =    -326.7388381763240659 [Eh]

	 ================> DF-SCS-MP2 Energies <==================
	-----------------------------------------------------------
	 SCS Same-Spin Scale       =       0.3333333333333333 [-]
	 SCS Opposite-Spin Scale   =       1.2000000000000000 [-]
	 SCS Same-Spin Energy      =      -0.1177995798965829 [Eh]
	 SCS Opposite-Spin Energy  =      -1.3795653724091370 [Eh]
	 SCS Correlation Energy    =      -1.4973649523057200 [Eh]
	 SCS Total Energy          =    -326.7331665785990822 [Eh]
	-----------------------------------------------------------

  Dipole Moment: [D]
     X:     7.2771      Y:    -3.1401      Z:     0.2240     Total:     7.9288

*** Psi4 exiting successfully. Buy a developer a beer!
