                               Psi4 1.3.2 release

  ==> Input File <==

--------------------------------------------------------------------------
#psi4
#
memory 32 gb

molecule  {
1 1
  N        2.4325060    -0.9845600     0.0091070
  C        1.1463630    -0.2321410    -0.0173850
  C       -1.2536230    -0.2748500     0.0109180
  C       -0.0352110    -0.9646830     0.0005950
  C        1.1988361     1.1539359    -0.1597566
  C       -1.2241940     1.1288950     0.0124220
  C       -0.0217590     1.8354230    -0.0002870
  C       -2.5623340    -1.0168010    -0.0065280
  H       -0.0261220    -2.0543070     0.0007630
  H        2.1405510     1.6994190    -0.0171620
  H       -2.1632860     1.6774730     0.0209780
  H       -0.0275340     2.9214870    -0.0002680
  H        3.1916030    -0.4398890    -0.4234570
  H        2.7260810    -1.2141090     0.9696670
  H        2.3592330    -1.8699500    -0.5112020
  H       -2.4267910    -2.0731080     0.2370320
  H       -3.2605850    -0.5864750     0.7158300
  H       -3.0261010    -0.9534780    -0.9957790
units angstrom
no_reorient  #important for SAPT in psi4, default
symmetry c1  #important for SAPT in psi4, default
}

set PROPERTIES_ORIGIN ["COM"]
properties('MP2/aug-cc-pvtz', properties = ['dipole'])
--------------------------------------------------------------------------

    Molecular point group: c1
  Charge       = 1
  Multiplicity = 1
  Basis Set: AUG-CC-PVTZ
    Blend: AUG-CC-PVTZ
  Basis Set: (AUG-CC-PVTZ AUX)
    Blend: AUG-CC-PVTZ-JKFIT

    Orbital Energies [Eh]
    ---------------------

    Doubly Occupied:

       1A    -15.892636     2A    -11.465320     3A    -11.406089
       4A    -11.402351     5A    -11.400795     6A    -11.393862
       7A    -11.381811     8A    -11.349240     9A     -1.506649
      10A     -1.311802    11A     -1.200428    12A     -1.174287
      13A     -1.082923    14A     -1.000560    15A     -0.984371
      16A     -0.953529    17A     -0.925743    18A     -0.868868
      19A     -0.826174    20A     -0.790590    21A     -0.752713
      22A     -0.727477    23A     -0.707111    24A     -0.677657
      25A     -0.652648    26A     -0.649201    27A     -0.643306
      28A     -0.499954    29A     -0.484493

  @DF-RHF Final Energy:  -325.23535314685080

   => Energetics <=

    Nuclear Repulsion Energy =            353.0217782730072145
    One-Electron Energy =               -1128.2890814437907920
    Two-Electron Energy =                 450.0319500239328363
    Total Energy =                       -325.2353531468507981
  Basis Set: (AUG-CC-PVTZ AUX)
    Blend: AUG-CC-PVTZ-RI
    Molecular point group: c1

    Geometry (in Angstrom), charge = 1, multiplicity = 1:

       Center              X                  Y                   Z               Mass
    ------------   -----------------  -----------------  -----------------  -----------------
         N            2.427671363865    -1.010974424053     0.025727441790    14.003074004430
         C            1.141528363865    -0.258555424053    -0.000764558210    12.000000000000
         C           -1.258457636135    -0.301264424053     0.027538441790    12.000000000000
         C           -0.040045636135    -0.991097424053     0.017215441790    12.000000000000
         C            1.194001463865     1.127521475947    -0.143136158210    12.000000000000
         C           -1.229028636135     1.102480575947     0.029042441790    12.000000000000
         C           -0.026593636135     1.809008575947     0.016333441790    12.000000000000
         C           -2.567168636135    -1.043215424053     0.010092441790    12.000000000000
         H           -0.030956636135    -2.080721424053     0.017383441790     1.007825032230
         H            2.135716363865     1.673004575947    -0.000541558210     1.007825032230
         H           -2.168120636135     1.651058575947     0.037598441790     1.007825032230
         H           -0.032368636135     2.895072575947     0.016352441790     1.007825032230
         H            3.186768363865    -0.466303424053    -0.406836558210     1.007825032230
         H            2.721246363865    -1.240523424053     0.986287441790     1.007825032230
         H            2.354398363865    -1.896364424053    -0.494581558210     1.007825032230
         H           -2.431625636135    -2.099522424053     0.253652441790     1.007825032230
         H           -3.265419636135    -0.612889424053     0.732450441790     1.007825032230
         H           -3.030935636135    -0.979892424053    -0.979158558210     1.007825032230

  Basis Set: AUG-CC-PVTZ
    Blend: AUG-CC-PVTZ
  Basis Set: (AUG-CC-PVTZ AUX)
    Blend: AUG-CC-PVTZ-JKFIT
	 Reference Energy          =    -325.2353531468507981 [Eh]
	 Singles Energy            =      -0.0000000000000000 [Eh]
	 Same-Spin Energy          =      -0.3533962342118330 [Eh]
	 Opposite-Spin Energy      =      -1.1499509100892147 [Eh]
	 Correlation Energy        =      -1.5033471443010478 [Eh]
	 Total Energy              =    -326.7387002911518721 [Eh]

	 ================> DF-SCS-MP2 Energies <==================
	-----------------------------------------------------------
	 SCS Same-Spin Scale       =       0.3333333333333333 [-]
	 SCS Opposite-Spin Scale   =       1.2000000000000000 [-]
	 SCS Same-Spin Energy      =      -0.1177987447372777 [Eh]
	 SCS Opposite-Spin Energy  =      -1.3799410921070576 [Eh]
	 SCS Correlation Energy    =      -1.4977398368443353 [Eh]
	 SCS Total Energy          =    -326.7330929836951441 [Eh]
	-----------------------------------------------------------

  Dipole Moment: [D]
     X:     7.2310      Y:    -3.2210      Z:     0.1880     Total:     7.9181

*** Psi4 exiting successfully. Buy a developer a beer!
