                               Psi4 1.3.2 release

  ==> Input File <==

--------------------------------------------------------------------------
#psi4
#
memory 32 gb

molecule  {
1 1
  N        2.4325060    -0.9845600     0.0091070
  C        1.1463630    -0.2321410    -0.0173850
  C       -1.2536230    -0.2748500     0.0109180
  C       -0.0352110    -0.9646830     0.0005950
  C        1.1983270     1.1549650    -0.0097610
  C       -1.2241940     1.1288950     0.0124220
  C       -0.0217590     1.8354230    -0.0002870
  C       -2.5623340    -1.0168010    -0.0065280
  H       -0.0261220    -2.0543070     0.0007630
  H        2.1405510     1.6994190    -0.0171620
  H       -2.1602959     1.6773204     0.3209631
  H       -0.0275340     2.9214870    -0.0002680
  H        3.1916030    -0.4398890    -0.4234570
  H        2.7260810    -1.2141090     0.9696670
  H        2.3592330    -1.8699500    -0.5112020
  H       -2.4267910    -2.0731080     0.2370320
  H       -3.2605850    -0.5864750     0.7158300
  H       -3.0261010    -0.9534780    -0.9957790
units angstrom
no_reorient  #important for SAPT in psi4, default
symmetry c1  #important for SAPT in psi4, default
}

set PROPERTIES_ORIGIN ["COM"]
properties('MP2/aug-cc-pvtz', properties = ['dipole'])
--------------------------------------------------------------------------

    Molecular point group: c1
  Charge       = 1
  Multiplicity = 1
  Basis Set: AUG-CC-PVTZ
    Blend: AUG-CC-PVTZ
  Basis Set: (AUG-CC-PVTZ AUX)
    Blend: AUG-CC-PVTZ-JKFIT

    Orbital Energies [Eh]
    ---------------------

    Doubly Occupied:

       1A    -15.893051     2A    -11.464267     3A    -11.404521
       4A    -11.402695     5A    -11.400162     6A    -11.392224
       7A    -11.385431     8A    -11.348726     9A     -1.507037
      10A     -1.312690    11A     -1.201403    12A     -1.173894
      13A     -1.082807    14A     -1.000535    15A     -0.983937
      16A     -0.953912    17A     -0.926074    18A     -0.870644
      19A     -0.821813    20A     -0.792164    21A     -0.752669
      22A     -0.728741    23A     -0.708077    24A     -0.674158
      25A     -0.654450    26A     -0.645724    27A     -0.643288
      28A     -0.499829    29A     -0.484148

  @DF-RHF Final Energy:  -325.23520660160477

   => Energetics <=

    Nuclear Repulsion Energy =            353.1253993561023776
    One-Electron Energy =               -1128.5030736857756892
    Two-Electron Energy =                 450.1424677280684818
    Total Energy =                       -325.2352066016047729
  Basis Set: (AUG-CC-PVTZ AUX)
    Blend: AUG-CC-PVTZ-RI
    Molecular point group: c1

    Geometry (in Angstrom), charge = 1, multiplicity = 1:

       Center              X                  Y                   Z               Mass
    ------------   -----------------  -----------------  -----------------  -----------------
         N            2.427700006208    -1.011087259512     0.006276535667    14.003074004430
         C            1.141557006208    -0.258668259512    -0.020215464333    12.000000000000
         C           -1.258428993792    -0.301377259512     0.008087535667    12.000000000000
         C           -0.040016993792    -0.991210259512    -0.002235464333    12.000000000000
         C            1.193521006208     1.128437740488    -0.012591464333    12.000000000000
         C           -1.228999993792     1.102367740488     0.009591535667    12.000000000000
         C           -0.026564993792     1.808895740488    -0.003117464333    12.000000000000
         C           -2.567139993792    -1.043328259512    -0.009358464333    12.000000000000
         H           -0.030927993792    -2.080834259512    -0.002067464333     1.007825032230
         H            2.135745006208     1.672891740488    -0.019992464333     1.007825032230
         H           -2.165101893792     1.650793140488     0.318132635667     1.007825032230
         H           -0.032339993792     2.894959740488    -0.003098464333     1.007825032230
         H            3.186797006208    -0.466416259512    -0.426287464333     1.007825032230
         H            2.721275006208    -1.240636259512     0.966836535667     1.007825032230
         H            2.354427006208    -1.896477259512    -0.514032464333     1.007825032230
         H           -2.431596993792    -2.099635259512     0.234201535667     1.007825032230
         H           -3.265390993792    -0.613002259512     0.712999535667     1.007825032230
         H           -3.030906993792    -0.980005259512    -0.998609464333     1.007825032230

  Basis Set: AUG-CC-PVTZ
    Blend: AUG-CC-PVTZ
  Basis Set: (AUG-CC-PVTZ AUX)
    Blend: AUG-CC-PVTZ-JKFIT
	 Reference Energy          =    -325.2352066016047729 [Eh]
	 Singles Energy            =      -0.0000000000000000 [Eh]
	 Same-Spin Energy          =      -0.3534055669678560 [Eh]
	 Opposite-Spin Energy      =      -1.1497161199247523 [Eh]
	 Correlation Energy        =      -1.5031216868926083 [Eh]
	 Total Energy              =    -326.7383282884973710 [Eh]

	 ================> DF-SCS-MP2 Energies <==================
	-----------------------------------------------------------
	 SCS Same-Spin Scale       =       0.3333333333333333 [-]
	 SCS Opposite-Spin Scale   =       1.2000000000000000 [-]
	 SCS Same-Spin Energy      =      -0.1178018556559520 [Eh]
	 SCS Opposite-Spin Energy  =      -1.3796593439097027 [Eh]
	 SCS Correlation Energy    =      -1.4974611995656546 [Eh]
	 SCS Total Energy          =    -326.7326678011704075 [Eh]
	-----------------------------------------------------------

  Dipole Moment: [D]
     X:     7.3318      Y:    -3.2276      Z:     0.2049     Total:     8.0134

*** Psi4 exiting successfully. Buy a developer a beer!
