                               Psi4 1.3.2 release

  ==> Input File <==

--------------------------------------------------------------------------
#psi4
#
memory 32 gb

molecule  {
1 1
  N        2.4325060    -0.9845600     0.0091070
  C        1.1463630    -0.2321410    -0.0173850
  C       -1.2536230    -0.2748500     0.0109180
  C       -0.0352110    -0.9646830     0.0005950
  C        1.1983270     1.1549650    -0.0097610
  C       -1.2241940     1.1288950     0.0124220
  C       -0.0217590     1.8354230    -0.0002870
  C       -2.5623340    -1.0168010    -0.0065280
  H       -0.0255345    -2.0541871     0.0507594
  H        2.1405510     1.6994190    -0.0171620
  H       -2.1632860     1.6774730     0.0209780
  H       -0.0275340     2.9214870    -0.0002680
  H        3.1916030    -0.4398890    -0.4234570
  H        2.7260810    -1.2141090     0.9696670
  H        2.3592330    -1.8699500    -0.5112020
  H       -2.4267910    -2.0731080     0.2370320
  H       -3.2605850    -0.5864750     0.7158300
  H       -3.0261010    -0.9534780    -0.9957790
units angstrom
no_reorient  #important for SAPT in psi4, default
symmetry c1  #important for SAPT in psi4, default
}

set PROPERTIES_ORIGIN ["COM"]
properties('MP2/aug-cc-pvtz', properties = ['dipole'])
--------------------------------------------------------------------------

    Molecular point group: c1
  Charge       = 1
  Multiplicity = 1
  Basis Set: AUG-CC-PVTZ
    Blend: AUG-CC-PVTZ
  Basis Set: (AUG-CC-PVTZ AUX)
    Blend: AUG-CC-PVTZ-JKFIT

    Orbital Energies [Eh]
    ---------------------

    Doubly Occupied:

       1A    -15.892727     2A    -11.463702     3A    -11.404330
       4A    -11.402501     5A    -11.399621     6A    -11.391643
       7A    -11.382034     8A    -11.348667     9A     -1.506684
      10A     -1.312495    11A     -1.201252    12A     -1.174453
      13A     -1.082885    14A     -1.001698    15A     -0.984174
      16A     -0.953578    17A     -0.925789    18A     -0.870462
      19A     -0.827154    20A     -0.791935    21A     -0.753258
      22A     -0.729124    23A     -0.706991    24A     -0.678024
      25A     -0.651451    26A     -0.651200    27A     -0.643585
      28A     -0.500754    29A     -0.484111

  @DF-RHF Final Energy:  -325.24152643711773

   => Energetics <=

    Nuclear Repulsion Energy =            353.2768766316066262
    One-Electron Energy =               -1128.8042449997860786
    Two-Electron Energy =                 450.2858419310616682
    Total Energy =                       -325.2415264371177273
  Basis Set: (AUG-CC-PVTZ AUX)
    Blend: AUG-CC-PVTZ-RI
    Molecular point group: c1

    Geometry (in Angstrom), charge = 1, multiplicity = 1:

       Center              X                  Y                   Z               Mass
    ------------   -----------------  -----------------  -----------------  -----------------
         N            2.427722409712    -1.011089800491     0.008607603233    14.003074004430
         C            1.141579409712    -0.258670800491    -0.017884396767    12.000000000000
         C           -1.258406590288    -0.301379800491     0.010418603233    12.000000000000
         C           -0.039994590288    -0.991212800491     0.000095603233    12.000000000000
         C            1.193543409712     1.128435199509    -0.010260396767    12.000000000000
         C           -1.228977590288     1.102365199509     0.011922603233    12.000000000000
         C           -0.026542590288     1.808893199509    -0.000786396767    12.000000000000
         C           -2.567117590288    -1.043330800491    -0.007027396767    12.000000000000
         H           -0.030318090288    -2.080716900491     0.050260003233     1.007825032230
         H            2.135767409712     1.672889199509    -0.017661396767     1.007825032230
         H           -2.168069590288     1.650943199509     0.020478603233     1.007825032230
         H           -0.032317590288     2.894957199509    -0.000767396767     1.007825032230
         H            3.186819409712    -0.466418800491    -0.423956396767     1.007825032230
         H            2.721297409712    -1.240638800491     0.969167603233     1.007825032230
         H            2.354449409712    -1.896479800491    -0.511701396767     1.007825032230
         H           -2.431574590288    -2.099637800491     0.236532603233     1.007825032230
         H           -3.265368590288    -0.613004800491     0.715330603233     1.007825032230
         H           -3.030884590288    -0.980007800491    -0.996278396767     1.007825032230

  Basis Set: AUG-CC-PVTZ
    Blend: AUG-CC-PVTZ
  Basis Set: (AUG-CC-PVTZ AUX)
    Blend: AUG-CC-PVTZ-JKFIT
	 Reference Energy          =    -325.2415264371177273 [Eh]
	 Singles Energy            =      -0.0000000000000000 [Eh]
	 Same-Spin Energy          =      -0.3530781720614542 [Eh]
	 Opposite-Spin Energy      =      -1.1489551044210753 [Eh]
	 Correlation Energy        =      -1.5020332764825295 [Eh]
	 Total Energy              =    -326.7435597136002343 [Eh]

	 ================> DF-SCS-MP2 Energies <==================
	-----------------------------------------------------------
	 SCS Same-Spin Scale       =       0.3333333333333333 [-]
	 SCS Opposite-Spin Scale   =       1.2000000000000000 [-]
	 SCS Same-Spin Energy      =      -0.1176927240204847 [Eh]
	 SCS Opposite-Spin Energy  =      -1.3787461253052904 [Eh]
	 SCS Correlation Energy    =      -1.4964388493257752 [Eh]
	 SCS Total Energy          =    -326.7379652864435116 [Eh]
	-----------------------------------------------------------

  Dipole Moment: [D]
     X:     7.2854      Y:    -3.2016      Z:     0.0718     Total:     7.9582

*** Psi4 exiting successfully. Buy a developer a beer!
