                               Psi4 1.3.2 release

  ==> Input File <==

--------------------------------------------------------------------------
#psi4
#
memory 32 gb

molecule  {
1 1
  N        2.4325060    -0.9845600     0.0091070
  C        1.1463630    -0.2321410    -0.0173850
  C       -1.2536230    -0.2748500     0.0109180
  C       -0.0352110    -0.9646830     0.0005950
  C        1.1983270     1.1549650    -0.0097610
  C       -1.2241940     1.1288950     0.0124220
  C       -0.0217590     1.8354230    -0.0002870
  C       -2.5623340    -1.0168010    -0.0065280
  H       -0.0261220    -2.0543070     0.0007630
  H        2.1401734     1.6996191    -0.0671602
  H       -2.1632860     1.6774730     0.0209780
  H       -0.0275340     2.9214870    -0.0002680
  H        3.1916030    -0.4398890    -0.4234570
  H        2.7260810    -1.2141090     0.9696670
  H        2.3592330    -1.8699500    -0.5112020
  H       -2.4267910    -2.0731080     0.2370320
  H       -3.2605850    -0.5864750     0.7158300
  H       -3.0261010    -0.9534780    -0.9957790
units angstrom
no_reorient  #important for SAPT in psi4, default
symmetry c1  #important for SAPT in psi4, default
}

set PROPERTIES_ORIGIN ["COM"]
properties('MP2/aug-cc-pvtz', properties = ['dipole'])
--------------------------------------------------------------------------

    Molecular point group: c1
  Charge       = 1
  Multiplicity = 1
  Basis Set: AUG-CC-PVTZ
    Blend: AUG-CC-PVTZ
  Basis Set: (AUG-CC-PVTZ AUX)
    Blend: AUG-CC-PVTZ-JKFIT

    Orbital Energies [Eh]
    ---------------------

    Doubly Occupied:

       1A    -15.892760     2A    -11.463728     3A    -11.404437
       4A    -11.402455     5A    -11.399640     6A    -11.391662
       7A    -11.382047     8A    -11.348676     9A     -1.506678
      10A     -1.312512    11A     -1.201250    12A     -1.174494
      13A     -1.082879    14A     -1.001761    15A     -0.984181
      16A     -0.953582    17A     -0.925784    18A     -0.870344
      19A     -0.827171    20A     -0.791955    21A     -0.753309
      22A     -0.729011    23A     -0.707112    24A     -0.678046
      25A     -0.652197    26A     -0.650481    27A     -0.643578
      28A     -0.500788    29A     -0.484126

  @DF-RHF Final Energy:  -325.24150552834834

   => Energetics <=

    Nuclear Repulsion Energy =            353.2760503448758982
    One-Electron Energy =               -1128.8018240719732148
    Two-Electron Energy =                 450.2842681987489755
    Total Energy =                       -325.2415055283483412
  Basis Set: (AUG-CC-PVTZ AUX)
    Blend: AUG-CC-PVTZ-RI
    Molecular point group: c1

    Geometry (in Angstrom), charge = 1, multiplicity = 1:

       Center              X                  Y                   Z               Mass
    ------------   -----------------  -----------------  -----------------  -----------------
         N            2.427731408972    -1.011090548331     0.009540022054    14.003074004430
         C            1.141588408972    -0.258671548331    -0.016951977946    12.000000000000
         C           -1.258397591028    -0.301380548331     0.011351022054    12.000000000000
         C           -0.039985591028    -0.991213548331     0.001028022054    12.000000000000
         C            1.193552408972     1.128434451669    -0.009327977946    12.000000000000
         C           -1.228968591028     1.102364451669     0.012855022054    12.000000000000
         C           -0.026533591028     1.808892451669     0.000146022054    12.000000000000
         C           -2.567108591028    -1.043331548331    -0.006094977946    12.000000000000
         H           -0.030896591028    -2.080837548331     0.001196022054     1.007825032230
         H            2.135398808972     1.673088551669    -0.066727177946     1.007825032230
         H           -2.168060591028     1.650942451669     0.021411022054     1.007825032230
         H           -0.032308591028     2.894956451669     0.000165022054     1.007825032230
         H            3.186828408972    -0.466419548331    -0.423023977946     1.007825032230
         H            2.721306408972    -1.240639548331     0.970100022054     1.007825032230
         H            2.354458408972    -1.896480548331    -0.510768977946     1.007825032230
         H           -2.431565591028    -2.099638548331     0.237465022054     1.007825032230
         H           -3.265359591028    -0.613005548331     0.716263022054     1.007825032230
         H           -3.030875591028    -0.980008548331    -0.995345977946     1.007825032230

  Basis Set: AUG-CC-PVTZ
    Blend: AUG-CC-PVTZ
  Basis Set: (AUG-CC-PVTZ AUX)
    Blend: AUG-CC-PVTZ-JKFIT
	 Reference Energy          =    -325.2415055283483412 [Eh]
	 Singles Energy            =      -0.0000000000000000 [Eh]
	 Same-Spin Energy          =      -0.3530812212343135 [Eh]
	 Opposite-Spin Energy      =      -1.1489617089792392 [Eh]
	 Correlation Energy        =      -1.5020429302135527 [Eh]
	 Total Energy              =    -326.7435484585619179 [Eh]

	 ================> DF-SCS-MP2 Energies <==================
	-----------------------------------------------------------
	 SCS Same-Spin Scale       =       0.3333333333333333 [-]
	 SCS Opposite-Spin Scale   =       1.2000000000000000 [-]
	 SCS Same-Spin Energy      =      -0.1176937404114378 [Eh]
	 SCS Opposite-Spin Energy  =      -1.3787540507750871 [Eh]
	 SCS Correlation Energy    =      -1.4964477911865248 [Eh]
	 SCS Total Energy          =    -326.7379533195348813 [Eh]
	-----------------------------------------------------------

  Dipole Moment: [D]
     X:     7.2805      Y:    -3.2035      Z:     0.0071     Total:     7.9541

*** Psi4 exiting successfully. Buy a developer a beer!
