                               Psi4 1.3.2 release

  ==> Input File <==

--------------------------------------------------------------------------
#psi4
#
memory 32 gb

molecule  {
1 1
  N        2.4325060    -0.9845600     0.0091070
  C        1.1463630    -0.2321410    -0.0173850
  C       -1.2536230    -0.2748500     0.0109180
  C       -0.0352110    -0.9646830     0.0005950
  C        1.1983270     1.1549650    -0.0097610
  C       -1.2241940     1.1288950     0.0124220
  C       -0.0217590     1.8354230    -0.0002870
  C       -2.5623340    -1.0168010    -0.0065280
  H       -0.0261220    -2.0543070     0.0007630
  H        2.1386630     1.7004196    -0.2671529
  H       -2.1632860     1.6774730     0.0209780
  H       -0.0275340     2.9214870    -0.0002680
  H        3.1916030    -0.4398890    -0.4234570
  H        2.7260810    -1.2141090     0.9696670
  H        2.3592330    -1.8699500    -0.5112020
  H       -2.4267910    -2.0731080     0.2370320
  H       -3.2605850    -0.5864750     0.7158300
  H       -3.0261010    -0.9534780    -0.9957790
units angstrom
no_reorient  #important for SAPT in psi4, default
symmetry c1  #important for SAPT in psi4, default
}

set PROPERTIES_ORIGIN ["COM"]
properties('MP2/aug-cc-pvtz', properties = ['dipole'])
--------------------------------------------------------------------------

    Molecular point group: c1
  Charge       = 1
  Multiplicity = 1
  Basis Set: AUG-CC-PVTZ
    Blend: AUG-CC-PVTZ
  Basis Set: (AUG-CC-PVTZ AUX)
    Blend: AUG-CC-PVTZ-JKFIT

    Orbital Energies [Eh]
    ---------------------

    Doubly Occupied:

       1A    -15.892672     2A    -11.464147     3A    -11.406548
       4A    -11.402726     5A    -11.400311     6A    -11.392269
       7A    -11.382232     8A    -11.349040     9A     -1.506560
      10A     -1.312705    11A     -1.200907    12A     -1.174764
      13A     -1.082384    14A     -1.001855    15A     -0.983931
      16A     -0.953489    17A     -0.925443    18A     -0.867857
      19A     -0.825242    20A     -0.792088    21A     -0.753599
      22A     -0.726311    23A     -0.706962    24A     -0.678288
      25A     -0.654929    26A     -0.648659    27A     -0.641763
      28A     -0.501038    29A     -0.484129

  @DF-RHF Final Energy:  -325.23761251372161

   => Energetics <=

    Nuclear Repulsion Energy =            353.1684231427188934
    One-Electron Energy =               -1128.5863776364312798
    Two-Electron Energy =                 450.1803419799907715
    Total Energy =                       -325.2376125137216150
  Basis Set: (AUG-CC-PVTZ AUX)
    Blend: AUG-CC-PVTZ-RI
    Molecular point group: c1

    Geometry (in Angstrom), charge = 1, multiplicity = 1:

       Center              X                  Y                   Z               Mass
    ------------   -----------------  -----------------  -----------------  -----------------
         N            2.427745492987    -1.011098012747     0.011404892332    14.003074004430
         C            1.141602492987    -0.258679012747    -0.015087107668    12.000000000000
         C           -1.258383507013    -0.301388012747     0.013215892332    12.000000000000
         C           -0.039971507013    -0.991221012747     0.002892892332    12.000000000000
         C            1.193566492987     1.128426987253    -0.007463107668    12.000000000000
         C           -1.228954507013     1.102356987253     0.014719892332    12.000000000000
         C           -0.026519507013     1.808884987253     0.002010892332    12.000000000000
         C           -2.567094507013    -1.043339012747    -0.004230107668    12.000000000000
         H           -0.030882507013    -2.080845012747     0.003060892332     1.007825032230
         H            2.133902492987     1.673881587253    -0.264855007668     1.007825032230
         H           -2.168046507013     1.650934987253     0.023275892332     1.007825032230
         H           -0.032294507013     2.894948987253     0.002029892332     1.007825032230
         H            3.186842492987    -0.466427012747    -0.421159107668     1.007825032230
         H            2.721320492987    -1.240647012747     0.971964892332     1.007825032230
         H            2.354472492987    -1.896488012747    -0.508904107668     1.007825032230
         H           -2.431551507013    -2.099646012747     0.239329892332     1.007825032230
         H           -3.265345507013    -0.613013012747     0.718127892332     1.007825032230
         H           -3.030861507013    -0.980016012747    -0.993481107668     1.007825032230

  Basis Set: AUG-CC-PVTZ
    Blend: AUG-CC-PVTZ
  Basis Set: (AUG-CC-PVTZ AUX)
    Blend: AUG-CC-PVTZ-JKFIT
	 Reference Energy          =    -325.2376125137216150 [Eh]
	 Singles Energy            =      -0.0000000000000000 [Eh]
	 Same-Spin Energy          =      -0.3533078178712606 [Eh]
	 Opposite-Spin Energy      =      -1.1494726552505634 [Eh]
	 Correlation Energy        =      -1.5027804731218239 [Eh]
	 Total Energy              =    -326.7403929868434602 [Eh]

	 ================> DF-SCS-MP2 Energies <==================
	-----------------------------------------------------------
	 SCS Same-Spin Scale       =       0.3333333333333333 [-]
	 SCS Opposite-Spin Scale   =       1.2000000000000000 [-]
	 SCS Same-Spin Energy      =      -0.1177692726237535 [Eh]
	 SCS Opposite-Spin Energy  =      -1.3793671863006760 [Eh]
	 SCS Correlation Energy    =      -1.4971364589244296 [Eh]
	 SCS Total Energy          =    -326.7347489726460594 [Eh]
	-----------------------------------------------------------

  Dipole Moment: [D]
     X:     7.2249      Y:    -3.2211      Z:    -0.1254     Total:     7.9114

*** Psi4 exiting successfully. Buy a developer a beer!
