                               Psi4 1.3.2 release

  ==> Input File <==

--------------------------------------------------------------------------
#psi4
#
memory 32 gb

molecule  {
1 1
  N        2.4325060    -0.9845600     0.0091070
  C        1.1463630    -0.2321410    -0.0173850
  C       -1.2536230    -0.2748500     0.0109180
  C       -0.0352110    -0.9646830     0.0005950
  C        1.1993452     1.1529068    -0.3097522
  C       -1.2241940     1.1288950     0.0124220
  C       -0.0217590     1.8354230    -0.0002870
  C       -2.5623340    -1.0168010    -0.0065280
  H       -0.0261220    -2.0543070     0.0007630
  H        2.1405510     1.6994190    -0.0171620
  H       -2.1632860     1.6774730     0.0209780
  H       -0.0275340     2.9214870    -0.0002680
  H        3.1916030    -0.4398890    -0.4234570
  H        2.7260810    -1.2141090     0.9696670
  H        2.3592330    -1.8699500    -0.5112020
  H       -2.4267910    -2.0731080     0.2370320
  H       -3.2605850    -0.5864750     0.7158300
  H       -3.0261010    -0.9534780    -0.9957790
units angstrom
no_reorient  #important for SAPT in psi4, default
symmetry c1  #important for SAPT in psi4, default
}

set PROPERTIES_ORIGIN ["COM"]
properties('MP2/aug-cc-pvtz', properties = ['dipole'])
--------------------------------------------------------------------------

    Molecular point group: c1
  Charge       = 1
  Multiplicity = 1
  Basis Set: AUG-CC-PVTZ
    Blend: AUG-CC-PVTZ
  Basis Set: (AUG-CC-PVTZ AUX)
    Blend: AUG-CC-PVTZ-JKFIT

    Orbital Energies [Eh]
    ---------------------

    Doubly Occupied:

       1A    -15.892263     2A    -11.469903     3A    -11.410998
       4A    -11.405087     5A    -11.401955     6A    -11.399933
       7A    -11.381454     8A    -11.351035     9A     -1.506411
      10A     -1.310086    11A     -1.197758    12A     -1.174107
      13A     -1.082642    14A     -0.997554    15A     -0.984748
      16A     -0.953338    17A     -0.925508    18A     -0.864719
      19A     -0.823299    20A     -0.786854    21A     -0.751334
      22A     -0.721759    23A     -0.706866    24A     -0.676497
      25A     -0.653835    26A     -0.647493    27A     -0.640306
      28A     -0.498089    29A     -0.485621

  @DF-RHF Final Energy:  -325.21520681094694

   => Energetics <=

    Nuclear Repulsion Energy =            352.2792184141096641
    One-Electron Energy =               -1126.7859523182244175
    Two-Electron Energy =                 449.2915270931678151
    Total Energy =                       -325.2152068109469383
  Basis Set: (AUG-CC-PVTZ AUX)
    Blend: AUG-CC-PVTZ-RI
    Molecular point group: c1

    Geometry (in Angstrom), charge = 1, multiplicity = 1:

       Center              X                  Y                   Z               Mass
    ------------   -----------------  -----------------  -----------------  -----------------
         N            2.427614839761    -1.010860165645     0.042381079328    14.003074004430
         C            1.141471839761    -0.258441165645     0.015889079328    12.000000000000
         C           -1.258514160239    -0.301150165645     0.044192079328    12.000000000000
         C           -0.040102160239    -0.990983165645     0.033869079328    12.000000000000
         C            1.194454039761     1.126606634355    -0.276478120672    12.000000000000
         C           -1.229085160239     1.102594834355     0.045696079328    12.000000000000
         C           -0.026650160239     1.809122834355     0.032987079328    12.000000000000
         C           -2.567225160239    -1.043101165645     0.026746079328    12.000000000000
         H           -0.031013160239    -2.080607165645     0.034037079328     1.007825032230
         H            2.135659839761     1.673118834355     0.016112079328     1.007825032230
         H           -2.168177160239     1.651172834355     0.054252079328     1.007825032230
         H           -0.032425160239     2.895186834355     0.033006079328     1.007825032230
         H            3.186711839761    -0.466189165645    -0.390182920672     1.007825032230
         H            2.721189839761    -1.240409165645     1.002941079328     1.007825032230
         H            2.354341839761    -1.896250165645    -0.477927920672     1.007825032230
         H           -2.431682160239    -2.099408165645     0.270306079328     1.007825032230
         H           -3.265476160239    -0.612775165645     0.749104079328     1.007825032230
         H           -3.030992160239    -0.979778165645    -0.962504920672     1.007825032230

  Basis Set: AUG-CC-PVTZ
    Blend: AUG-CC-PVTZ
  Basis Set: (AUG-CC-PVTZ AUX)
    Blend: AUG-CC-PVTZ-JKFIT
	 Reference Energy          =    -325.2152068109469383 [Eh]
	 Singles Energy            =      -0.0000000000000000 [Eh]
	 Same-Spin Energy          =      -0.3543390127283038 [Eh]
	 Opposite-Spin Energy      =      -1.1529700936314584 [Eh]
	 Correlation Energy        =      -1.5073091063597621 [Eh]
	 Total Energy              =    -326.7225159173066800 [Eh]

	 ================> DF-SCS-MP2 Energies <==================
	-----------------------------------------------------------
	 SCS Same-Spin Scale       =       0.3333333333333333 [-]
	 SCS Opposite-Spin Scale   =       1.2000000000000000 [-]
	 SCS Same-Spin Energy      =      -0.1181130042427679 [Eh]
	 SCS Opposite-Spin Energy  =      -1.3835641123577500 [Eh]
	 SCS Correlation Energy    =      -1.5016771166005178 [Eh]
	 SCS Total Energy          =    -326.7168839275474284 [Eh]
	-----------------------------------------------------------

  Dipole Moment: [D]
     X:     7.0648      Y:    -3.2776      Z:     0.3425     Total:     7.7956

*** Psi4 exiting successfully. Buy a developer a beer!
