                               Psi4 1.3.2 release

  ==> Input File <==

--------------------------------------------------------------------------
#psi4
#
memory 32 gb

molecule  {
1 1
  N        2.4325060    -0.9845600     0.0091070
  C        1.1463630    -0.2321410    -0.0173850
  C       -1.2536230    -0.2748500     0.0109180
  C       -0.0352110    -0.9646830     0.0005950
  C        1.1983270     1.1549650    -0.0097610
  C       -1.2241940     1.1288950     0.0124220
  C       -0.0217590     1.8354230    -0.0002870
  C       -2.5623340    -1.0168010    -0.0065280
  H       -0.0261220    -2.0543070     0.0007630
  H        2.1405510     1.6994190    -0.0171620
  H       -2.1627877     1.6774476     0.0709755
  H       -0.0275340     2.9214870    -0.0002680
  H        3.1916030    -0.4398890    -0.4234570
  H        2.7260810    -1.2141090     0.9696670
  H        2.3592330    -1.8699500    -0.5112020
  H       -2.4267910    -2.0731080     0.2370320
  H       -3.2605850    -0.5864750     0.7158300
  H       -3.0261010    -0.9534780    -0.9957790
units angstrom
no_reorient  #important for SAPT in psi4, default
symmetry c1  #important for SAPT in psi4, default
}

set PROPERTIES_ORIGIN ["COM"]
properties('MP2/aug-cc-pvtz', properties = ['dipole'])
--------------------------------------------------------------------------

    Molecular point group: c1
  Charge       = 1
  Multiplicity = 1
  Basis Set: AUG-CC-PVTZ
    Blend: AUG-CC-PVTZ
  Basis Set: (AUG-CC-PVTZ AUX)
    Blend: AUG-CC-PVTZ-JKFIT

    Orbital Energies [Eh]
    ---------------------

    Doubly Occupied:

       1A    -15.892752     2A    -11.463710     3A    -11.404325
       4A    -11.402452     5A    -11.399617     6A    -11.391640
       7A    -11.382128     8A    -11.348673     9A     -1.506694
      10A     -1.312501    11A     -1.201263    12A     -1.174457
      13A     -1.082892    14A     -1.001713    15A     -0.984172
      16A     -0.953592    17A     -0.925812    18A     -0.870491
      19A     -0.827097    20A     -0.791947    21A     -0.753257
      22A     -0.729143    23A     -0.707167    24A     -0.677842
      25A     -0.652164    26A     -0.650463    27A     -0.643617
      28A     -0.500736    29A     -0.484121

  @DF-RHF Final Energy:  -325.24150466913488

   => Energetics <=

    Nuclear Repulsion Energy =            353.2767083085093986
    One-Electron Energy =               -1128.8035490960044172
    Two-Electron Energy =                 450.2853361183601919
    Total Energy =                       -325.2415046691348834
  Basis Set: (AUG-CC-PVTZ AUX)
    Blend: AUG-CC-PVTZ-RI
    Molecular point group: c1

    Geometry (in Angstrom), charge = 1, multiplicity = 1:

       Center              X                  Y                   Z               Mass
    ------------   -----------------  -----------------  -----------------  -----------------
         N            2.427723241475    -1.011088445613     0.008607592976    14.003074004430
         C            1.141580241475    -0.258669445613    -0.017884407024    12.000000000000
         C           -1.258405758525    -0.301378445613     0.010418592976    12.000000000000
         C           -0.039993758525    -0.991211445613     0.000095592976    12.000000000000
         C            1.193544241475     1.128436554387    -0.010260407024    12.000000000000
         C           -1.228976758525     1.102366554387     0.011922592976    12.000000000000
         C           -0.026541758525     1.808894554387    -0.000786407024    12.000000000000
         C           -2.567116758525    -1.043329445613    -0.007027407024    12.000000000000
         H           -0.030904758525    -2.080835445613     0.000263592976     1.007825032230
         H            2.135768241475     1.672890554387    -0.017661407024     1.007825032230
         H           -2.167570458525     1.650919154387     0.070476092976     1.007825032230
         H           -0.032316758525     2.894958554387    -0.000767407024     1.007825032230
         H            3.186820241475    -0.466417445613    -0.423956407024     1.007825032230
         H            2.721298241475    -1.240637445613     0.969167592976     1.007825032230
         H            2.354450241475    -1.896478445613    -0.511701407024     1.007825032230
         H           -2.431573758525    -2.099636445613     0.236532592976     1.007825032230
         H           -3.265367758525    -0.613003445613     0.715330592976     1.007825032230
         H           -3.030883758525    -0.980006445613    -0.996278407024     1.007825032230

  Basis Set: AUG-CC-PVTZ
    Blend: AUG-CC-PVTZ
  Basis Set: (AUG-CC-PVTZ AUX)
    Blend: AUG-CC-PVTZ-JKFIT
	 Reference Energy          =    -325.2415046691348834 [Eh]
	 Singles Energy            =      -0.0000000000000000 [Eh]
	 Same-Spin Energy          =      -0.3530802658785946 [Eh]
	 Opposite-Spin Energy      =      -1.1489604762243424 [Eh]
	 Correlation Energy        =      -1.5020407421029369 [Eh]
	 Total Energy              =    -326.7435454112378466 [Eh]

	 ================> DF-SCS-MP2 Energies <==================
	-----------------------------------------------------------
	 SCS Same-Spin Scale       =       0.3333333333333333 [-]
	 SCS Opposite-Spin Scale   =       1.2000000000000000 [-]
	 SCS Same-Spin Energy      =      -0.1176934219595315 [Eh]
	 SCS Opposite-Spin Energy  =      -1.3787525714692108 [Eh]
	 SCS Correlation Energy    =      -1.4964459934287424 [Eh]
	 SCS Total Energy          =    -326.7379506625636054 [Eh]
	-----------------------------------------------------------

  Dipole Moment: [D]
     X:     7.2866      Y:    -3.2037      Z:     0.0685     Total:     7.9601

*** Psi4 exiting successfully. Buy a developer a beer!
