                               Psi4 1.3.2 release

  ==> Input File <==

--------------------------------------------------------------------------
#psi4
#
memory 32 gb

molecule  {
1 1
  N        2.4325060    -0.9845600     0.0091070
  C        1.1463630    -0.2321410    -0.0173850
  C       -1.2536230    -0.2748500     0.0109180
  C       -0.0352110    -0.9646830     0.0005950
  C        1.1983270     1.1549650    -0.0097610
  C       -1.2241940     1.1288950     0.0124220
  C       -0.0217590     1.8354230    -0.0002870
  C       -2.5623340    -1.0168010    -0.0065280
  H       -0.0261220    -2.0543070     0.0007630
  H        2.1405510     1.6994190    -0.0171620
  H       -2.1632860     1.6774730     0.0209780
  H       -0.0289059     2.9213410    -0.1502617
  H        3.1916030    -0.4398890    -0.4234570
  H        2.7260810    -1.2141090     0.9696670
  H        2.3592330    -1.8699500    -0.5112020
  H       -2.4267910    -2.0731080     0.2370320
  H       -3.2605850    -0.5864750     0.7158300
  H       -3.0261010    -0.9534780    -0.9957790
units angstrom
no_reorient  #important for SAPT in psi4, default
symmetry c1  #important for SAPT in psi4, default
}

set PROPERTIES_ORIGIN ["COM"]
properties('MP2/aug-cc-pvtz', properties = ['dipole'])
--------------------------------------------------------------------------

    Molecular point group: c1
  Charge       = 1
  Multiplicity = 1
  Basis Set: AUG-CC-PVTZ
    Blend: AUG-CC-PVTZ
  Basis Set: (AUG-CC-PVTZ AUX)
    Blend: AUG-CC-PVTZ-JKFIT

    Orbital Energies [Eh]
    ---------------------

    Doubly Occupied:

       1A    -15.892752     2A    -11.463732     3A    -11.404397
       4A    -11.402597     5A    -11.399671     6A    -11.392473
       7A    -11.382240     8A    -11.348715     9A     -1.506691
      10A     -1.312542    11A     -1.201258    12A     -1.174323
      13A     -1.082949    14A     -1.001478    15A     -0.984036
      16A     -0.953586    17A     -0.925405    18A     -0.870210
      19A     -0.827276    20A     -0.791916    21A     -0.751778
      22A     -0.729175    23A     -0.707080    24A     -0.677890
      25A     -0.652541    26A     -0.651230    27A     -0.641850
      28A     -0.500575    29A     -0.484096

  @DF-RHF Final Energy:  -325.24017331046684

   => Energetics <=

    Nuclear Repulsion Energy =            353.2428231114240020
    One-Electron Energy =               -1128.7370671906046482
    Two-Electron Energy =                 450.2540707687137456
    Total Energy =                       -325.2401733104668438
  Basis Set: (AUG-CC-PVTZ AUX)
    Blend: AUG-CC-PVTZ-RI
    Molecular point group: c1

    Geometry (in Angstrom), charge = 1, multiplicity = 1:

       Center              X                  Y                   Z               Mass
    ------------   -----------------  -----------------  -----------------  -----------------
         N            2.427740680513    -1.011087321055     0.010472449267    14.003074004430
         C            1.141597680513    -0.258668321055    -0.016019550733    12.000000000000
         C           -1.258388319487    -0.301377321055     0.012283449267    12.000000000000
         C           -0.039976319487    -0.991210321055     0.001960449267    12.000000000000
         C            1.193561680513     1.128437678945    -0.008395550733    12.000000000000
         C           -1.228959319487     1.102367678945     0.013787449267    12.000000000000
         C           -0.026524319487     1.808895678945     0.001078449267    12.000000000000
         C           -2.567099319487    -1.043328321055    -0.005162550733    12.000000000000
         H           -0.030887319487    -2.080834321055     0.002128449267     1.007825032230
         H            2.135785680513     1.672891678945    -0.015796550733     1.007825032230
         H           -2.168051319487     1.650945678945     0.022343449267     1.007825032230
         H           -0.033671219487     2.894813678945    -0.148896250733     1.007825032230
         H            3.186837680513    -0.466416321055    -0.422091550733     1.007825032230
         H            2.721315680513    -1.240636321055     0.971032449267     1.007825032230
         H            2.354467680513    -1.896477321055    -0.509836550733     1.007825032230
         H           -2.431556319487    -2.099635321055     0.238397449267     1.007825032230
         H           -3.265350319487    -0.613002321055     0.717195449267     1.007825032230
         H           -3.030866319487    -0.980005321055    -0.994413550733     1.007825032230

  Basis Set: AUG-CC-PVTZ
    Blend: AUG-CC-PVTZ
  Basis Set: (AUG-CC-PVTZ AUX)
    Blend: AUG-CC-PVTZ-JKFIT
	 Reference Energy          =    -325.2401733104668438 [Eh]
	 Singles Energy            =      -0.0000000000000000 [Eh]
	 Same-Spin Energy          =      -0.3531569134596211 [Eh]
	 Opposite-Spin Energy      =      -1.1491523937741270 [Eh]
	 Correlation Energy        =      -1.5023093072337481 [Eh]
	 Total Energy              =    -326.7424826177006025 [Eh]

	 ================> DF-SCS-MP2 Energies <==================
	-----------------------------------------------------------
	 SCS Same-Spin Scale       =       0.3333333333333333 [-]
	 SCS Opposite-Spin Scale   =       1.2000000000000000 [-]
	 SCS Same-Spin Energy      =      -0.1177189711532070 [Eh]
	 SCS Opposite-Spin Energy  =      -1.3789828725289524 [Eh]
	 SCS Correlation Energy    =      -1.4967018436821593 [Eh]
	 SCS Total Energy          =    -326.7368751541490042 [Eh]
	-----------------------------------------------------------

  Dipole Moment: [D]
     X:     7.2789      Y:    -3.2149      Z:    -0.0470     Total:     7.9574

*** Psi4 exiting successfully. Buy a developer a beer!
