                               Psi4 1.3.2 release

  ==> Input File <==

--------------------------------------------------------------------------
#psi4
#
memory 32 gb

molecule  {
1 1
  N        2.4325060    -0.9845600     0.0091070
  C        1.1463630    -0.2321410    -0.0173850
  C       -1.2536230    -0.2748500     0.0109180
  C       -0.0352110    -0.9646830     0.0005950
  C        1.1983270     1.1549650    -0.0097610
  C       -1.2241940     1.1288950     0.0124220
  C       -0.0217590     1.8354230    -0.0002870
  C       -2.5623340    -1.0168010    -0.0065280
  H       -0.0261220    -2.0543070     0.0007630
  H        2.1405510     1.6994190    -0.0171620
  H       -2.1622893     1.6774221     0.1209730
  H       -0.0275340     2.9214870    -0.0002680
  H        3.1916030    -0.4398890    -0.4234570
  H        2.7260810    -1.2141090     0.9696670
  H        2.3592330    -1.8699500    -0.5112020
  H       -2.4267910    -2.0731080     0.2370320
  H       -3.2605850    -0.5864750     0.7158300
  H       -3.0261010    -0.9534780    -0.9957790
units angstrom
no_reorient  #important for SAPT in psi4, default
symmetry c1  #important for SAPT in psi4, default
}

set PROPERTIES_ORIGIN ["COM"]
properties('MP2/aug-cc-pvtz', properties = ['dipole'])
--------------------------------------------------------------------------

    Molecular point group: c1
  Charge       = 1
  Multiplicity = 1
  Basis Set: AUG-CC-PVTZ
    Blend: AUG-CC-PVTZ
  Basis Set: (AUG-CC-PVTZ AUX)
    Blend: AUG-CC-PVTZ-JKFIT

    Orbital Energies [Eh]
    ---------------------

    Doubly Occupied:

       1A    -15.892774     2A    -11.463755     3A    -11.404342
       4A    -11.402473     5A    -11.399661     6A    -11.391688
       7A    -11.382418     8A    -11.348686     9A     -1.506724
      10A     -1.312516    11A     -1.201273    12A     -1.174404
      13A     -1.082883    14A     -1.001598    15A     -0.984152
      16A     -0.953620    17A     -0.925834    18A     -0.870501
      19A     -0.826617    20A     -0.791964    21A     -0.753198
      22A     -0.729110    23A     -0.707276    24A     -0.677447
      25A     -0.652742    26A     -0.649702    27A     -0.643622
      28A     -0.500650    29A     -0.484128

  @DF-RHF Final Energy:  -325.24101512512323

   => Energetics <=

    Nuclear Repulsion Energy =            353.2632874497498392
    One-Electron Energy =               -1128.7770907249521315
    Two-Electron Energy =                 450.2727881500790090
    Total Energy =                       -325.2410151251232264
  Basis Set: (AUG-CC-PVTZ AUX)
    Blend: AUG-CC-PVTZ-RI
    Molecular point group: c1

    Geometry (in Angstrom), charge = 1, multiplicity = 1:

       Center              X                  Y                   Z               Mass
    ------------   -----------------  -----------------  -----------------  -----------------
         N            2.427718594049    -1.011088207833     0.008141381701    14.003074004430
         C            1.141575594049    -0.258669207833    -0.018350618299    12.000000000000
         C           -1.258410405951    -0.301378207833     0.009952381701    12.000000000000
         C           -0.039998405951    -0.991211207833    -0.000370618299    12.000000000000
         C            1.193539594049     1.128436792167    -0.010726618299    12.000000000000
         C           -1.228981405951     1.102366792167     0.011456381701    12.000000000000
         C           -0.026546405951     1.808894792167    -0.001252618299    12.000000000000
         C           -2.567121405951    -1.043329207833    -0.007493618299    12.000000000000
         H           -0.030909405951    -2.080835207833    -0.000202618299     1.007825032230
         H            2.135763594049     1.672890792167    -0.018127618299     1.007825032230
         H           -2.167076705951     1.650893892167     0.120007381701     1.007825032230
         H           -0.032321405951     2.894958792167    -0.001233618299     1.007825032230
         H            3.186815594049    -0.466417207833    -0.424422618299     1.007825032230
         H            2.721293594049    -1.240637207833     0.968701381701     1.007825032230
         H            2.354445594049    -1.896478207833    -0.512167618299     1.007825032230
         H           -2.431578405951    -2.099636207833     0.236066381701     1.007825032230
         H           -3.265372405951    -0.613003207833     0.714864381701     1.007825032230
         H           -3.030888405951    -0.980006207833    -0.996744618299     1.007825032230

  Basis Set: AUG-CC-PVTZ
    Blend: AUG-CC-PVTZ
  Basis Set: (AUG-CC-PVTZ AUX)
    Blend: AUG-CC-PVTZ-JKFIT
	 Reference Energy          =    -325.2410151251232264 [Eh]
	 Singles Energy            =      -0.0000000000000000 [Eh]
	 Same-Spin Energy          =      -0.3531089993826200 [Eh]
	 Opposite-Spin Energy      =      -1.1490198805257410 [Eh]
	 Correlation Energy        =      -1.5021288799083610 [Eh]
	 Total Energy              =    -326.7431440050315814 [Eh]

	 ================> DF-SCS-MP2 Energies <==================
	-----------------------------------------------------------
	 SCS Same-Spin Scale       =       0.3333333333333333 [-]
	 SCS Opposite-Spin Scale   =       1.2000000000000000 [-]
	 SCS Same-Spin Energy      =      -0.1177029997942066 [Eh]
	 SCS Opposite-Spin Energy  =      -1.3788238566308892 [Eh]
	 SCS Correlation Energy    =      -1.4965268564250960 [Eh]
	 SCS Total Energy          =    -326.7375419815483042 [Eh]
	-----------------------------------------------------------

  Dipole Moment: [D]
     X:     7.2912      Y:    -3.2059      Z:     0.0961     Total:     7.9654

*** Psi4 exiting successfully. Buy a developer a beer!
