                               Psi4 1.3.2 release

  ==> Input File <==

--------------------------------------------------------------------------
#psi4
#
memory 32 gb

molecule  {
1 1
  N        2.4325060    -0.9845600     0.0091070
  C        1.1463630    -0.2321410    -0.0173850
  C       -1.2536230    -0.2748500     0.0109180
  C       -0.0352110    -0.9646830     0.0005950
  C        1.1983270     1.1549650    -0.0097610
  C       -1.2241940     1.1288950     0.0124220
  C       -0.0217590     1.8354230    -0.0002870
  C       -2.5630017    -1.0185924     0.2434647
  H       -0.0261220    -2.0543070     0.0007630
  H        2.1405510     1.6994190    -0.0171620
  H       -2.1632860     1.6774730     0.0209780
  H       -0.0275340     2.9214870    -0.0002680
  H        3.1916030    -0.4398890    -0.4234570
  H        2.7260810    -1.2141090     0.9696670
  H        2.3592330    -1.8699500    -0.5112020
  H       -2.4267910    -2.0731080     0.2370320
  H       -3.2605850    -0.5864750     0.7158300
  H       -3.0261010    -0.9534780    -0.9957790
units angstrom
no_reorient  #important for SAPT in psi4, default
symmetry c1  #important for SAPT in psi4, default
}

set PROPERTIES_ORIGIN ["COM"]
properties('MP2/aug-cc-pvtz', properties = ['dipole'])
--------------------------------------------------------------------------

    Molecular point group: c1
  Charge       = 1
  Multiplicity = 1
  Basis Set: AUG-CC-PVTZ
    Blend: AUG-CC-PVTZ
  Basis Set: (AUG-CC-PVTZ AUX)
    Blend: AUG-CC-PVTZ-JKFIT

    Orbital Energies [Eh]
    ---------------------

    Doubly Occupied:

       1A    -15.892902     2A    -11.464379     3A    -11.405804
       4A    -11.402936     5A    -11.402254     6A    -11.391873
       7A    -11.381613     8A    -11.359469     9A     -1.506818
      10A     -1.312619    11A     -1.201168    12A     -1.174599
      13A     -1.087076    14A     -1.002109    15A     -0.987433
      16A     -0.953707    17A     -0.926232    18A     -0.873820
      19A     -0.828279    20A     -0.798340    21A     -0.754086
      22A     -0.737879    23A     -0.725195    24A     -0.678106
      25A     -0.664091    26A     -0.646764    27A     -0.604741
      28A     -0.500978    29A     -0.473270

  @DF-RHF Final Energy:  -325.18806813595643

   => Energetics <=

    Nuclear Repulsion Energy =            353.0193099226827940
    One-Electron Energy =               -1128.1376709547978407
    Two-Electron Energy =                 449.9302928961585621
    Total Energy =                       -325.1880681359564278
  Basis Set: (AUG-CC-PVTZ AUX)
    Blend: AUG-CC-PVTZ-RI
    Molecular point group: c1

    Geometry (in Angstrom), charge = 1, multiplicity = 1:

       Center              X                  Y                   Z               Mass
    ------------   -----------------  -----------------  -----------------  -----------------
         N            2.427802021035    -1.010889787784    -0.018682262014    14.003074004430
         C            1.141659021035    -0.258470787784    -0.045174262014    12.000000000000
         C           -1.258326978965    -0.301179787784    -0.016871262014    12.000000000000
         C           -0.039914978965    -0.991012787784    -0.027194262014    12.000000000000
         C            1.193623021035     1.128635212216    -0.037550262014    12.000000000000
         C           -1.228897978965     1.102565212216    -0.015367262014    12.000000000000
         C           -0.026462978965     1.809093212216    -0.028076262014    12.000000000000
         C           -2.567705678965    -1.044922187784     0.215675437986    12.000000000000
         H           -0.030825978965    -2.080636787784    -0.027026262014     1.007825032230
         H            2.135847021035     1.673089212216    -0.044951262014     1.007825032230
         H           -2.167989978965     1.651143212216    -0.006811262014     1.007825032230
         H           -0.032237978965     2.895157212216    -0.028057262014     1.007825032230
         H            3.186899021035    -0.466218787784    -0.451246262014     1.007825032230
         H            2.721377021035    -1.240438787784     0.941877737986     1.007825032230
         H            2.354529021035    -1.896279787784    -0.538991262014     1.007825032230
         H           -2.431494978965    -2.099437787784     0.209242737986     1.007825032230
         H           -3.265288978965    -0.612804787784     0.688040737986     1.007825032230
         H           -3.030804978965    -0.979807787784    -1.023568262014     1.007825032230

  Basis Set: AUG-CC-PVTZ
    Blend: AUG-CC-PVTZ
  Basis Set: (AUG-CC-PVTZ AUX)
    Blend: AUG-CC-PVTZ-JKFIT
	 Reference Energy          =    -325.1880681359564278 [Eh]
	 Singles Energy            =      -0.0000000000000000 [Eh]
	 Same-Spin Energy          =      -0.3538819829209841 [Eh]
	 Opposite-Spin Energy      =      -1.1515299206400051 [Eh]
	 Correlation Energy        =      -1.5054119035609892 [Eh]
	 Total Energy              =    -326.6934800395173966 [Eh]

	 ================> DF-SCS-MP2 Energies <==================
	-----------------------------------------------------------
	 SCS Same-Spin Scale       =       0.3333333333333333 [-]
	 SCS Opposite-Spin Scale   =       1.2000000000000000 [-]
	 SCS Same-Spin Energy      =      -0.1179606609736614 [Eh]
	 SCS Opposite-Spin Energy  =      -1.3818359047680062 [Eh]
	 SCS Correlation Energy    =      -1.4997965657416676 [Eh]
	 SCS Total Energy          =    -326.6878647016981176 [Eh]
	-----------------------------------------------------------

  Dipole Moment: [D]
     X:     7.2173      Y:    -3.2698      Z:    -0.0335     Total:     7.9235

*** Psi4 exiting successfully. Buy a developer a beer!
