                               Psi4 1.3.2 release

  ==> Input File <==

--------------------------------------------------------------------------
#psi4
#
memory 32 gb

molecule  {
1 1
  N        2.4325060    -0.9845600     0.0091070
  C        1.1463630    -0.2321410    -0.0173850
  C       -1.2536230    -0.2748500     0.0109180
  C       -0.0352110    -0.9646830     0.0005950
  C        1.1983270     1.1549650    -0.0097610
  C       -1.2241940     1.1288950     0.0124220
  C       -0.0217590     1.8354230    -0.0002870
  C       -2.5623340    -1.0168010    -0.0065280
  H       -0.0261220    -2.0543070     0.0007630
  H        2.1390406     1.7002195    -0.2171547
  H       -2.1632860     1.6774730     0.0209780
  H       -0.0275340     2.9214870    -0.0002680
  H        3.1916030    -0.4398890    -0.4234570
  H        2.7260810    -1.2141090     0.9696670
  H        2.3592330    -1.8699500    -0.5112020
  H       -2.4267910    -2.0731080     0.2370320
  H       -3.2605850    -0.5864750     0.7158300
  H       -3.0261010    -0.9534780    -0.9957790
units angstrom
no_reorient  #important for SAPT in psi4, default
symmetry c1  #important for SAPT in psi4, default
}

set PROPERTIES_ORIGIN ["COM"]
properties('MP2/aug-cc-pvtz', properties = ['dipole'])
--------------------------------------------------------------------------

    Molecular point group: c1
  Charge       = 1
  Multiplicity = 1
  Basis Set: AUG-CC-PVTZ
    Blend: AUG-CC-PVTZ
  Basis Set: (AUG-CC-PVTZ AUX)
    Blend: AUG-CC-PVTZ-JKFIT

    Orbital Energies [Eh]
    ---------------------

    Doubly Occupied:

       1A    -15.892714     2A    -11.463996     3A    -11.405783
       4A    -11.402624     5A    -11.400067     6A    -11.392048
       7A    -11.382166     8A    -11.348906     9A     -1.506603
      10A     -1.312635    11A     -1.201031    12A     -1.174667
      13A     -1.082562    14A     -1.001821    15A     -0.984026
      16A     -0.953526    17A     -0.925559    18A     -0.868710
      19A     -0.825967    20A     -0.792042    21A     -0.753496
      22A     -0.727306    23A     -0.707033    24A     -0.678199
      25A     -0.654263    26A     -0.648945    27A     -0.642509
      28A     -0.500948    29A     -0.484133

  @DF-RHF Final Energy:  -325.23913740059720

   => Energetics <=

    Nuclear Repulsion Energy =            353.2077946936486228
    One-Electron Energy =               -1128.6652962081061560
    Two-Electron Energy =                 450.2183641138603889
    Total Energy =                       -325.2391374005972011
  Basis Set: (AUG-CC-PVTZ AUX)
    Blend: AUG-CC-PVTZ-RI
    Molecular point group: c1

    Geometry (in Angstrom), charge = 1, multiplicity = 1:

       Center              X                  Y                   Z               Mass
    ------------   -----------------  -----------------  -----------------  -----------------
         N            2.427741971983    -1.011096146876     0.010938674529    14.003074004430
         C            1.141598971983    -0.258677146876    -0.015553325471    12.000000000000
         C           -1.258387028017    -0.301386146876     0.012749674529    12.000000000000
         C           -0.039975028017    -0.991219146876     0.002426674529    12.000000000000
         C            1.193562971983     1.128428853124    -0.007929325471    12.000000000000
         C           -1.228958028017     1.102358853124     0.014253674529    12.000000000000
         C           -0.026523028017     1.808886853124     0.001544674529    12.000000000000
         C           -2.567098028017    -1.043337146876    -0.004696325471    12.000000000000
         H           -0.030886028017    -2.080843146876     0.002594674529     1.007825032230
         H            2.134276571983     1.673683353124    -0.215323025471     1.007825032230
         H           -2.168050028017     1.650936853124     0.022809674529     1.007825032230
         H           -0.032298028017     2.894950853124     0.001563674529     1.007825032230
         H            3.186838971983    -0.466425146876    -0.421625325471     1.007825032230
         H            2.721316971983    -1.240645146876     0.971498674529     1.007825032230
         H            2.354468971983    -1.896486146876    -0.509370325471     1.007825032230
         H           -2.431555028017    -2.099644146876     0.238863674529     1.007825032230
         H           -3.265349028017    -0.613011146876     0.717661674529     1.007825032230
         H           -3.030865028017    -0.980014146876    -0.993947325471     1.007825032230

  Basis Set: AUG-CC-PVTZ
    Blend: AUG-CC-PVTZ
  Basis Set: (AUG-CC-PVTZ AUX)
    Blend: AUG-CC-PVTZ-JKFIT
	 Reference Energy          =    -325.2391374005972011 [Eh]
	 Singles Energy            =      -0.0000000000000000 [Eh]
	 Same-Spin Energy          =      -0.3532244981452091 [Eh]
	 Opposite-Spin Energy      =      -1.1492757834360932 [Eh]
	 Correlation Energy        =      -1.5025002815813022 [Eh]
	 Total Energy              =    -326.7416376821785207 [Eh]

	 ================> DF-SCS-MP2 Energies <==================
	-----------------------------------------------------------
	 SCS Same-Spin Scale       =       0.3333333333333333 [-]
	 SCS Opposite-Spin Scale   =       1.2000000000000000 [-]
	 SCS Same-Spin Energy      =      -0.1177414993817364 [Eh]
	 SCS Opposite-Spin Energy  =      -1.3791309401233118 [Eh]
	 SCS Correlation Energy    =      -1.4968724395050481 [Eh]
	 SCS Total Energy          =    -326.7360098401022697 [Eh]
	-----------------------------------------------------------

  Dipole Moment: [D]
     X:     7.2446      Y:    -3.2146      Z:    -0.0928     Total:     7.9263

*** Psi4 exiting successfully. Buy a developer a beer!
