                               Psi4 1.3.2 release

  ==> Input File <==

--------------------------------------------------------------------------
#psi4
#
memory 32 gb

molecule  {
1 1
  N        2.4325060    -0.9845600     0.0091070
  C        1.1463630    -0.2321410    -0.0173850
  C       -1.2536230    -0.2748500     0.0109180
  C       -0.0352110    -0.9646830     0.0005950
  C        1.1983270     1.1549650    -0.0097610
  C       -1.2241940     1.1288950     0.0124220
  C       -0.0217590     1.8354230    -0.0002870
  C       -2.5623340    -1.0168010    -0.0065280
  H       -0.0261220    -2.0543070     0.0007630
  H        2.1405510     1.6994190    -0.0171620
  H       -2.1617910     1.6773967     0.1709705
  H       -0.0275340     2.9214870    -0.0002680
  H        3.1916030    -0.4398890    -0.4234570
  H        2.7260810    -1.2141090     0.9696670
  H        2.3592330    -1.8699500    -0.5112020
  H       -2.4267910    -2.0731080     0.2370320
  H       -3.2605850    -0.5864750     0.7158300
  H       -3.0261010    -0.9534780    -0.9957790
units angstrom
no_reorient  #important for SAPT in psi4, default
symmetry c1  #important for SAPT in psi4, default
}

set PROPERTIES_ORIGIN ["COM"]
properties('MP2/aug-cc-pvtz', properties = ['dipole'])
--------------------------------------------------------------------------

    Molecular point group: c1
  Charge       = 1
  Multiplicity = 1
  Basis Set: AUG-CC-PVTZ
    Blend: AUG-CC-PVTZ
  Basis Set: (AUG-CC-PVTZ AUX)
    Blend: AUG-CC-PVTZ-JKFIT

    Orbital Energies [Eh]
    ---------------------

    Doubly Occupied:

       1A    -15.892816     2A    -11.463833     3A    -11.404369
       4A    -11.402507     5A    -11.399738     6A    -11.391769
       7A    -11.382900     8A    -11.348699     9A     -1.506773
      10A     -1.312542    11A     -1.201291    12A     -1.174317
      13A     -1.082869    14A     -1.001412    15A     -0.984117
      16A     -0.953666    17A     -0.925872    18A     -0.870520
      19A     -0.825822    20A     -0.791995    21A     -0.753106
      22A     -0.729053    23A     -0.707428    24A     -0.676861
      25A     -0.653254    26A     -0.648837    27A     -0.643625
      28A     -0.500512    29A     -0.484134

  @DF-RHF Final Energy:  -325.24017499736919

   => Energetics <=

    Nuclear Repulsion Energy =            353.2410972503020616
    One-Electron Energy =               -1128.7332691355718453
    Two-Electron Energy =                 450.2519968879005319
    Total Energy =                       -325.2401749973691949
  Basis Set: (AUG-CC-PVTZ AUX)
    Blend: AUG-CC-PVTZ-RI
    Molecular point group: c1

    Geometry (in Angstrom), charge = 1, multiplicity = 1:

       Center              X                  Y                   Z               Mass
    ------------   -----------------  -----------------  -----------------  -----------------
         N            2.427713947555    -1.011087970986     0.007675170425    14.003074004430
         C            1.141570947555    -0.258668970986    -0.018816829575    12.000000000000
         C           -1.258415052445    -0.301377970986     0.009486170425    12.000000000000
         C           -0.040003052445    -0.991210970986    -0.000836829575    12.000000000000
         C            1.193534947555     1.128437029014    -0.011192829575    12.000000000000
         C           -1.228986052445     1.102367029014     0.010990170425    12.000000000000
         C           -0.026551052445     1.808895029014    -0.001718829575    12.000000000000
         C           -2.567126052445    -1.043328970986    -0.007959829575    12.000000000000
         H           -0.030914052445    -2.080834970986    -0.000668829575     1.007825032230
         H            2.135758947555     1.672891029014    -0.018593829575     1.007825032230
         H           -2.166583052445     1.650868729014     0.169538670425     1.007825032230
         H           -0.032326052445     2.894959029014    -0.001699829575     1.007825032230
         H            3.186810947555    -0.466416970986    -0.424888829575     1.007825032230
         H            2.721288947555    -1.240636970986     0.968235170425     1.007825032230
         H            2.354440947555    -1.896477970986    -0.512633829575     1.007825032230
         H           -2.431583052445    -2.099635970986     0.235600170425     1.007825032230
         H           -3.265377052445    -0.613002970986     0.714398170425     1.007825032230
         H           -3.030893052445    -0.980005970986    -0.997210829575     1.007825032230

  Basis Set: AUG-CC-PVTZ
    Blend: AUG-CC-PVTZ
  Basis Set: (AUG-CC-PVTZ AUX)
    Blend: AUG-CC-PVTZ-JKFIT
	 Reference Energy          =    -325.2401749973691949 [Eh]
	 Singles Energy            =      -0.0000000000000000 [Eh]
	 Same-Spin Energy          =      -0.3531563889635553 [Eh]
	 Opposite-Spin Energy      =      -1.1491231867249685 [Eh]
	 Correlation Energy        =      -1.5022795756885239 [Eh]
	 Total Energy              =    -326.7424545730577279 [Eh]

	 ================> DF-SCS-MP2 Energies <==================
	-----------------------------------------------------------
	 SCS Same-Spin Scale       =       0.3333333333333333 [-]
	 SCS Opposite-Spin Scale   =       1.2000000000000000 [-]
	 SCS Same-Spin Energy      =      -0.1177187963211851 [Eh]
	 SCS Opposite-Spin Energy  =      -1.3789478240699622 [Eh]
	 SCS Correlation Energy    =      -1.4966666203911474 [Eh]
	 SCS Total Energy          =    -326.7368416177603194 [Eh]
	-----------------------------------------------------------

  Dipole Moment: [D]
     X:     7.2980      Y:    -3.2094      Z:     0.1235     Total:     7.9735

*** Psi4 exiting successfully. Buy a developer a beer!
