                               Psi4 1.3.2 release

  ==> Input File <==

--------------------------------------------------------------------------
#psi4
#
memory 32 gb

molecule  {
1 1
  N        2.4325060    -0.9845600     0.0091070
  C        1.1463630    -0.2321410    -0.0173850
  C       -1.2536230    -0.2748500     0.0109180
  C       -0.0352110    -0.9646830     0.0005950
  C        1.1983270     1.1549650    -0.0097610
  C       -1.2241940     1.1288950     0.0124220
  C       -0.0217590     1.8354230    -0.0002870
  C       -2.5623340    -1.0168010    -0.0065280
  H       -0.0243596    -2.0539472     0.1507522
  H        2.1405510     1.6994190    -0.0171620
  H       -2.1632860     1.6774730     0.0209780
  H       -0.0275340     2.9214870    -0.0002680
  H        3.1916030    -0.4398890    -0.4234570
  H        2.7260810    -1.2141090     0.9696670
  H        2.3592330    -1.8699500    -0.5112020
  H       -2.4267910    -2.0731080     0.2370320
  H       -3.2605850    -0.5864750     0.7158300
  H       -3.0261010    -0.9534780    -0.9957790
units angstrom
no_reorient  #important for SAPT in psi4, default
symmetry c1  #important for SAPT in psi4, default
}

set PROPERTIES_ORIGIN ["COM"]
properties('MP2/aug-cc-pvtz', properties = ['dipole'])
--------------------------------------------------------------------------

    Molecular point group: c1
  Charge       = 1
  Multiplicity = 1
  Basis Set: AUG-CC-PVTZ
    Blend: AUG-CC-PVTZ
  Basis Set: (AUG-CC-PVTZ AUX)
    Blend: AUG-CC-PVTZ-JKFIT

    Orbital Energies [Eh]
    ---------------------

    Doubly Occupied:

       1A    -15.892646     2A    -11.463791     3A    -11.404413
       4A    -11.403124     5A    -11.399832     6A    -11.391838
       7A    -11.382089     8A    -11.348695     9A     -1.506651
      10A     -1.312523    11A     -1.201243    12A     -1.174303
      13A     -1.082847    14A     -1.001369    15A     -0.984175
      16A     -0.953541    17A     -0.925552    18A     -0.870215
      19A     -0.826415    20A     -0.791900    21A     -0.752683
      22A     -0.728978    23A     -0.706680    24A     -0.677873
      25A     -0.651488    26A     -0.651401    27A     -0.643069
      28A     -0.500715    29A     -0.484130

  @DF-RHF Final Energy:  -325.24033239648452

   => Energetics <=

    Nuclear Repulsion Energy =            353.2403963765582944
    One-Electron Energy =               -1128.7331005662754251
    Two-Electron Energy =                 450.2523717932326690
    Total Energy =                       -325.2403323964845185
  Basis Set: (AUG-CC-PVTZ AUX)
    Blend: AUG-CC-PVTZ-RI
    Molecular point group: c1

    Geometry (in Angstrom), charge = 1, multiplicity = 1:

       Center              X                  Y                   Z               Mass
    ------------   -----------------  -----------------  -----------------  -----------------
         N            2.427711454132    -1.011092037484     0.007675201197    14.003074004430
         C            1.141568454132    -0.258673037484    -0.018816798803    12.000000000000
         C           -1.258417545868    -0.301382037484     0.009486201197    12.000000000000
         C           -0.040005545868    -0.991215037484    -0.000836798803    12.000000000000
         C            1.193532454132     1.128432962516    -0.011192798803    12.000000000000
         C           -1.228988545868     1.102362962516     0.010990201197    12.000000000000
         C           -0.026553545868     1.808890962516    -0.001718798803    12.000000000000
         C           -2.567128545868    -1.043333037484    -0.007959798803    12.000000000000
         H           -0.029154145868    -2.080479237484     0.149320401197     1.007825032230
         H            2.135756454132     1.672886962516    -0.018593798803     1.007825032230
         H           -2.168080545868     1.650940962516     0.019546201197     1.007825032230
         H           -0.032328545868     2.894954962516    -0.001699798803     1.007825032230
         H            3.186808454132    -0.466421037484    -0.424888798803     1.007825032230
         H            2.721286454132    -1.240641037484     0.968235201197     1.007825032230
         H            2.354438454132    -1.896482037484    -0.512633798803     1.007825032230
         H           -2.431585545868    -2.099640037484     0.235600201197     1.007825032230
         H           -3.265379545868    -0.613007037484     0.714398201197     1.007825032230
         H           -3.030895545868    -0.980010037484    -0.997210798803     1.007825032230

  Basis Set: AUG-CC-PVTZ
    Blend: AUG-CC-PVTZ
  Basis Set: (AUG-CC-PVTZ AUX)
    Blend: AUG-CC-PVTZ-JKFIT
	 Reference Energy          =    -325.2403323964845185 [Eh]
	 Singles Energy            =      -0.0000000000000000 [Eh]
	 Same-Spin Energy          =      -0.3531517699654674 [Eh]
	 Opposite-Spin Energy      =      -1.1490998070398875 [Eh]
	 Correlation Energy        =      -1.5022515770053548 [Eh]
	 Total Energy              =    -326.7425839734899000 [Eh]

	 ================> DF-SCS-MP2 Energies <==================
	-----------------------------------------------------------
	 SCS Same-Spin Scale       =       0.3333333333333333 [-]
	 SCS Opposite-Spin Scale   =       1.2000000000000000 [-]
	 SCS Same-Spin Energy      =      -0.1177172566551558 [Eh]
	 SCS Opposite-Spin Energy  =      -1.3789197684478649 [Eh]
	 SCS Correlation Energy    =      -1.4966370251030208 [Eh]
	 SCS Total Energy          =    -326.7369694215875597 [Eh]
	-----------------------------------------------------------

  Dipole Moment: [D]
     X:     7.2847      Y:    -3.1878      Z:     0.1336     Total:     7.9528

*** Psi4 exiting successfully. Buy a developer a beer!
