                               Psi4 1.3.2 release

  ==> Input File <==

--------------------------------------------------------------------------
#psi4
#
memory 32 gb

molecule  {
1 1
  N        2.4325060    -0.9845600     0.0091070
  C        1.1463630    -0.2321410    -0.0173850
  C       -1.2536230    -0.2748500     0.0109180
  C       -0.0352110    -0.9646830     0.0005950
  C        1.1983270     1.1549650    -0.0097610
  C       -1.2241940     1.1288950     0.0124220
  C       -0.0217590     1.8354230    -0.0002870
  C       -2.5623340    -1.0168010    -0.0065280
  H       -0.0249471    -2.0540671     0.1007558
  H        2.1405510     1.6994190    -0.0171620
  H       -2.1632860     1.6774730     0.0209780
  H       -0.0275340     2.9214870    -0.0002680
  H        3.1916030    -0.4398890    -0.4234570
  H        2.7260810    -1.2141090     0.9696670
  H        2.3592330    -1.8699500    -0.5112020
  H       -2.4267910    -2.0731080     0.2370320
  H       -3.2605850    -0.5864750     0.7158300
  H       -3.0261010    -0.9534780    -0.9957790
units angstrom
no_reorient  #important for SAPT in psi4, default
symmetry c1  #important for SAPT in psi4, default
}

set PROPERTIES_ORIGIN ["COM"]
properties('MP2/aug-cc-pvtz', properties = ['dipole'])
--------------------------------------------------------------------------

    Molecular point group: c1
  Charge       = 1
  Multiplicity = 1
  Basis Set: AUG-CC-PVTZ
    Blend: AUG-CC-PVTZ
  Basis Set: (AUG-CC-PVTZ AUX)
    Blend: AUG-CC-PVTZ-JKFIT

    Orbital Energies [Eh]
    ---------------------

    Doubly Occupied:

       1A    -15.892693     2A    -11.463732     3A    -11.404361
       4A    -11.402728     5A    -11.399698     6A    -11.391714
       7A    -11.382053     8A    -11.348679     9A     -1.506673
      10A     -1.312504    11A     -1.201246    12A     -1.174395
      13A     -1.082868    14A     -1.001569    15A     -0.984173
      16A     -0.953564    17A     -0.925704    18A     -0.870370
      19A     -0.826874    20A     -0.791921    21A     -0.753057
      22A     -0.729068    23A     -0.706848    24A     -0.677972
      25A     -0.651426    26A     -0.651308    27A     -0.643402
      28A     -0.500736    29A     -0.484116

  @DF-RHF Final Energy:  -325.24108916320063

   => Energetics <=

    Nuclear Repulsion Energy =            353.2632226600630361
    One-Electron Energy =               -1128.7777241995904660
    Two-Electron Energy =                 450.2734123763267462
    Total Energy =                       -325.2410891632006269
  Basis Set: (AUG-CC-PVTZ AUX)
    Blend: AUG-CC-PVTZ-RI
    Molecular point group: c1

    Geometry (in Angstrom), charge = 1, multiplicity = 1:

       Center              X                  Y                   Z               Mass
    ------------   -----------------  -----------------  -----------------  -----------------
         N            2.427716932388    -1.011090919454     0.008141402215    14.003074004430
         C            1.141573932388    -0.258671919454    -0.018350597785    12.000000000000
         C           -1.258412067612    -0.301380919454     0.009952402215    12.000000000000
         C           -0.040000067612    -0.991213919454    -0.000370597785    12.000000000000
         C            1.193537932388     1.128434080546    -0.010726597785    12.000000000000
         C           -1.228983067612     1.102364080546     0.011456402215    12.000000000000
         C           -0.026548067612     1.808892080546    -0.001252597785    12.000000000000
         C           -2.567123067612    -1.043331919454    -0.007493597785    12.000000000000
         H           -0.029736167612    -2.080598019454     0.099790202215     1.007825032230
         H            2.135761932388     1.672888080546    -0.018127597785     1.007825032230
         H           -2.168075067612     1.650942080546     0.020012402215     1.007825032230
         H           -0.032323067612     2.894956080546    -0.001233597785     1.007825032230
         H            3.186813932388    -0.466419919454    -0.424422597785     1.007825032230
         H            2.721291932388    -1.240639919454     0.968701402215     1.007825032230
         H            2.354443932388    -1.896480919454    -0.512167597785     1.007825032230
         H           -2.431580067612    -2.099638919454     0.236066402215     1.007825032230
         H           -3.265374067612    -0.613005919454     0.714864402215     1.007825032230
         H           -3.030890067612    -0.980008919454    -0.996744597785     1.007825032230

  Basis Set: AUG-CC-PVTZ
    Blend: AUG-CC-PVTZ
  Basis Set: (AUG-CC-PVTZ AUX)
    Blend: AUG-CC-PVTZ-JKFIT
	 Reference Energy          =    -325.2410891632006269 [Eh]
	 Singles Energy            =      -0.0000000000000000 [Eh]
	 Same-Spin Energy          =      -0.3531054231089645 [Eh]
	 Opposite-Spin Energy      =      -1.1490072108996798 [Eh]
	 Correlation Energy        =      -1.5021126340086444 [Eh]
	 Total Energy              =    -326.7432017972092808 [Eh]

	 ================> DF-SCS-MP2 Energies <==================
	-----------------------------------------------------------
	 SCS Same-Spin Scale       =       0.3333333333333333 [-]
	 SCS Opposite-Spin Scale   =       1.2000000000000000 [-]
	 SCS Same-Spin Energy      =      -0.1177018077029882 [Eh]
	 SCS Opposite-Spin Energy  =      -1.3788086530796158 [Eh]
	 SCS Correlation Energy    =      -1.4965104607826039 [Eh]
	 SCS Total Energy          =    -326.7375996239832148 [Eh]
	-----------------------------------------------------------

  Dipole Moment: [D]
     X:     7.2855      Y:    -3.1966      Z:     0.1028     Total:     7.9566

*** Psi4 exiting successfully. Buy a developer a beer!
