                               Psi4 1.3.2 release

  ==> Input File <==

--------------------------------------------------------------------------
#psi4
#
memory 32 gb

molecule  {
1 1
  N        2.4325060    -0.9845600     0.0091070
  C        1.1463630    -0.2321410    -0.0173850
  C       -1.2536230    -0.2748500     0.0109180
  C       -0.0352110    -0.9646830     0.0005950
  C        1.1983270     1.1549650    -0.0097610
  C       -1.2241940     1.1288950     0.0124220
  C       -0.0217590     1.8354230    -0.0002870
  C       -2.5623340    -1.0168010    -0.0065280
  H       -0.0261220    -2.0543070     0.0007630
  H        2.1382854     1.7006198    -0.3171510
  H       -2.1632860     1.6774730     0.0209780
  H       -0.0275340     2.9214870    -0.0002680
  H        3.1916030    -0.4398890    -0.4234570
  H        2.7260810    -1.2141090     0.9696670
  H        2.3592330    -1.8699500    -0.5112020
  H       -2.4267910    -2.0731080     0.2370320
  H       -3.2605850    -0.5864750     0.7158300
  H       -3.0261010    -0.9534780    -0.9957790
units angstrom
no_reorient  #important for SAPT in psi4, default
symmetry c1  #important for SAPT in psi4, default
}

set PROPERTIES_ORIGIN ["COM"]
properties('MP2/aug-cc-pvtz', properties = ['dipole'])
--------------------------------------------------------------------------

    Molecular point group: c1
  Charge       = 1
  Multiplicity = 1
  Basis Set: AUG-CC-PVTZ
    Blend: AUG-CC-PVTZ
  Basis Set: (AUG-CC-PVTZ AUX)
    Blend: AUG-CC-PVTZ-JKFIT

    Orbital Energies [Eh]
    ---------------------

    Doubly Occupied:

       1A    -15.892616     2A    -11.464331     3A    -11.407460
       4A    -11.402853     5A    -11.400602     6A    -11.392533
       7A    -11.382312     8A    -11.349202     9A     -1.506508
      10A     -1.312789    11A     -1.200765    12A     -1.174881
      13A     -1.082180    14A     -1.001898    15A     -0.983819
      16A     -0.953442    17A     -0.925315    18A     -0.866914
      19A     -0.824361    20A     -0.792142    21A     -0.753723
      22A     -0.725111    23A     -0.706854    24A     -0.678396
      25A     -0.655578    26A     -0.648493    27A     -0.640811
      28A     -0.501147    29A     -0.484126

  @DF-RHF Final Energy:  -325.23565188998833

   => Energetics <=

    Nuclear Repulsion Energy =            353.1214834979197121
    One-Electron Energy =               -1128.4919454596763444
    Two-Electron Energy =                 450.1348100717682996
    Total Energy =                       -325.2356518899883326
  Basis Set: (AUG-CC-PVTZ AUX)
    Blend: AUG-CC-PVTZ-RI
    Molecular point group: c1

    Geometry (in Angstrom), charge = 1, multiplicity = 1:

       Center              X                  Y                   Z               Mass
    ------------   -----------------  -----------------  -----------------  -----------------
         N            2.427749013990    -1.011099879550     0.011871109202    14.003074004430
         C            1.141606013990    -0.258680879550    -0.014620890798    12.000000000000
         C           -1.258379986010    -0.301389879550     0.013682109202    12.000000000000
         C           -0.039967986010    -0.991222879550     0.003359109202    12.000000000000
         C            1.193570013990     1.128425120450    -0.006996890798    12.000000000000
         C           -1.228950986010     1.102355120450     0.015186109202    12.000000000000
         C           -0.026515986010     1.808883120450     0.002477109202    12.000000000000
         C           -2.567090986010    -1.043340879550    -0.003763890798    12.000000000000
         H           -0.030878986010    -2.080846879550     0.003527109202     1.007825032230
         H            2.133528413990     1.674079920450    -0.314386890798     1.007825032230
         H           -2.168042986010     1.650933120450     0.023742109202     1.007825032230
         H           -0.032290986010     2.894947120450     0.002496109202     1.007825032230
         H            3.186846013990    -0.466428879550    -0.420692890798     1.007825032230
         H            2.721324013990    -1.240648879550     0.972431109202     1.007825032230
         H            2.354476013990    -1.896489879550    -0.508437890798     1.007825032230
         H           -2.431547986010    -2.099647879550     0.239796109202     1.007825032230
         H           -3.265341986010    -0.613014879550     0.718594109202     1.007825032230
         H           -3.030857986010    -0.980017879550    -0.993014890798     1.007825032230

  Basis Set: AUG-CC-PVTZ
    Blend: AUG-CC-PVTZ
  Basis Set: (AUG-CC-PVTZ AUX)
    Blend: AUG-CC-PVTZ-JKFIT
	 Reference Energy          =    -325.2356518899883326 [Eh]
	 Singles Energy            =      -0.0000000000000000 [Eh]
	 Same-Spin Energy          =      -0.3534075538732260 [Eh]
	 Opposite-Spin Energy      =      -1.1497169458891900 [Eh]
	 Correlation Energy        =      -1.5031244997624160 [Eh]
	 Total Energy              =    -326.7387763897507398 [Eh]

	 ================> DF-SCS-MP2 Energies <==================
	-----------------------------------------------------------
	 SCS Same-Spin Scale       =       0.3333333333333333 [-]
	 SCS Opposite-Spin Scale   =       1.2000000000000000 [-]
	 SCS Same-Spin Energy      =      -0.1178025179577420 [Eh]
	 SCS Opposite-Spin Energy  =      -1.3796603350670280 [Eh]
	 SCS Correlation Energy    =      -1.4974628530247700 [Eh]
	 SCS Total Energy          =    -326.7331147430131182 [Eh]
	-----------------------------------------------------------

  Dipole Moment: [D]
     X:     7.2017      Y:    -3.2288      Z:    -0.1574     Total:     7.8940

*** Psi4 exiting successfully. Buy a developer a beer!
