                               Psi4 1.3.2 release

  ==> Input File <==

--------------------------------------------------------------------------
#psi4
#
memory 32 gb

molecule  {
1 1
  N        2.4325060    -0.9845600     0.0091070
  C        1.1463630    -0.2321410    -0.0173850
  C       -1.2536230    -0.2748500     0.0109180
  C       -0.0352110    -0.9646830     0.0005950
  C        1.1983270     1.1549650    -0.0097610
  C       -1.2241940     1.1288950     0.0124220
  C       -0.0217590     1.8354230    -0.0002870
  C       -2.5623340    -1.0168010    -0.0065280
  H       -0.0261220    -2.0543070     0.0007630
  H        2.1405510     1.6994190    -0.0171620
  H       -2.1632860     1.6774730     0.0209780
  H       -0.0302778     2.9211950    -0.3002553
  H        3.1916030    -0.4398890    -0.4234570
  H        2.7260810    -1.2141090     0.9696670
  H        2.3592330    -1.8699500    -0.5112020
  H       -2.4267910    -2.0731080     0.2370320
  H       -3.2605850    -0.5864750     0.7158300
  H       -3.0261010    -0.9534780    -0.9957790
units angstrom
no_reorient  #important for SAPT in psi4, default
symmetry c1  #important for SAPT in psi4, default
}

set PROPERTIES_ORIGIN ["COM"]
properties('MP2/aug-cc-pvtz', properties = ['dipole'])
--------------------------------------------------------------------------

    Molecular point group: c1
  Charge       = 1
  Multiplicity = 1
  Basis Set: AUG-CC-PVTZ
    Blend: AUG-CC-PVTZ
  Basis Set: (AUG-CC-PVTZ AUX)
    Blend: AUG-CC-PVTZ-JKFIT

    Orbital Energies [Eh]
    ---------------------

    Doubly Occupied:

       1A    -15.892828     2A    -11.463865     3A    -11.404747
       4A    -11.403033     5A    -11.399836     6A    -11.394931
       7A    -11.382755     8A    -11.348851     9A     -1.506783
      10A     -1.312681    11A     -1.201278    12A     -1.173905
      13A     -1.083101    14A     -1.000801    15A     -0.983642
      16A     -0.953670    17A     -0.924359    18A     -0.869511
      19A     -0.827368    20A     -0.791878    21A     -0.747298
      22A     -0.729201    23A     -0.707092    24A     -0.677527
      25A     -0.654225    26A     -0.651482    27A     -0.637714
      28A     -0.499990    29A     -0.484106

  @DF-RHF Final Energy:  -325.23519245887655

   => Energetics <=

    Nuclear Repulsion Energy =            353.1313916433728082
    One-Electron Energy =               -1128.5162538202553151
    Two-Electron Energy =                 450.1496697180059527
    Total Energy =                       -325.2351924588765542
  Basis Set: (AUG-CC-PVTZ AUX)
    Blend: AUG-CC-PVTZ-RI
    Molecular point group: c1

    Geometry (in Angstrom), charge = 1, multiplicity = 1:

       Center              X                  Y                   Z               Mass
    ------------   -----------------  -----------------  -----------------  -----------------
         N            2.427753473058    -1.011085959650     0.011871093350    14.003074004430
         C            1.141610473058    -0.258666959650    -0.014620906650    12.000000000000
         C           -1.258375526942    -0.301375959650     0.013682093350    12.000000000000
         C           -0.039963526942    -0.991208959650     0.003359093350    12.000000000000
         C            1.193574473058     1.128439040350    -0.006996906650    12.000000000000
         C           -1.228946526942     1.102369040350     0.015186093350    12.000000000000
         C           -0.026511526942     1.808897040350     0.002477093350    12.000000000000
         C           -2.567086526942    -1.043326959650    -0.003763906650    12.000000000000
         H           -0.030874526942    -2.080832959650     0.003527093350     1.007825032230
         H            2.135798473058     1.672893040350    -0.014397906650     1.007825032230
         H           -2.168038526942     1.650947040350     0.023742093350     1.007825032230
         H           -0.035030326942     2.894669040350    -0.297491206650     1.007825032230
         H            3.186850473058    -0.466414959650    -0.420692906650     1.007825032230
         H            2.721328473058    -1.240634959650     0.972431093350     1.007825032230
         H            2.354480473058    -1.896475959650    -0.508437906650     1.007825032230
         H           -2.431543526942    -2.099633959650     0.239796093350     1.007825032230
         H           -3.265337526942    -0.613000959650     0.718594093350     1.007825032230
         H           -3.030853526942    -0.980003959650    -0.993014906650     1.007825032230

  Basis Set: AUG-CC-PVTZ
    Blend: AUG-CC-PVTZ
  Basis Set: (AUG-CC-PVTZ AUX)
    Blend: AUG-CC-PVTZ-JKFIT
	 Reference Energy          =    -325.2351924588765542 [Eh]
	 Singles Energy            =      -0.0000000000000000 [Eh]
	 Same-Spin Energy          =      -0.3534062681019369 [Eh]
	 Opposite-Spin Energy      =      -1.1498014415559061 [Eh]
	 Correlation Energy        =      -1.5032077096578431 [Eh]
	 Total Energy              =    -326.7384001685343833 [Eh]

	 ================> DF-SCS-MP2 Energies <==================
	-----------------------------------------------------------
	 SCS Same-Spin Scale       =       0.3333333333333333 [-]
	 SCS Opposite-Spin Scale   =       1.2000000000000000 [-]
	 SCS Same-Spin Energy      =      -0.1178020893673123 [Eh]
	 SCS Opposite-Spin Energy  =      -1.3797617298670872 [Eh]
	 SCS Correlation Energy    =      -1.4975638192343996 [Eh]
	 SCS Total Energy          =    -326.7327562781109691 [Eh]
	-----------------------------------------------------------

  Dipole Moment: [D]
     X:     7.2718      Y:    -3.2516      Z:    -0.1340     Total:     7.9668

*** Psi4 exiting successfully. Buy a developer a beer!
