                               Psi4 1.3.2 release

  ==> Input File <==

--------------------------------------------------------------------------
#psi4
#
memory 32 gb

molecule  {
1 1
  N        2.4325060    -0.9845600     0.0091070
  C        1.1463630    -0.2321410    -0.0173850
  C       -1.2536230    -0.2748500     0.0109180
  C       -0.0352110    -0.9646830     0.0005950
  C        1.1983270     1.1549650    -0.0097610
  C       -1.2241940     1.1288950     0.0124220
  C       -0.0217590     1.8354230    -0.0002870
  C       -2.5623340    -1.0168010    -0.0065280
  H       -0.0261220    -2.0543070     0.0007630
  H        2.1405510     1.6994190    -0.0171620
  H       -2.1632860     1.6774730     0.0209780
  H       -0.0298205     2.9212437    -0.2502574
  H        3.1916030    -0.4398890    -0.4234570
  H        2.7260810    -1.2141090     0.9696670
  H        2.3592330    -1.8699500    -0.5112020
  H       -2.4267910    -2.0731080     0.2370320
  H       -3.2605850    -0.5864750     0.7158300
  H       -3.0261010    -0.9534780    -0.9957790
units angstrom
no_reorient  #important for SAPT in psi4, default
symmetry c1  #important for SAPT in psi4, default
}

set PROPERTIES_ORIGIN ["COM"]
properties('MP2/aug-cc-pvtz', properties = ['dipole'])
--------------------------------------------------------------------------

    Molecular point group: c1
  Charge       = 1
  Multiplicity = 1
  Basis Set: AUG-CC-PVTZ
    Blend: AUG-CC-PVTZ
  Basis Set: (AUG-CC-PVTZ AUX)
    Blend: AUG-CC-PVTZ-JKFIT

    Orbital Energies [Eh]
    ---------------------

    Doubly Occupied:

       1A    -15.892794     2A    -11.463809     3A    -11.404599
       4A    -11.402857     5A    -11.399770     6A    -11.393945
       7A    -11.382549     8A    -11.348796     9A     -1.506742
      10A     -1.312623    11A     -1.201266    12A     -1.174067
      13A     -1.083039    14A     -1.001053    15A     -0.983797
      16A     -0.953633    17A     -0.924763    18A     -0.869779
      19A     -0.827329    20A     -0.791887    21A     -0.749078
      22A     -0.729200    23A     -0.707083    24A     -0.677679
      25A     -0.653657    26A     -0.651387    27A     -0.639294
      28A     -0.500222    29A     -0.484100

  @DF-RHF Final Energy:  -325.23730302566133

   => Energetics <=

    Nuclear Repulsion Energy =            353.1759993454640494
    One-Electron Energy =               -1128.6050092315297206
    Two-Electron Energy =                 450.1917068604042811
    Total Energy =                       -325.2373030256613333
  Basis Set: (AUG-CC-PVTZ AUX)
    Blend: AUG-CC-PVTZ-RI
    Molecular point group: c1

    Geometry (in Angstrom), charge = 1, multiplicity = 1:

       Center              X                  Y                   Z               Mass
    ------------   -----------------  -----------------  -----------------  -----------------
         N            2.427749208876    -1.011086413763     0.011404878345    14.003074004430
         C            1.141606208876    -0.258667413763    -0.015087121655    12.000000000000
         C           -1.258379791124    -0.301376413763     0.013215878345    12.000000000000
         C           -0.039967791124    -0.991209413763     0.002892878345    12.000000000000
         C            1.193570208876     1.128438586237    -0.007463121655    12.000000000000
         C           -1.228950791124     1.102368586237     0.014719878345    12.000000000000
         C           -0.026515791124     1.808896586237     0.002010878345    12.000000000000
         C           -2.567090791124    -1.043327413763    -0.004230121655    12.000000000000
         H           -0.030878791124    -2.080833413763     0.003060878345     1.007825032230
         H            2.135794208876     1.672892586237    -0.014864121655     1.007825032230
         H           -2.168042791124     1.650946586237     0.023275878345     1.007825032230
         H           -0.034577291124     2.894717286237    -0.247959521655     1.007825032230
         H            3.186846208876    -0.466415413763    -0.421159121655     1.007825032230
         H            2.721324208876    -1.240635413763     0.971964878345     1.007825032230
         H            2.354476208876    -1.896476413763    -0.508904121655     1.007825032230
         H           -2.431547791124    -2.099634413763     0.239329878345     1.007825032230
         H           -3.265341791124    -0.613001413763     0.718127878345     1.007825032230
         H           -3.030857791124    -0.980004413763    -0.993481121655     1.007825032230

  Basis Set: AUG-CC-PVTZ
    Blend: AUG-CC-PVTZ
  Basis Set: (AUG-CC-PVTZ AUX)
    Blend: AUG-CC-PVTZ-JKFIT
	 Reference Energy          =    -325.2373030256613333 [Eh]
	 Singles Energy            =      -0.0000000000000000 [Eh]
	 Same-Spin Energy          =      -0.3533060990660828 [Eh]
	 Opposite-Spin Energy      =      -1.1495342947883891 [Eh]
	 Correlation Energy        =      -1.5028403938544719 [Eh]
	 Total Energy              =    -326.7401434195157890 [Eh]

	 ================> DF-SCS-MP2 Energies <==================
	-----------------------------------------------------------
	 SCS Same-Spin Scale       =       0.3333333333333333 [-]
	 SCS Opposite-Spin Scale   =       1.2000000000000000 [-]
	 SCS Same-Spin Energy      =      -0.1177686996886943 [Eh]
	 SCS Opposite-Spin Energy  =      -1.3794411537460669 [Eh]
	 SCS Correlation Energy    =      -1.4972098534347611 [Eh]
	 SCS Total Energy          =    -326.7345128790960871 [Eh]
	-----------------------------------------------------------

  Dipole Moment: [D]
     X:     7.2743      Y:    -3.2367      Z:    -0.1051     Total:     7.9626

*** Psi4 exiting successfully. Buy a developer a beer!
