                               Psi4 1.3.2 release

  ==> Input File <==

--------------------------------------------------------------------------
#psi4
#
memory 32 gb

molecule  {
1 1
  N        2.4325060    -0.9845600     0.0091070
  C        1.1463630    -0.2321410    -0.0173850
  C       -1.2536230    -0.2748500     0.0109180
  C       -0.0352110    -0.9646830     0.0005950
  C        1.1991755     1.1532498    -0.2597537
  C       -1.2241940     1.1288950     0.0124220
  C       -0.0217590     1.8354230    -0.0002870
  C       -2.5623340    -1.0168010    -0.0065280
  H       -0.0261220    -2.0543070     0.0007630
  H        2.1405510     1.6994190    -0.0171620
  H       -2.1632860     1.6774730     0.0209780
  H       -0.0275340     2.9214870    -0.0002680
  H        3.1916030    -0.4398890    -0.4234570
  H        2.7260810    -1.2141090     0.9696670
  H        2.3592330    -1.8699500    -0.5112020
  H       -2.4267910    -2.0731080     0.2370320
  H       -3.2605850    -0.5864750     0.7158300
  H       -3.0261010    -0.9534780    -0.9957790
units angstrom
no_reorient  #important for SAPT in psi4, default
symmetry c1  #important for SAPT in psi4, default
}

set PROPERTIES_ORIGIN ["COM"]
properties('MP2/aug-cc-pvtz', properties = ['dipole'])
--------------------------------------------------------------------------

    Molecular point group: c1
  Charge       = 1
  Multiplicity = 1
  Basis Set: AUG-CC-PVTZ
    Blend: AUG-CC-PVTZ
  Basis Set: (AUG-CC-PVTZ AUX)
    Blend: AUG-CC-PVTZ-JKFIT

    Orbital Energies [Eh]
    ---------------------

    Doubly Occupied:

       1A    -15.892415     2A    -11.468084     3A    -11.409062
       4A    -11.403603     5A    -11.401805     6A    -11.397527
       7A    -11.381572     8A    -11.350295     9A     -1.506512
      10A     -1.310737    11A     -1.198861    12A     -1.174151
      13A     -1.082776    14A     -0.998709    15A     -0.984605
      16A     -0.953416    17A     -0.925605    18A     -0.866223
      19A     -0.824406    20A     -0.788287    21A     -0.751913
      22A     -0.724042    23A     -0.707024    24A     -0.676979
      25A     -0.653472    26A     -0.647821    27A     -0.641851
      28A     -0.498800    29A     -0.485137

  @DF-RHF Final Energy:  -325.22350761795406

   => Energetics <=

    Nuclear Repulsion Energy =            352.5773368087449171
    One-Electron Energy =               -1127.3903100256513881
    Two-Electron Energy =                 449.5894655989524153
    Total Energy =                       -325.2235076179540556
  Basis Set: (AUG-CC-PVTZ AUX)
    Blend: AUG-CC-PVTZ-RI
    Molecular point group: c1

    Geometry (in Angstrom), charge = 1, multiplicity = 1:

       Center              X                  Y                   Z               Mass
    ------------   -----------------  -----------------  -----------------  -----------------
         N            2.427633681129    -1.010898248080     0.036829870516    14.003074004430
         C            1.141490681129    -0.258479248080     0.010337870516    12.000000000000
         C           -1.258495318871    -0.301188248080     0.038640870516    12.000000000000
         C           -0.040083318871    -0.991021248080     0.028317870516    12.000000000000
         C            1.194303181129     1.126911551920    -0.232030829484    12.000000000000
         C           -1.229066318871     1.102556751920     0.040144870516    12.000000000000
         C           -0.026631318871     1.809084751920     0.027435870516    12.000000000000
         C           -2.567206318871    -1.043139248080     0.021194870516    12.000000000000
         H           -0.030994318871    -2.080645248080     0.028485870516     1.007825032230
         H            2.135678681129     1.673080751920     0.010560870516     1.007825032230
         H           -2.168158318871     1.651134751920     0.048700870516     1.007825032230
         H           -0.032406318871     2.895148751920     0.027454870516     1.007825032230
         H            3.186730681129    -0.466227248080    -0.395734129484     1.007825032230
         H            2.721208681129    -1.240447248080     0.997389870516     1.007825032230
         H            2.354360681129    -1.896288248080    -0.483479129484     1.007825032230
         H           -2.431663318871    -2.099446248080     0.264754870516     1.007825032230
         H           -3.265457318871    -0.612813248080     0.743552870516     1.007825032230
         H           -3.030973318871    -0.979816248080    -0.968056129484     1.007825032230

  Basis Set: AUG-CC-PVTZ
    Blend: AUG-CC-PVTZ
  Basis Set: (AUG-CC-PVTZ AUX)
    Blend: AUG-CC-PVTZ-JKFIT
	 Reference Energy          =    -325.2235076179540556 [Eh]
	 Singles Energy            =      -0.0000000000000000 [Eh]
	 Same-Spin Energy          =      -0.3539654565722103 [Eh]
	 Opposite-Spin Energy      =      -1.1517554193857003 [Eh]
	 Correlation Energy        =      -1.5057208759579106 [Eh]
	 Total Energy              =    -326.7292284939119895 [Eh]

	 ================> DF-SCS-MP2 Energies <==================
	-----------------------------------------------------------
	 SCS Same-Spin Scale       =       0.3333333333333333 [-]
	 SCS Opposite-Spin Scale   =       1.2000000000000000 [-]
	 SCS Same-Spin Energy      =      -0.1179884855240701 [Eh]
	 SCS Opposite-Spin Energy  =      -1.3821065032628403 [Eh]
	 SCS Correlation Energy    =      -1.5000949887869104 [Eh]
	 SCS Total Energy          =    -326.7236026067409398 [Eh]
	-----------------------------------------------------------

  Dipole Moment: [D]
     X:     7.1320      Y:    -3.2549      Z:     0.2902     Total:     7.8450

*** Psi4 exiting successfully. Buy a developer a beer!
