                               Psi4 1.3.2 release

  ==> Input File <==

--------------------------------------------------------------------------
#psi4
#
memory 32 gb

molecule  {
1 1
  N        2.4325060    -0.9845600     0.0091070
  C        1.1463630    -0.2321410    -0.0173850
  C       -1.2536230    -0.2748500     0.0109180
  C       -0.0352110    -0.9646830     0.0005950
  C        1.1983270     1.1549650    -0.0097610
  C       -1.2241940     1.1288950     0.0124220
  C       -0.0217590     1.8354230    -0.0002870
  C       -2.5623340    -1.0168010    -0.0065280
  H       -0.0237721    -2.0538273     0.2007486
  H        2.1405510     1.6994190    -0.0171620
  H       -2.1632860     1.6774730     0.0209780
  H       -0.0275340     2.9214870    -0.0002680
  H        3.1916030    -0.4398890    -0.4234570
  H        2.7260810    -1.2141090     0.9696670
  H        2.3592330    -1.8699500    -0.5112020
  H       -2.4267910    -2.0731080     0.2370320
  H       -3.2605850    -0.5864750     0.7158300
  H       -3.0261010    -0.9534780    -0.9957790
units angstrom
no_reorient  #important for SAPT in psi4, default
symmetry c1  #important for SAPT in psi4, default
}

set PROPERTIES_ORIGIN ["COM"]
properties('MP2/aug-cc-pvtz', properties = ['dipole'])
--------------------------------------------------------------------------

    Molecular point group: c1
  Charge       = 1
  Multiplicity = 1
  Basis Set: AUG-CC-PVTZ
    Blend: AUG-CC-PVTZ
  Basis Set: (AUG-CC-PVTZ AUX)
    Blend: AUG-CC-PVTZ-JKFIT

    Orbital Energies [Eh]
    ---------------------

    Doubly Occupied:

       1A    -15.892587     2A    -11.463880     3A    -11.404484
       4A    -11.403686     5A    -11.400021     6A    -11.392013
       7A    -11.382143     8A    -11.348715     9A     -1.506620
      10A     -1.312553    11A     -1.201246    12A     -1.174179
      13A     -1.082822    14A     -1.001106    15A     -0.984181
      16A     -0.953509    17A     -0.925341    18A     -0.870009
      19A     -0.825789    20A     -0.791873    21A     -0.752143
      22A     -0.728851    23A     -0.706487    24A     -0.677723
      25A     -0.651670    26A     -0.651436    27A     -0.642590
      28A     -0.500692    29A     -0.484153

  @DF-RHF Final Energy:  -325.23922520008449

   => Energetics <=

    Nuclear Repulsion Energy =            353.2086964766325536
    One-Electron Energy =               -1128.6708404126361529
    Two-Electron Energy =                 450.2229187359191087
    Total Energy =                       -325.2392252000844906
  Basis Set: (AUG-CC-PVTZ AUX)
    Blend: AUG-CC-PVTZ-RI
    Molecular point group: c1

    Geometry (in Angstrom), charge = 1, multiplicity = 1:

       Center              X                  Y                   Z               Mass
    ------------   -----------------  -----------------  -----------------  -----------------
         N            2.427705975876    -1.011093155515     0.007209000179    14.003074004430
         C            1.141562975876    -0.258674155515    -0.019282999821    12.000000000000
         C           -1.258423024124    -0.301383155515     0.009020000179    12.000000000000
         C           -0.040011024124    -0.991216155515    -0.001302999821    12.000000000000
         C            1.193526975876     1.128431844485    -0.011658999821    12.000000000000
         C           -1.228994024124     1.102361844485     0.010524000179    12.000000000000
         C           -0.026559024124     1.808889844485    -0.002184999821    12.000000000000
         C           -2.567134024124    -1.043334155515    -0.008425999821    12.000000000000
         H           -0.028572124124    -2.080360455515     0.198850600179     1.007825032230
         H            2.135750975876     1.672885844485    -0.019059999821     1.007825032230
         H           -2.168086024124     1.650939844485     0.019080000179     1.007825032230
         H           -0.032334024124     2.894953844485    -0.002165999821     1.007825032230
         H            3.186802975876    -0.466422155515    -0.425354999821     1.007825032230
         H            2.721280975876    -1.240642155515     0.967769000179     1.007825032230
         H            2.354432975876    -1.896483155515    -0.513099999821     1.007825032230
         H           -2.431591024124    -2.099641155515     0.235134000179     1.007825032230
         H           -3.265385024124    -0.613008155515     0.713932000179     1.007825032230
         H           -3.030901024124    -0.980011155515    -0.997676999821     1.007825032230

  Basis Set: AUG-CC-PVTZ
    Blend: AUG-CC-PVTZ
  Basis Set: (AUG-CC-PVTZ AUX)
    Blend: AUG-CC-PVTZ-JKFIT
	 Reference Energy          =    -325.2392252000844906 [Eh]
	 Singles Energy            =      -0.0000000000000000 [Eh]
	 Same-Spin Energy          =      -0.3532166604138518 [Eh]
	 Opposite-Spin Energy      =      -1.1492346566010307 [Eh]
	 Correlation Energy        =      -1.5024513170148825 [Eh]
	 Total Energy              =    -326.7416765170993926 [Eh]

	 ================> DF-SCS-MP2 Energies <==================
	-----------------------------------------------------------
	 SCS Same-Spin Scale       =       0.3333333333333333 [-]
	 SCS Opposite-Spin Scale   =       1.2000000000000000 [-]
	 SCS Same-Spin Energy      =      -0.1177388868046173 [Eh]
	 SCS Opposite-Spin Energy  =      -1.3790815879212368 [Eh]
	 SCS Correlation Energy    =      -1.4968204747258540 [Eh]
	 SCS Total Energy          =    -326.7360456748103275 [Eh]
	-----------------------------------------------------------

  Dipole Moment: [D]
     X:     7.2830      Y:    -3.1754      Z:     0.1642     Total:     7.9468

*** Psi4 exiting successfully. Buy a developer a beer!
