                               Psi4 1.3.2 release

  ==> Input File <==

--------------------------------------------------------------------------
#psi4
#
memory 32 gb

molecule  {
1 1
  N        2.4325060    -0.9845600     0.0091070
  C        1.1463630    -0.2321410    -0.0173850
  C       -1.2536230    -0.2748500     0.0109180
  C       -0.0352110    -0.9646830     0.0005950
  C        1.1983270     1.1549650    -0.0097610
  C       -1.2241940     1.1288950     0.0124220
  C       -0.0217590     1.8354230    -0.0002870
  C       -2.5628682    -1.0182342     0.1934662
  H       -0.0261220    -2.0543070     0.0007630
  H        2.1405510     1.6994190    -0.0171620
  H       -2.1632860     1.6774730     0.0209780
  H       -0.0275340     2.9214870    -0.0002680
  H        3.1916030    -0.4398890    -0.4234570
  H        2.7260810    -1.2141090     0.9696670
  H        2.3592330    -1.8699500    -0.5112020
  H       -2.4267910    -2.0731080     0.2370320
  H       -3.2605850    -0.5864750     0.7158300
  H       -3.0261010    -0.9534780    -0.9957790
units angstrom
no_reorient  #important for SAPT in psi4, default
symmetry c1  #important for SAPT in psi4, default
}

set PROPERTIES_ORIGIN ["COM"]
properties('MP2/aug-cc-pvtz', properties = ['dipole'])
--------------------------------------------------------------------------

    Molecular point group: c1
  Charge       = 1
  Multiplicity = 1
  Basis Set: AUG-CC-PVTZ
    Blend: AUG-CC-PVTZ
  Basis Set: (AUG-CC-PVTZ AUX)
    Blend: AUG-CC-PVTZ-JKFIT

    Orbital Energies [Eh]
    ---------------------

    Doubly Occupied:

       1A    -15.892827     2A    -11.464162     3A    -11.404062
       4A    -11.403194     5A    -11.402059     6A    -11.391785
       7A    -11.381665     8A    -11.355852     9A     -1.506748
      10A     -1.312553    11A     -1.201247    12A     -1.174516
      13A     -1.085723    14A     -1.002002    15A     -0.986377
      16A     -0.953641    17A     -0.926102    18A     -0.872699
      19A     -0.827928    20A     -0.796485    21A     -0.753765
      22A     -0.733556    23A     -0.720960    24A     -0.679460
      25A     -0.663263    26A     -0.647200    27A     -0.614537
      28A     -0.500870    29A     -0.476377

  @DF-RHF Final Energy:  -325.20619060945495

   => Energetics <=

    Nuclear Repulsion Energy =            353.1172884733034607
    One-Electron Energy =               -1128.3837293962187687
    Two-Electron Energy =                 450.0602503134603580
    Total Energy =                       -325.2061906094549499
  Basis Set: (AUG-CC-PVTZ AUX)
    Blend: AUG-CC-PVTZ-RI
    Molecular point group: c1

    Geometry (in Angstrom), charge = 1, multiplicity = 1:

       Center              X                  Y                   Z               Mass
    ------------   -----------------  -----------------  -----------------  -----------------
         N            2.427787198863    -1.010929557837    -0.013131053202    14.003074004430
         C            1.141644198863    -0.258510557837    -0.039623053202    12.000000000000
         C           -1.258341801137    -0.301219557837    -0.011320053202    12.000000000000
         C           -0.039929801137    -0.991052557837    -0.021643053202    12.000000000000
         C            1.193608198863     1.128595442163    -0.031999053202    12.000000000000
         C           -1.228912801137     1.102525442163    -0.009816053202    12.000000000000
         C           -0.026477801137     1.809053442163    -0.022525053202    12.000000000000
         C           -2.567587001137    -1.044603757837     0.171228146798    12.000000000000
         H           -0.030840801137    -2.080676557837    -0.021475053202     1.007825032230
         H            2.135832198863     1.673049442163    -0.039400053202     1.007825032230
         H           -2.168004801137     1.651103442163    -0.001260053202     1.007825032230
         H           -0.032252801137     2.895117442163    -0.022506053202     1.007825032230
         H            3.186884198863    -0.466258557837    -0.445695053202     1.007825032230
         H            2.721362198863    -1.240478557837     0.947428946798     1.007825032230
         H            2.354514198863    -1.896319557837    -0.533440053202     1.007825032230
         H           -2.431509801137    -2.099477557837     0.214793946798     1.007825032230
         H           -3.265303801137    -0.612844557837     0.693591946798     1.007825032230
         H           -3.030819801137    -0.979847557837    -1.018017053202     1.007825032230

  Basis Set: AUG-CC-PVTZ
    Blend: AUG-CC-PVTZ
  Basis Set: (AUG-CC-PVTZ AUX)
    Blend: AUG-CC-PVTZ-JKFIT
	 Reference Energy          =    -325.2061906094549499 [Eh]
	 Singles Energy            =      -0.0000000000000000 [Eh]
	 Same-Spin Energy          =      -0.3535920936091121 [Eh]
	 Opposite-Spin Energy      =      -1.1505654612316865 [Eh]
	 Correlation Energy        =      -1.5041575548407986 [Eh]
	 Total Energy              =    -326.7103481642957377 [Eh]

	 ================> DF-SCS-MP2 Energies <==================
	-----------------------------------------------------------
	 SCS Same-Spin Scale       =       0.3333333333333333 [-]
	 SCS Opposite-Spin Scale   =       1.2000000000000000 [-]
	 SCS Same-Spin Energy      =      -0.1178640312030374 [Eh]
	 SCS Opposite-Spin Energy  =      -1.3806785534780237 [Eh]
	 SCS Correlation Energy    =      -1.4985425846810612 [Eh]
	 SCS Total Energy          =    -326.7047331941359971 [Eh]
	-----------------------------------------------------------

  Dipole Moment: [D]
     X:     7.2289      Y:    -3.2556      Z:    -0.0169     Total:     7.9282

*** Psi4 exiting successfully. Buy a developer a beer!
