                               Psi4 1.3.2 release

  ==> Input File <==

--------------------------------------------------------------------------
#psi4
#
memory 32 gb

molecule  {
1 1
  N        2.4325060    -0.9845600     0.0091070
  C        1.1463630    -0.2321410    -0.0173850
  C       -1.2536230    -0.2748500     0.0109180
  C       -0.0352110    -0.9646830     0.0005950
  C        1.1983270     1.1549650    -0.0097610
  C       -1.2241940     1.1288950     0.0124220
  C       -0.0217590     1.8354230    -0.0002870
  C       -2.5623340    -1.0168010    -0.0065280
  H       -0.0261220    -2.0543070     0.0007630
  H        2.1397958     1.6998193    -0.1171583
  H       -2.1632860     1.6774730     0.0209780
  H       -0.0275340     2.9214870    -0.0002680
  H        3.1916030    -0.4398890    -0.4234570
  H        2.7260810    -1.2141090     0.9696670
  H        2.3592330    -1.8699500    -0.5112020
  H       -2.4267910    -2.0731080     0.2370320
  H       -3.2605850    -0.5864750     0.7158300
  H       -3.0261010    -0.9534780    -0.9957790
units angstrom
no_reorient  #important for SAPT in psi4, default
symmetry c1  #important for SAPT in psi4, default
}

set PROPERTIES_ORIGIN ["COM"]
properties('MP2/aug-cc-pvtz', properties = ['dipole'])
--------------------------------------------------------------------------

    Molecular point group: c1
  Charge       = 1
  Multiplicity = 1
  Basis Set: AUG-CC-PVTZ
    Blend: AUG-CC-PVTZ
  Basis Set: (AUG-CC-PVTZ AUX)
    Blend: AUG-CC-PVTZ-JKFIT

    Orbital Energies [Eh]
    ---------------------

    Doubly Occupied:

       1A    -15.892759     2A    -11.463786     3A    -11.404721
       4A    -11.402489     5A    -11.399729     6A    -11.391744
       7A    -11.382074     8A    -11.348723     9A     -1.506662
      10A     -1.312539    11A     -1.201207    12A     -1.174532
      13A     -1.082815    14A     -1.001775    15A     -0.984155
      16A     -0.953572    17A     -0.925735    18A     -0.869986
      19A     -0.826933    20A     -0.791977    21A     -0.753352
      22A     -0.728657    23A     -0.707103    24A     -0.678077
      25A     -0.652891    26A     -0.649878    27A     -0.643397
      28A     -0.500823    29A     -0.484133

  @DF-RHF Final Energy:  -325.24104780893782

   => Energetics <=

    Nuclear Repulsion Energy =            353.2619640317565199
    One-Electron Energy =               -1128.7735734279451663
    Two-Electron Energy =                 450.2705615872508247
    Total Energy =                       -325.2410478089378216
  Basis Set: (AUG-CC-PVTZ AUX)
    Blend: AUG-CC-PVTZ-RI
    Molecular point group: c1

    Geometry (in Angstrom), charge = 1, multiplicity = 1:

       Center              X                  Y                   Z               Mass
    ------------   -----------------  -----------------  -----------------  -----------------
         N            2.427734929976    -1.011092415134     0.010006238924    14.003074004430
         C            1.141591929976    -0.258673415134    -0.016485761076    12.000000000000
         C           -1.258394070024    -0.301382415134     0.011817238924    12.000000000000
         C           -0.039982070024    -0.991215415134     0.001494238924    12.000000000000
         C            1.193555929976     1.128432584866    -0.008861761076    12.000000000000
         C           -1.228965070024     1.102362584866     0.013321238924    12.000000000000
         C           -0.026530070024     1.808890584866     0.000612238924    12.000000000000
         C           -2.567105070024    -1.043333415134    -0.005628761076    12.000000000000
         H           -0.030893070024    -2.080839415134     0.001662238924     1.007825032230
         H            2.135024729976     1.673286884866    -0.116259061076     1.007825032230
         H           -2.168057070024     1.650940584866     0.021877238924     1.007825032230
         H           -0.032305070024     2.894954584866     0.000631238924     1.007825032230
         H            3.186831929976    -0.466421415134    -0.422557761076     1.007825032230
         H            2.721309929976    -1.240641415134     0.970566238924     1.007825032230
         H            2.354461929976    -1.896482415134    -0.510302761076     1.007825032230
         H           -2.431562070024    -2.099640415134     0.237931238924     1.007825032230
         H           -3.265356070024    -0.613007415134     0.716729238924     1.007825032230
         H           -3.030872070024    -0.980010415134    -0.994879761076     1.007825032230

  Basis Set: AUG-CC-PVTZ
    Blend: AUG-CC-PVTZ
  Basis Set: (AUG-CC-PVTZ AUX)
    Blend: AUG-CC-PVTZ-JKFIT
	 Reference Energy          =    -325.2410478089378216 [Eh]
	 Singles Energy            =      -0.0000000000000000 [Eh]
	 Same-Spin Energy          =      -0.3531106594448111 [Eh]
	 Opposite-Spin Energy      =      -1.1490220002854596 [Eh]
	 Correlation Energy        =      -1.5021326597302709 [Eh]
	 Total Energy              =    -326.7431804686680721 [Eh]

	 ================> DF-SCS-MP2 Energies <==================
	-----------------------------------------------------------
	 SCS Same-Spin Scale       =       0.3333333333333333 [-]
	 SCS Opposite-Spin Scale   =       1.2000000000000000 [-]
	 SCS Same-Spin Energy      =      -0.1177035531482704 [Eh]
	 SCS Opposite-Spin Energy  =      -1.3788264003425514 [Eh]
	 SCS Correlation Energy    =      -1.4965299534908219 [Eh]
	 SCS Total Energy          =    -326.7375777624286570 [Eh]
	-----------------------------------------------------------

  Dipole Moment: [D]
     X:     7.2725      Y:    -3.2057      Z:    -0.0265     Total:     7.9477

*** Psi4 exiting successfully. Buy a developer a beer!
