                               Psi4 1.3.2 release

  ==> Input File <==

--------------------------------------------------------------------------
#psi4
#
memory 32 gb

molecule  {
1 1
  N        2.4325060    -0.9845600     0.0091070
  C        1.1463630    -0.2321410    -0.0173850
  C       -1.2536230    -0.2748500     0.0109180
  C       -0.0352110    -0.9646830     0.0005950
  C        1.1983270     1.1549650    -0.0097610
  C       -1.2241940     1.1288950     0.0124220
  C       -0.0217590     1.8354230    -0.0002870
  C       -2.5623340    -1.0168010    -0.0065280
  H       -0.0261220    -2.0543070     0.0007630
  H        2.1405510     1.6994190    -0.0171620
  H       -2.1632860     1.6774730     0.0209780
  H       -0.0293632     2.9212923    -0.2002595
  H        3.1916030    -0.4398890    -0.4234570
  H        2.7260810    -1.2141090     0.9696670
  H        2.3592330    -1.8699500    -0.5112020
  H       -2.4267910    -2.0731080     0.2370320
  H       -3.2605850    -0.5864750     0.7158300
  H       -3.0261010    -0.9534780    -0.9957790
units angstrom
no_reorient  #important for SAPT in psi4, default
symmetry c1  #important for SAPT in psi4, default
}

set PROPERTIES_ORIGIN ["COM"]
properties('MP2/aug-cc-pvtz', properties = ['dipole'])
--------------------------------------------------------------------------

    Molecular point group: c1
  Charge       = 1
  Multiplicity = 1
  Basis Set: AUG-CC-PVTZ
    Blend: AUG-CC-PVTZ
  Basis Set: (AUG-CC-PVTZ AUX)
    Blend: AUG-CC-PVTZ-JKFIT

    Orbital Energies [Eh]
    ---------------------

    Doubly Occupied:

       1A    -15.892768     2A    -11.463765     3A    -11.404483
       4A    -11.402711     5A    -11.399715     6A    -11.393123
       7A    -11.382377     8A    -11.348751     9A     -1.506712
      10A     -1.312577    11A     -1.201260    12A     -1.174208
      13A     -1.082988    14A     -1.001283    15A     -0.983929
      16A     -0.953605    17A     -0.925116    18A     -0.870015
      19A     -0.827299    20A     -0.791900    21A     -0.750583
      22A     -0.729189    23A     -0.707079    24A     -0.677798
      25A     -0.653086    26A     -0.651304    27A     -0.640679
      28A     -0.500418    29A     -0.484096

  @DF-RHF Final Energy:  -325.23894924968585

   => Energetics <=

    Nuclear Repulsion Energy =            353.2133046498034901
    One-Electron Energy =               -1128.6788706874760919
    Two-Electron Energy =                 450.2266167879867567
    Total Energy =                       -325.2389492496858452
  Basis Set: (AUG-CC-PVTZ AUX)
    Blend: AUG-CC-PVTZ-RI
    Molecular point group: c1

    Geometry (in Angstrom), charge = 1, multiplicity = 1:

       Center              X                  Y                   Z               Mass
    ------------   -----------------  -----------------  -----------------  -----------------
         N            2.427744944695    -1.011086866943     0.010938663339    14.003074004430
         C            1.141601944695    -0.258667866943    -0.015553336661    12.000000000000
         C           -1.258384055305    -0.301376866943     0.012749663339    12.000000000000
         C           -0.039972055305    -0.991209866943     0.002426663339    12.000000000000
         C            1.193565944695     1.128438133057    -0.007929336661    12.000000000000
         C           -1.228955055305     1.102368133057     0.014253663339    12.000000000000
         C           -0.026520055305     1.808896133057     0.001544663339    12.000000000000
         C           -2.567095055305    -1.043327866943    -0.004696336661    12.000000000000
         H           -0.030883055305    -2.080833866943     0.002594663339     1.007825032230
         H            2.135789944695     1.672892133057    -0.015330336661     1.007825032230
         H           -2.168047055305     1.650946133057     0.022809663339     1.007825032230
         H           -0.034124255305     2.894765433057    -0.198427836661     1.007825032230
         H            3.186841944695    -0.466415866943    -0.421625336661     1.007825032230
         H            2.721319944695    -1.240635866943     0.971498663339     1.007825032230
         H            2.354471944695    -1.896476866943    -0.509370336661     1.007825032230
         H           -2.431552055305    -2.099634866943     0.238863663339     1.007825032230
         H           -3.265346055305    -0.613001866943     0.717661663339     1.007825032230
         H           -3.030862055305    -0.980004866943    -0.993947336661     1.007825032230

  Basis Set: AUG-CC-PVTZ
    Blend: AUG-CC-PVTZ
  Basis Set: (AUG-CC-PVTZ AUX)
    Blend: AUG-CC-PVTZ-JKFIT
	 Reference Energy          =    -325.2389492496858452 [Eh]
	 Singles Energy            =      -0.0000000000000000 [Eh]
	 Same-Spin Energy          =      -0.3532226980642497 [Eh]
	 Opposite-Spin Energy      =      -1.1493180269870529 [Eh]
	 Correlation Energy        =      -1.5025407250513025 [Eh]
	 Total Energy              =    -326.7414899747371351 [Eh]

	 ================> DF-SCS-MP2 Energies <==================
	-----------------------------------------------------------
	 SCS Same-Spin Scale       =       0.3333333333333333 [-]
	 SCS Opposite-Spin Scale   =       1.2000000000000000 [-]
	 SCS Same-Spin Energy      =      -0.1177408993547499 [Eh]
	 SCS Opposite-Spin Energy  =      -1.3791816323844635 [Eh]
	 SCS Correlation Energy    =      -1.4969225317392134 [Eh]
	 SCS Total Energy          =    -326.7358717814250326 [Eh]
	-----------------------------------------------------------

  Dipole Moment: [D]
     X:     7.2767      Y:    -3.2245      Z:    -0.0761     Total:     7.9595

*** Psi4 exiting successfully. Buy a developer a beer!
