                               Psi4 1.3.2 release

  ==> Input File <==

--------------------------------------------------------------------------
#psi4
#
memory 32 gb

molecule  {
1 1
  N        2.4325060    -0.9845600     0.0091070
  C        1.1463630    -0.2321410    -0.0173850
  C       -1.2536230    -0.2748500     0.0109180
  C       -0.0352110    -0.9646830     0.0005950
  C        1.1983270     1.1549650    -0.0097610
  C       -1.2241940     1.1288950     0.0124220
  C       -0.0217590     1.8354230    -0.0002870
  C       -2.5623340    -1.0168010    -0.0065280
  H       -0.0231846    -2.0537074     0.2507450
  H        2.1405510     1.6994190    -0.0171620
  H       -2.1632860     1.6774730     0.0209780
  H       -0.0275340     2.9214870    -0.0002680
  H        3.1916030    -0.4398890    -0.4234570
  H        2.7260810    -1.2141090     0.9696670
  H        2.3592330    -1.8699500    -0.5112020
  H       -2.4267910    -2.0731080     0.2370320
  H       -3.2605850    -0.5864750     0.7158300
  H       -3.0261010    -0.9534780    -0.9957790
units angstrom
no_reorient  #important for SAPT in psi4, default
symmetry c1  #important for SAPT in psi4, default
}

set PROPERTIES_ORIGIN ["COM"]
properties('MP2/aug-cc-pvtz', properties = ['dipole'])
--------------------------------------------------------------------------

    Molecular point group: c1
  Charge       = 1
  Multiplicity = 1
  Basis Set: AUG-CC-PVTZ
    Blend: AUG-CC-PVTZ
  Basis Set: (AUG-CC-PVTZ AUX)
    Blend: AUG-CC-PVTZ-JKFIT

    Orbital Energies [Eh]
    ---------------------

    Doubly Occupied:

       1A    -15.892517     2A    -11.463998     3A    -11.404576
       4A    -11.404409     5A    -11.400261     6A    -11.392239
       7A    -11.382215     8A    -11.348739     9A     -1.506580
      10A     -1.312596    11A     -1.201256    12A     -1.174027
      13A     -1.082795    14A     -1.000789    15A     -0.984191
      16A     -0.953468    17A     -0.925079    18A     -0.869764
      19A     -0.825014    20A     -0.791842    21A     -0.751443
      22A     -0.728678    23A     -0.706271    24A     -0.677516
      25A     -0.651887    26A     -0.651488    27A     -0.641972
      28A     -0.500670    29A     -0.484185

  @DF-RHF Final Energy:  -325.23772898652373

   => Energetics <=

    Nuclear Repulsion Energy =            353.1685232438957200
    One-Electron Energy =               -1128.5915774317934392
    Two-Electron Energy =                 450.1853252013739848
    Total Energy =                       -325.2377289865237344
  Basis Set: (AUG-CC-PVTZ AUX)
    Blend: AUG-CC-PVTZ-RI
    Molecular point group: c1

    Geometry (in Angstrom), charge = 1, multiplicity = 1:

       Center              X                  Y                   Z               Mass
    ------------   -----------------  -----------------  -----------------  -----------------
         N            2.427700497619    -1.011094273545     0.006742799161    14.003074004430
         C            1.141557497619    -0.258675273545    -0.019749200839    12.000000000000
         C           -1.258428502381    -0.301384273545     0.008553799161    12.000000000000
         C           -0.040016502381    -0.991217273545    -0.001769200839    12.000000000000
         C            1.193521497619     1.128430726455    -0.012125200839    12.000000000000
         C           -1.228999502381     1.102360726455     0.010057799161    12.000000000000
         C           -0.026564502381     1.808888726455    -0.002651200839    12.000000000000
         C           -2.567139502381    -1.043335273545    -0.008892200839    12.000000000000
         H           -0.027990102381    -2.080241673545     0.248380799161     1.007825032230
         H            2.135745497619     1.672884726455    -0.019526200839     1.007825032230
         H           -2.168091502381     1.650938726455     0.018613799161     1.007825032230
         H           -0.032339502381     2.894952726455    -0.002632200839     1.007825032230
         H            3.186797497619    -0.466423273545    -0.425821200839     1.007825032230
         H            2.721275497619    -1.240643273545     0.967302799161     1.007825032230
         H            2.354427497619    -1.896484273545    -0.513566200839     1.007825032230
         H           -2.431596502381    -2.099642273545     0.234667799161     1.007825032230
         H           -3.265390502381    -0.613009273545     0.713465799161     1.007825032230
         H           -3.030906502381    -0.980012273545    -0.998143200839     1.007825032230

  Basis Set: AUG-CC-PVTZ
    Blend: AUG-CC-PVTZ
  Basis Set: (AUG-CC-PVTZ AUX)
    Blend: AUG-CC-PVTZ-JKFIT
	 Reference Energy          =    -325.2377289865237344 [Eh]
	 Singles Energy            =      -0.0000000000000000 [Eh]
	 Same-Spin Energy          =      -0.3532993109907889 [Eh]
	 Opposite-Spin Energy      =      -1.1494135232259626 [Eh]
	 Correlation Energy        =      -1.5027128342167515 [Eh]
	 Total Energy              =    -326.7404418207405001 [Eh]

	 ================> DF-SCS-MP2 Energies <==================
	-----------------------------------------------------------
	 SCS Same-Spin Scale       =       0.3333333333333333 [-]
	 SCS Opposite-Spin Scale   =       1.2000000000000000 [-]
	 SCS Same-Spin Energy      =      -0.1177664369969296 [Eh]
	 SCS Opposite-Spin Energy  =      -1.3792962278711551 [Eh]
	 SCS Correlation Energy    =      -1.4970626648680847 [Eh]
	 SCS Total Energy          =    -326.7347916513918449 [Eh]
	-----------------------------------------------------------

  Dipole Moment: [D]
     X:     7.2804      Y:    -3.1594      Z:     0.1943     Total:     7.9388

*** Psi4 exiting successfully. Buy a developer a beer!
