                               Psi4 1.3.2 release

  ==> Input File <==

--------------------------------------------------------------------------
#psi4
#
memory 32 gb

molecule  {
1 1
  N        2.4325060    -0.9845600     0.0091070
  C        1.1463630    -0.2321410    -0.0173850
  C       -1.2536230    -0.2748500     0.0109180
  C       -0.0352110    -0.9646830     0.0005950
  C        1.1983270     1.1549650    -0.0097610
  C       -1.2241940     1.1288950     0.0124220
  C       -0.0217590     1.8354230    -0.0002870
  C       -2.5631352    -1.0189507     0.2934632
  H       -0.0261220    -2.0543070     0.0007630
  H        2.1405510     1.6994190    -0.0171620
  H       -2.1632860     1.6774730     0.0209780
  H       -0.0275340     2.9214870    -0.0002680
  H        3.1916030    -0.4398890    -0.4234570
  H        2.7260810    -1.2141090     0.9696670
  H        2.3592330    -1.8699500    -0.5112020
  H       -2.4267910    -2.0731080     0.2370320
  H       -3.2605850    -0.5864750     0.7158300
  H       -3.0261010    -0.9534780    -0.9957790
units angstrom
no_reorient  #important for SAPT in psi4, default
symmetry c1  #important for SAPT in psi4, default
}

set PROPERTIES_ORIGIN ["COM"]
properties('MP2/aug-cc-pvtz', properties = ['dipole'])
--------------------------------------------------------------------------

    Molecular point group: c1
  Charge       = 1
  Multiplicity = 1
  Basis Set: AUG-CC-PVTZ
    Blend: AUG-CC-PVTZ
  Basis Set: (AUG-CC-PVTZ AUX)
    Blend: AUG-CC-PVTZ-JKFIT

    Orbital Energies [Eh]
    ---------------------

    Doubly Occupied:

       1A    -15.892985     2A    -11.464617     3A    -11.407828
       4A    -11.402679     5A    -11.402415     6A    -11.391964
       7A    -11.381561     8A    -11.363722     9A     -1.506897
      10A     -1.312685    11A     -1.201038    12A     -1.174693
      13A     -1.088642    14A     -1.002213    15A     -0.988601
      16A     -0.953781    17A     -0.926360    18A     -0.875081
      19A     -0.828687    20A     -0.800397    21A     -0.754623
      22A     -0.743516    23A     -0.726424    24A     -0.677405
      25A     -0.664499    26A     -0.645840    27A     -0.595636
      28A     -0.501105    29A     -0.469746

  @DF-RHF Final Energy:  -325.16716924361054

   => Energetics <=

    Nuclear Repulsion Energy =            352.8960635054332897
    One-Electron Energy =               -1127.8351851562301817
    Two-Electron Energy =                 449.7719524071863475
    Total Energy =                       -325.1671692436105445
  Basis Set: (AUG-CC-PVTZ AUX)
    Blend: AUG-CC-PVTZ-RI
    Molecular point group: c1

    Geometry (in Angstrom), charge = 1, multiplicity = 1:

       Center              X                  Y                   Z               Mass
    ------------   -----------------  -----------------  -----------------  -----------------
         N            2.427816843207    -1.010850006628    -0.024233470825    14.003074004430
         C            1.141673843207    -0.258431006628    -0.050725470825    12.000000000000
         C           -1.258312156793    -0.301140006628    -0.022422470825    12.000000000000
         C           -0.039900156793    -0.990973006628    -0.032745470825    12.000000000000
         C            1.193637843207     1.128674993372    -0.043101470825    12.000000000000
         C           -1.228883156793     1.102604993372    -0.020918470825    12.000000000000
         C           -0.026448156793     1.809132993372    -0.033627470825    12.000000000000
         C           -2.567824356793    -1.045240706628     0.260122729175    12.000000000000
         H           -0.030811156793    -2.080597006628    -0.032577470825     1.007825032230
         H            2.135861843207     1.673128993372    -0.050502470825     1.007825032230
         H           -2.167975156793     1.651182993372    -0.012362470825     1.007825032230
         H           -0.032223156793     2.895196993372    -0.033608470825     1.007825032230
         H            3.186913843207    -0.466179006628    -0.456797470825     1.007825032230
         H            2.721391843207    -1.240399006628     0.936326529175     1.007825032230
         H            2.354543843207    -1.896240006628    -0.544542470825     1.007825032230
         H           -2.431480156793    -2.099398006628     0.203691529175     1.007825032230
         H           -3.265274156793    -0.612765006628     0.682489529175     1.007825032230
         H           -3.030790156793    -0.979768006628    -1.029119470825     1.007825032230

  Basis Set: AUG-CC-PVTZ
    Blend: AUG-CC-PVTZ
  Basis Set: (AUG-CC-PVTZ AUX)
    Blend: AUG-CC-PVTZ-JKFIT
	 Reference Energy          =    -325.1671692436105445 [Eh]
	 Singles Energy            =      -0.0000000000000000 [Eh]
	 Same-Spin Energy          =      -0.3542384344261389 [Eh]
	 Opposite-Spin Energy      =      -1.1527384677423620 [Eh]
	 Correlation Energy        =      -1.5069769021685009 [Eh]
	 Total Energy              =    -326.6741461457790479 [Eh]

	 ================> DF-SCS-MP2 Energies <==================
	-----------------------------------------------------------
	 SCS Same-Spin Scale       =       0.3333333333333333 [-]
	 SCS Opposite-Spin Scale   =       1.2000000000000000 [-]
	 SCS Same-Spin Energy      =      -0.1180794781420463 [Eh]
	 SCS Opposite-Spin Energy  =      -1.3832861612908343 [Eh]
	 SCS Correlation Energy    =      -1.5013656394328805 [Eh]
	 SCS Total Energy          =    -326.6685348830434350 [Eh]
	-----------------------------------------------------------

  Dipole Moment: [D]
     X:     7.2042      Y:    -3.2840      Z:    -0.0539     Total:     7.9175

*** Psi4 exiting successfully. Buy a developer a beer!
