                               Psi4 1.3.2 release

  ==> Input File <==

--------------------------------------------------------------------------
#psi4
#
memory 32 gb

molecule  {
1 1
  N        2.4325060    -0.9845600     0.0091070
  C        1.1463630    -0.2321410    -0.0173850
  C       -1.2536230    -0.2748500     0.0109180
  C       -0.0352110    -0.9646830     0.0005950
  C        1.1983270     1.1549650    -0.0097610
  C       -1.2241940     1.1288950     0.0124220
  C       -0.0217590     1.8354230    -0.0002870
  C       -2.5623340    -1.0168010    -0.0065280
  H       -0.0261220    -2.0543070     0.0007630
  H        2.1394182     1.7000194    -0.1671565
  H       -2.1632860     1.6774730     0.0209780
  H       -0.0275340     2.9214870    -0.0002680
  H        3.1916030    -0.4398890    -0.4234570
  H        2.7260810    -1.2141090     0.9696670
  H        2.3592330    -1.8699500    -0.5112020
  H       -2.4267910    -2.0731080     0.2370320
  H       -3.2605850    -0.5864750     0.7158300
  H       -3.0261010    -0.9534780    -0.9957790
units angstrom
no_reorient  #important for SAPT in psi4, default
symmetry c1  #important for SAPT in psi4, default
}

set PROPERTIES_ORIGIN ["COM"]
properties('MP2/aug-cc-pvtz', properties = ['dipole'])
--------------------------------------------------------------------------

    Molecular point group: c1
  Charge       = 1
  Multiplicity = 1
  Basis Set: AUG-CC-PVTZ
    Blend: AUG-CC-PVTZ
  Basis Set: (AUG-CC-PVTZ AUX)
    Blend: AUG-CC-PVTZ-JKFIT

    Orbital Energies [Eh]
    ---------------------

    Doubly Occupied:

       1A    -15.892743     2A    -11.463876     3A    -11.405171
       4A    -11.402545     5A    -11.399872     6A    -11.391873
       7A    -11.382113     8A    -11.348800     9A     -1.506637
      10A     -1.312580    11A     -1.201132    12A     -1.174590
      13A     -1.082708    14A     -1.001794    15A     -0.984102
      16A     -0.953554    17A     -0.925658    18A     -0.869432
      19A     -0.826532    20A     -0.792005    21A     -0.753414
      22A     -0.728088    23A     -0.707077    24A     -0.678128
      25A     -0.653583    26A     -0.649356    27A     -0.643048
      28A     -0.500876    29A     -0.484134

  @DF-RHF Final Energy:  -325.24026926022572

   => Energetics <=

    Nuclear Repulsion Energy =            353.2391102694733718
    One-Electron Energy =               -1128.7279090208360230
    Two-Electron Energy =                 450.2485294911369351
    Total Energy =                       -325.2402692602257162
  Basis Set: (AUG-CC-PVTZ AUX)
    Blend: AUG-CC-PVTZ-RI
    Molecular point group: c1

    Geometry (in Angstrom), charge = 1, multiplicity = 1:

       Center              X                  Y                   Z               Mass
    ------------   -----------------  -----------------  -----------------  -----------------
         N            2.427738450980    -1.011094281005     0.010472456726    14.003074004430
         C            1.141595450980    -0.258675281005    -0.016019543274    12.000000000000
         C           -1.258390549020    -0.301384281005     0.012283456726    12.000000000000
         C           -0.039978549020    -0.991217281005     0.001960456726    12.000000000000
         C            1.193559450980     1.128430718995    -0.008395543274    12.000000000000
         C           -1.228961549020     1.102360718995     0.013787456726    12.000000000000
         C           -0.026526549020     1.808888718995     0.001078456726    12.000000000000
         C           -2.567101549020    -1.043335281005    -0.005162543274    12.000000000000
         H           -0.030889549020    -2.080841281005     0.002128456726     1.007825032230
         H            2.134650650980     1.673485118995    -0.165791043274     1.007825032230
         H           -2.168053549020     1.650938718995     0.022343456726     1.007825032230
         H           -0.032301549020     2.894952718995     0.001097456726     1.007825032230
         H            3.186835450980    -0.466423281005    -0.422091543274     1.007825032230
         H            2.721313450980    -1.240643281005     0.971032456726     1.007825032230
         H            2.354465450980    -1.896484281005    -0.509836543274     1.007825032230
         H           -2.431558549020    -2.099642281005     0.238397456726     1.007825032230
         H           -3.265352549020    -0.613009281005     0.717195456726     1.007825032230
         H           -3.030868549020    -0.980012281005    -0.994413543274     1.007825032230

  Basis Set: AUG-CC-PVTZ
    Blend: AUG-CC-PVTZ
  Basis Set: (AUG-CC-PVTZ AUX)
    Blend: AUG-CC-PVTZ-JKFIT
	 Reference Energy          =    -325.2402692602257162 [Eh]
	 Singles Energy            =      -0.0000000000000000 [Eh]
	 Same-Spin Energy          =      -0.3531585446768835 [Eh]
	 Opposite-Spin Energy      =      -1.1491259463803947 [Eh]
	 Correlation Energy        =      -1.5022844910572781 [Eh]
	 Total Energy              =    -326.7425537512829692 [Eh]

	 ================> DF-SCS-MP2 Energies <==================
	-----------------------------------------------------------
	 SCS Same-Spin Scale       =       0.3333333333333333 [-]
	 SCS Opposite-Spin Scale   =       1.2000000000000000 [-]
	 SCS Same-Spin Energy      =      -0.1177195148922945 [Eh]
	 SCS Opposite-Spin Energy  =      -1.3789511356564736 [Eh]
	 SCS Correlation Energy    =      -1.4966706505487681 [Eh]
	 SCS Total Energy          =    -326.7369399107744812 [Eh]
	-----------------------------------------------------------

  Dipole Moment: [D]
     X:     7.2605      Y:    -3.2094      Z:    -0.0598     Total:     7.9384

*** Psi4 exiting successfully. Buy a developer a beer!
