                               Psi4 1.3.2 release

  ==> Input File <==

--------------------------------------------------------------------------
#psi4
#
memory 32 gb

molecule  {
1 1
  N        2.4325060    -0.9845600     0.0091070
  C        1.1463630    -0.2321410    -0.0173850
  C       -1.2536230    -0.2748500     0.0109180
  C       -0.0352110    -0.9646830     0.0005950
  C        1.1983270     1.1549650    -0.0097610
  C       -1.2241940     1.1288950     0.0124220
  C       -0.0217590     1.8354230    -0.0002870
  C       -2.5624675    -1.0171593     0.0434705
  H       -0.0261220    -2.0543070     0.0007630
  H        2.1405510     1.6994190    -0.0171620
  H       -2.1632860     1.6774730     0.0209780
  H       -0.0275340     2.9214870    -0.0002680
  H        3.1916030    -0.4398890    -0.4234570
  H        2.7260810    -1.2141090     0.9696670
  H        2.3592330    -1.8699500    -0.5112020
  H       -2.4267910    -2.0731080     0.2370320
  H       -3.2605850    -0.5864750     0.7158300
  H       -3.0261010    -0.9534780    -0.9957790
units angstrom
no_reorient  #important for SAPT in psi4, default
symmetry c1  #important for SAPT in psi4, default
}

set PROPERTIES_ORIGIN ["COM"]
properties('MP2/aug-cc-pvtz', properties = ['dipole'])
--------------------------------------------------------------------------

    Molecular point group: c1
  Charge       = 1
  Multiplicity = 1
  Basis Set: AUG-CC-PVTZ
    Blend: AUG-CC-PVTZ
  Basis Set: (AUG-CC-PVTZ AUX)
    Blend: AUG-CC-PVTZ-JKFIT

    Orbital Energies [Eh]
    ---------------------

    Doubly Occupied:

       1A    -15.892724     2A    -11.463737     3A    -11.404014
       4A    -11.402373     5A    -11.400048     6A    -11.391623
       7A    -11.381902     8A    -11.349331     9A     -1.506656
      10A     -1.312462    11A     -1.201288    12A     -1.174427
      13A     -1.083163    14A     -1.001768    15A     -0.984337
      16A     -0.953556    17A     -0.925818    18A     -0.870600
      19A     -0.827297    20A     -0.792662    21A     -0.753303
      22A     -0.729543    23A     -0.703368    24A     -0.682379
      25A     -0.656383    26A     -0.646278    27A     -0.642971
      28A     -0.500736    29A     -0.482871

  @DF-RHF Final Energy:  -325.23927039876497

   => Energetics <=

    Nuclear Repulsion Energy =            353.2715852699054153
    One-Electron Energy =               -1128.7864685161314355
    Two-Electron Energy =                 450.2756128474609909
    Total Energy =                       -325.2392703987649725
  Basis Set: (AUG-CC-PVTZ AUX)
    Blend: AUG-CC-PVTZ-RI
    Molecular point group: c1

    Geometry (in Angstrom), charge = 1, multiplicity = 1:

       Center              X                  Y                   Z               Mass
    ------------   -----------------  -----------------  -----------------  -----------------
         N            2.427742710141    -1.011048901304     0.003522595439    14.003074004430
         C            1.141599710141    -0.258629901304    -0.022969404561    12.000000000000
         C           -1.258386289859    -0.301338901304     0.005333595439    12.000000000000
         C           -0.039974289859    -0.991171901304    -0.004989404561    12.000000000000
         C            1.193563710141     1.128476098696    -0.015345404561    12.000000000000
         C           -1.228957289859     1.102406098696     0.006837595439    12.000000000000
         C           -0.026522289859     1.808934098696    -0.005871404561    12.000000000000
         C           -2.567230789859    -1.043648201304     0.037886095439    12.000000000000
         H           -0.030885289859    -2.080795901304    -0.004821404561     1.007825032230
         H            2.135787710141     1.672930098696    -0.022746404561     1.007825032230
         H           -2.168049289859     1.650984098696     0.015393595439     1.007825032230
         H           -0.032297289859     2.894998098696    -0.005852404561     1.007825032230
         H            3.186839710141    -0.466377901304    -0.429041404561     1.007825032230
         H            2.721317710141    -1.240597901304     0.964082595439     1.007825032230
         H            2.354469710141    -1.896438901304    -0.516786404561     1.007825032230
         H           -2.431554289859    -2.099596901304     0.231447595439     1.007825032230
         H           -3.265348289859    -0.612963901304     0.710245595439     1.007825032230
         H           -3.030864289859    -0.979966901304    -1.001363404561     1.007825032230

  Basis Set: AUG-CC-PVTZ
    Blend: AUG-CC-PVTZ
  Basis Set: (AUG-CC-PVTZ AUX)
    Blend: AUG-CC-PVTZ-JKFIT
	 Reference Energy          =    -325.2392703987649725 [Eh]
	 Singles Energy            =      -0.0000000000000000 [Eh]
	 Same-Spin Energy          =      -0.3531052140845594 [Eh]
	 Opposite-Spin Energy      =      -1.1490237907760752 [Eh]
	 Correlation Energy        =      -1.5021290048606346 [Eh]
	 Total Energy              =    -326.7413994036256213 [Eh]

	 ================> DF-SCS-MP2 Energies <==================
	-----------------------------------------------------------
	 SCS Same-Spin Scale       =       0.3333333333333333 [-]
	 SCS Opposite-Spin Scale   =       1.2000000000000000 [-]
	 SCS Same-Spin Energy      =      -0.1177017380281865 [Eh]
	 SCS Opposite-Spin Energy  =      -1.3788285489312901 [Eh]
	 SCS Correlation Energy    =      -1.4965302869594765 [Eh]
	 SCS Total Energy          =    -326.7358006857244277 [Eh]
	-----------------------------------------------------------

  Dipole Moment: [D]
     X:     7.2670      Y:    -3.2154      Z:     0.0254     Total:     7.9466

*** Psi4 exiting successfully. Buy a developer a beer!
