                               Psi4 1.3.2 release

  ==> Input File <==

--------------------------------------------------------------------------
#psi4
#
memory 32 gb

molecule  {
1 1
  N        2.4325060    -0.9845600     0.0091070
  C        1.1463630    -0.2321410    -0.0173850
  C       -1.2536230    -0.2748500     0.0109180
  C       -0.0352110    -0.9646830     0.0005950
  C        1.1983270     1.1549650    -0.0097610
  C       -1.2241940     1.1288950     0.0124220
  C       -0.0217590     1.8354230    -0.0002870
  C       -2.5623340    -1.0168010    -0.0065280
  H       -0.0261220    -2.0543070     0.0007630
  H        2.1405510     1.6994190    -0.0171620
  H       -2.1607943     1.6773458     0.2709656
  H       -0.0275340     2.9214870    -0.0002680
  H        3.1916030    -0.4398890    -0.4234570
  H        2.7260810    -1.2141090     0.9696670
  H        2.3592330    -1.8699500    -0.5112020
  H       -2.4267910    -2.0731080     0.2370320
  H       -3.2605850    -0.5864750     0.7158300
  H       -3.0261010    -0.9534780    -0.9957790
units angstrom
no_reorient  #important for SAPT in psi4, default
symmetry c1  #important for SAPT in psi4, default
}

set PROPERTIES_ORIGIN ["COM"]
properties('MP2/aug-cc-pvtz', properties = ['dipole'])
--------------------------------------------------------------------------

    Molecular point group: c1
  Charge       = 1
  Multiplicity = 1
  Basis Set: AUG-CC-PVTZ
    Blend: AUG-CC-PVTZ
  Basis Set: (AUG-CC-PVTZ AUX)
    Blend: AUG-CC-PVTZ-JKFIT

    Orbital Energies [Eh]
    ---------------------

    Doubly Occupied:

       1A    -15.892954     2A    -11.464089     3A    -11.404458
       4A    -11.402618     5A    -11.399989     6A    -11.392037
       7A    -11.384417     8A    -11.348719     9A     -1.506930
      10A     -1.312628    11A     -1.201355    12A     -1.174058
      13A     -1.082830    14A     -1.000868    15A     -0.984009
      16A     -0.953812    17A     -0.925992    18A     -0.870589
      19A     -0.823385    20A     -0.792094    21A     -0.752839
      22A     -0.728867    23A     -0.707838    24A     -0.675190
      25A     -0.654103    26A     -0.646792    27A     -0.643544
      28A     -0.500097    29A     -0.484144

  @DF-RHF Final Energy:  -325.23731078758999

   => Energetics <=

    Nuclear Repulsion Energy =            353.1717107742505846
    One-Electron Energy =               -1128.5955515205193933
    Two-Electron Energy =                 450.1865299586787614
    Total Energy =                       -325.2373107875899905
  Basis Set: (AUG-CC-PVTZ AUX)
    Blend: AUG-CC-PVTZ-RI
    Molecular point group: c1

    Geometry (in Angstrom), charge = 1, multiplicity = 1:

       Center              X                  Y                   Z               Mass
    ------------   -----------------  -----------------  -----------------  -----------------
         N            2.427704653634    -1.011087496359     0.006742746942    14.003074004430
         C            1.141561653634    -0.258668496359    -0.019749253058    12.000000000000
         C           -1.258424346366    -0.301377496359     0.008553746942    12.000000000000
         C           -0.040012346366    -0.991210496359    -0.001769253058    12.000000000000
         C            1.193525653634     1.128437503641    -0.012125253058    12.000000000000
         C           -1.228995346366     1.102367503641     0.010057746942    12.000000000000
         C           -0.026560346366     1.808895503641    -0.002651253058    12.000000000000
         C           -2.567135346366    -1.043328496359    -0.008892253058    12.000000000000
         H           -0.030923346366    -2.080834496359    -0.001601253058     1.007825032230
         H            2.135749653634     1.672891503641    -0.019526253058     1.007825032230
         H           -2.165595646366     1.650818303641     0.268601346942     1.007825032230
         H           -0.032335346366     2.894959503641    -0.002632253058     1.007825032230
         H            3.186801653634    -0.466416496359    -0.425821253058     1.007825032230
         H            2.721279653634    -1.240636496359     0.967302746942     1.007825032230
         H            2.354431653634    -1.896477496359    -0.513566253058     1.007825032230
         H           -2.431592346366    -2.099635496359     0.234667746942     1.007825032230
         H           -3.265386346366    -0.613002496359     0.713465746942     1.007825032230
         H           -3.030902346366    -0.980005496359    -0.998143253058     1.007825032230

  Basis Set: AUG-CC-PVTZ
    Blend: AUG-CC-PVTZ
  Basis Set: (AUG-CC-PVTZ AUX)
    Blend: AUG-CC-PVTZ-JKFIT
	 Reference Energy          =    -325.2373107875899905 [Eh]
	 Singles Energy            =      -0.0000000000000000 [Eh]
	 Same-Spin Energy          =      -0.3533053703649728 [Eh]
	 Opposite-Spin Energy      =      -1.1494699825285175 [Eh]
	 Correlation Energy        =      -1.5027753528934902 [Eh]
	 Total Energy              =    -326.7400861404834700 [Eh]

	 ================> DF-SCS-MP2 Energies <==================
	-----------------------------------------------------------
	 SCS Same-Spin Scale       =       0.3333333333333333 [-]
	 SCS Opposite-Spin Scale   =       1.2000000000000000 [-]
	 SCS Same-Spin Energy      =      -0.1177684567883243 [Eh]
	 SCS Opposite-Spin Energy  =      -1.3793639790342209 [Eh]
	 SCS Correlation Energy    =      -1.4971324358225453 [Eh]
	 SCS Total Energy          =    -326.7344432234125406 [Eh]
	-----------------------------------------------------------

  Dipole Moment: [D]
     X:     7.3184      Y:    -3.2203      Z:     0.1780     Total:     7.9975

*** Psi4 exiting successfully. Buy a developer a beer!
