                               Psi4 1.3.2 release

  ==> Input File <==

--------------------------------------------------------------------------
#psi4
#
memory 32 gb

molecule  {
1 1
  N        2.4325060    -0.9845600     0.0091070
  C        1.1463630    -0.2321410    -0.0173850
  C       -1.2536230    -0.2748500     0.0109180
  C       -0.0352110    -0.9646830     0.0005950
  C        1.1990058     1.1535929    -0.2097551
  C       -1.2241940     1.1288950     0.0124220
  C       -0.0217590     1.8354230    -0.0002870
  C       -2.5623340    -1.0168010    -0.0065280
  H       -0.0261220    -2.0543070     0.0007630
  H        2.1405510     1.6994190    -0.0171620
  H       -2.1632860     1.6774730     0.0209780
  H       -0.0275340     2.9214870    -0.0002680
  H        3.1916030    -0.4398890    -0.4234570
  H        2.7260810    -1.2141090     0.9696670
  H        2.3592330    -1.8699500    -0.5112020
  H       -2.4267910    -2.0731080     0.2370320
  H       -3.2605850    -0.5864750     0.7158300
  H       -3.0261010    -0.9534780    -0.9957790
units angstrom
no_reorient  #important for SAPT in psi4, default
symmetry c1  #important for SAPT in psi4, default
}

set PROPERTIES_ORIGIN ["COM"]
properties('MP2/aug-cc-pvtz', properties = ['dipole'])
--------------------------------------------------------------------------

    Molecular point group: c1
  Charge       = 1
  Multiplicity = 1
  Basis Set: AUG-CC-PVTZ
    Blend: AUG-CC-PVTZ
  Basis Set: (AUG-CC-PVTZ AUX)
    Blend: AUG-CC-PVTZ-JKFIT

    Orbital Energies [Eh]
    ---------------------

    Doubly Occupied:

       1A    -15.892540     2A    -11.466547     3A    -11.407414
       4A    -11.402653     5A    -11.401461     6A    -11.395492
       7A    -11.381695     8A    -11.349698     9A     -1.506591
      10A     -1.311318    11A     -1.199749    12A     -1.174214
      13A     -1.082868    14A     -0.999723    15A     -0.984479
      16A     -0.953480    17A     -0.925683    18A     -0.867643
      19A     -0.825378    20A     -0.789553    21A     -0.752364
      22A     -0.725978    23A     -0.707086    24A     -0.677364
      25A     -0.653073    26A     -0.648415    27A     -0.642809
      28A     -0.499428    29A     -0.484767

  @DF-RHF Final Energy:  -325.23021358524494

   => Energetics <=

    Nuclear Repulsion Energy =            352.8256255661414116
    One-Electron Energy =               -1127.8927521323489600
    Two-Electron Energy =                 449.8369129809626088
    Total Energy =                       -325.2302135852449396
  Basis Set: (AUG-CC-PVTZ AUX)
    Blend: AUG-CC-PVTZ-RI
    Molecular point group: c1

    Geometry (in Angstrom), charge = 1, multiplicity = 1:

       Center              X                  Y                   Z               Mass
    ------------   -----------------  -----------------  -----------------  -----------------
         N            2.427652522497    -1.010936341618     0.031278650601    14.003074004430
         C            1.141509522497    -0.258517341618     0.004786650601    12.000000000000
         C           -1.258476477503    -0.301226341618     0.033089650601    12.000000000000
         C           -0.040064477503    -0.991059341618     0.022766650601    12.000000000000
         C            1.194152322497     1.127216558382    -0.187583449399    12.000000000000
         C           -1.229047477503     1.102518658382     0.034593650601    12.000000000000
         C           -0.026612477503     1.809046658382     0.021884650601    12.000000000000
         C           -2.567187477503    -1.043177341618     0.015643650601    12.000000000000
         H           -0.030975477503    -2.080683341618     0.022934650601     1.007825032230
         H            2.135697522497     1.673042658382     0.005009650601     1.007825032230
         H           -2.168139477503     1.651096658382     0.043149650601     1.007825032230
         H           -0.032387477503     2.895110658382     0.021903650601     1.007825032230
         H            3.186749522497    -0.466265341618    -0.401285349399     1.007825032230
         H            2.721227522497    -1.240485341618     0.991838650601     1.007825032230
         H            2.354379522497    -1.896326341618    -0.489030349399     1.007825032230
         H           -2.431644477503    -2.099484341618     0.259203650601     1.007825032230
         H           -3.265438477503    -0.612851341618     0.738001650601     1.007825032230
         H           -3.030954477503    -0.979854341618    -0.973607349399     1.007825032230

  Basis Set: AUG-CC-PVTZ
    Blend: AUG-CC-PVTZ
  Basis Set: (AUG-CC-PVTZ AUX)
    Blend: AUG-CC-PVTZ-JKFIT
	 Reference Energy          =    -325.2302135852449396 [Eh]
	 Singles Energy            =      -0.0000000000000000 [Eh]
	 Same-Spin Energy          =      -0.3536488152003119 [Eh]
	 Opposite-Spin Energy      =      -1.1507447418465164 [Eh]
	 Correlation Energy        =      -1.5043935570468283 [Eh]
	 Total Energy              =    -326.7346071422917930 [Eh]

	 ================> DF-SCS-MP2 Energies <==================
	-----------------------------------------------------------
	 SCS Same-Spin Scale       =       0.3333333333333333 [-]
	 SCS Opposite-Spin Scale   =       1.2000000000000000 [-]
	 SCS Same-Spin Energy      =      -0.1178829384001040 [Eh]
	 SCS Opposite-Spin Energy  =      -1.3808936902158198 [Eh]
	 SCS Correlation Energy    =      -1.4987766286159236 [Eh]
	 SCS Total Energy          =    -326.7289902138608682 [Eh]
	-----------------------------------------------------------

  Dipole Moment: [D]
     X:     7.1876      Y:    -3.2359      Z:     0.2387     Total:     7.8860

*** Psi4 exiting successfully. Buy a developer a beer!
