                               Psi4 1.3.2 release

  ==> Input File <==

--------------------------------------------------------------------------
#psi4
#
memory 32 gb

molecule  {
1 1
  N        2.4325060    -0.9845600     0.0091070
  C        1.1463630    -0.2321410    -0.0173850
  C       -1.2536230    -0.2748500     0.0109180
  C       -0.0352110    -0.9646830     0.0005950
  C        1.1983270     1.1549650    -0.0097610
  C       -1.2241940     1.1288950     0.0124220
  C       -0.0217590     1.8354230    -0.0002870
  C       -2.5626011    -1.0175176     0.0934691
  H       -0.0261220    -2.0543070     0.0007630
  H        2.1405510     1.6994190    -0.0171620
  H       -2.1632860     1.6774730     0.0209780
  H       -0.0275340     2.9214870    -0.0002680
  H        3.1916030    -0.4398890    -0.4234570
  H        2.7260810    -1.2141090     0.9696670
  H        2.3592330    -1.8699500    -0.5112020
  H       -2.4267910    -2.0731080     0.2370320
  H       -3.2605850    -0.5864750     0.7158300
  H       -3.0261010    -0.9534780    -0.9957790
units angstrom
no_reorient  #important for SAPT in psi4, default
symmetry c1  #important for SAPT in psi4, default
}

set PROPERTIES_ORIGIN ["COM"]
properties('MP2/aug-cc-pvtz', properties = ['dipole'])
--------------------------------------------------------------------------

    Molecular point group: c1
  Charge       = 1
  Multiplicity = 1
  Basis Set: AUG-CC-PVTZ
    Blend: AUG-CC-PVTZ
  Basis Set: (AUG-CC-PVTZ AUX)
    Blend: AUG-CC-PVTZ-JKFIT

    Orbital Energies [Eh]
    ---------------------

    Doubly Occupied:

       1A    -15.892733     2A    -11.463832     3A    -11.403728
       4A    -11.402433     5A    -11.400818     6A    -11.391653
       7A    -11.381802     8A    -11.350756     9A     -1.506661
      10A     -1.312465    11A     -1.201299    12A     -1.174422
      13A     -1.083745    14A     -1.001821    15A     -0.984786
      16A     -0.953560    17A     -0.925882    18A     -0.871046
      19A     -0.827431    20A     -0.793646    21A     -0.753393
      22A     -0.730366    23A     -0.706239    24A     -0.683249
      25A     -0.659753    26A     -0.646736    27A     -0.634498
      28A     -0.500744    29A     -0.481180

  @DF-RHF Final Energy:  -325.23224388484670

   => Energetics <=

    Nuclear Repulsion Energy =            353.2420903530717169
    One-Electron Energy =               -1128.7073184149869576
    Two-Electron Energy =                 450.2329841770685448
    Total Energy =                       -325.2322438848466959
  Basis Set: (AUG-CC-PVTZ AUX)
    Blend: AUG-CC-PVTZ-RI
    Molecular point group: c1

    Geometry (in Angstrom), charge = 1, multiplicity = 1:

       Center              X                  Y                   Z               Mass
    ------------   -----------------  -----------------  -----------------  -----------------
         N            2.427757543416    -1.011009120149    -0.002028624475    14.003074004430
         C            1.141614543416    -0.258590120149    -0.028520624475    12.000000000000
         C           -1.258371456584    -0.301299120149    -0.000217624475    12.000000000000
         C           -0.039959456584    -0.991132120149    -0.010540624475    12.000000000000
         C            1.193578543416     1.128515879851    -0.020896624475    12.000000000000
         C           -1.228942456584     1.102445879851     0.001286375525    12.000000000000
         C           -0.026507456584     1.808973879851    -0.011422624475    12.000000000000
         C           -2.567349556584    -1.043966720149     0.082333475525    12.000000000000
         H           -0.030870456584    -2.080756120149    -0.010372624475     1.007825032230
         H            2.135802543416     1.672969879851    -0.028297624475     1.007825032230
         H           -2.168034456584     1.651023879851     0.009842375525     1.007825032230
         H           -0.032282456584     2.895037879851    -0.011403624475     1.007825032230
         H            3.186854543416    -0.466338120149    -0.434592624475     1.007825032230
         H            2.721332543416    -1.240558120149     0.958531375525     1.007825032230
         H            2.354484543416    -1.896399120149    -0.522337624475     1.007825032230
         H           -2.431539456584    -2.099557120149     0.225896375525     1.007825032230
         H           -3.265333456584    -0.612924120149     0.704694375525     1.007825032230
         H           -3.030849456584    -0.979927120149    -1.006914624475     1.007825032230

  Basis Set: AUG-CC-PVTZ
    Blend: AUG-CC-PVTZ
  Basis Set: (AUG-CC-PVTZ AUX)
    Blend: AUG-CC-PVTZ-JKFIT
	 Reference Energy          =    -325.2322438848466959 [Eh]
	 Singles Energy            =      -0.0000000000000000 [Eh]
	 Same-Spin Energy          =      -0.3532043921416397 [Eh]
	 Opposite-Spin Energy      =      -1.1493200918876110 [Eh]
	 Correlation Energy        =      -1.5025244840292507 [Eh]
	 Total Energy              =    -326.7347683688759616 [Eh]

	 ================> DF-SCS-MP2 Energies <==================
	-----------------------------------------------------------
	 SCS Same-Spin Scale       =       0.3333333333333333 [-]
	 SCS Opposite-Spin Scale   =       1.2000000000000000 [-]
	 SCS Same-Spin Energy      =      -0.1177347973805466 [Eh]
	 SCS Opposite-Spin Energy  =      -1.3791841102651332 [Eh]
	 SCS Correlation Energy    =      -1.4969189076456797 [Eh]
	 SCS Total Energy          =    -326.7291627924923887 [Eh]
	-----------------------------------------------------------

  Dipole Moment: [D]
     X:     7.2526      Y:    -3.2284      Z:     0.0112     Total:     7.9387

*** Psi4 exiting successfully. Buy a developer a beer!
