                               Psi4 1.3.2 release

  ==> Input File <==

--------------------------------------------------------------------------
#psi4
#
memory 32 gb

molecule  {
1 1
  N        2.4325060    -0.9845600     0.0091070
  C        1.1463630    -0.2321410    -0.0173850
  C       -1.2536230    -0.2748500     0.0109180
  C       -0.0352110    -0.9646830     0.0005950
  C        1.1986664     1.1542789    -0.1097581
  C       -1.2241940     1.1288950     0.0124220
  C       -0.0217590     1.8354230    -0.0002870
  C       -2.5623340    -1.0168010    -0.0065280
  H       -0.0261220    -2.0543070     0.0007630
  H        2.1405510     1.6994190    -0.0171620
  H       -2.1632860     1.6774730     0.0209780
  H       -0.0275340     2.9214870    -0.0002680
  H        3.1916030    -0.4398890    -0.4234570
  H        2.7260810    -1.2141090     0.9696670
  H        2.3592330    -1.8699500    -0.5112020
  H       -2.4267910    -2.0731080     0.2370320
  H       -3.2605850    -0.5864750     0.7158300
  H       -3.0261010    -0.9534780    -0.9957790
units angstrom
no_reorient  #important for SAPT in psi4, default
symmetry c1  #important for SAPT in psi4, default
}

set PROPERTIES_ORIGIN ["COM"]
properties('MP2/aug-cc-pvtz', properties = ['dipole'])
--------------------------------------------------------------------------

    Molecular point group: c1
  Charge       = 1
  Multiplicity = 1
  Basis Set: AUG-CC-PVTZ
    Blend: AUG-CC-PVTZ
  Basis Set: (AUG-CC-PVTZ AUX)
    Blend: AUG-CC-PVTZ-JKFIT

    Orbital Energies [Eh]
    ---------------------

    Doubly Occupied:

       1A    -15.892704     2A    -11.464428     3A    -11.405120
       4A    -11.402319     5A    -11.400170     6A    -11.392664
       7A    -11.381911     8A    -11.348917     9A     -1.506684
      10A     -1.312169    11A     -1.200904    12A     -1.174361
      13A     -1.082946    14A     -1.001192    15A     -0.984286
      16A     -0.953564    17A     -0.925783    18A     -0.869799
      19A     -0.826764    20A     -0.791351    21A     -0.752979
      22A     -0.728508    23A     -0.707121    24A     -0.677863
      25A     -0.652195    26A     -0.650036    27A     -0.643526
      28A     -0.500362    29A     -0.484300

  @DF-RHF Final Energy:  -325.23895708382139

   => Energetics <=

    Nuclear Repulsion Energy =            353.1639199717181441
    One-Electron Energy =               -1128.5758996003382890
    Two-Electron Energy =                 450.1730225447988119
    Total Energy =                       -325.2389570838213899
  Basis Set: (AUG-CC-PVTZ AUX)
    Blend: AUG-CC-PVTZ-RI
    Molecular point group: c1

    Geometry (in Angstrom), charge = 1, multiplicity = 1:

       Center              X                  Y                   Z               Mass
    ------------   -----------------  -----------------  -----------------  -----------------
         N            2.427690205233    -1.011012506488     0.020176232978    14.003074004430
         C            1.141547205233    -0.258593506488    -0.006315767022    12.000000000000
         C           -1.258438794767    -0.301302506488     0.021987232978    12.000000000000
         C           -0.040026794767    -0.991135506488     0.011664232978    12.000000000000
         C            1.193850605233     1.127826393512    -0.098688867022    12.000000000000
         C           -1.229009794767     1.102442493512     0.023491232978    12.000000000000
         C           -0.026574794767     1.808970493512     0.010782232978    12.000000000000
         C           -2.567149794767    -1.043253506488     0.004541232978    12.000000000000
         H           -0.030937794767    -2.080759506488     0.011832232978     1.007825032230
         H            2.135735205233     1.672966493512    -0.006092767022     1.007825032230
         H           -2.168101794767     1.651020493512     0.032047232978     1.007825032230
         H           -0.032349794767     2.895034493512     0.010801232978     1.007825032230
         H            3.186787205233    -0.466341506488    -0.412387767022     1.007825032230
         H            2.721265205233    -1.240561506488     0.980736232978     1.007825032230
         H            2.354417205233    -1.896402506488    -0.500132767022     1.007825032230
         H           -2.431606794767    -2.099560506488     0.248101232978     1.007825032230
         H           -3.265400794767    -0.612927506488     0.726899232978     1.007825032230
         H           -3.030916794767    -0.979930506488    -0.984709767022     1.007825032230

  Basis Set: AUG-CC-PVTZ
    Blend: AUG-CC-PVTZ
  Basis Set: (AUG-CC-PVTZ AUX)
    Blend: AUG-CC-PVTZ-JKFIT
	 Reference Energy          =    -325.2389570838213899 [Eh]
	 Singles Energy            =      -0.0000000000000000 [Eh]
	 Same-Spin Energy          =      -0.3532131962329748 [Eh]
	 Opposite-Spin Energy      =      -1.1493858876635090 [Eh]
	 Correlation Energy        =      -1.5025990838964838 [Eh]
	 Total Energy              =    -326.7415561677178744 [Eh]

	 ================> DF-SCS-MP2 Energies <==================
	-----------------------------------------------------------
	 SCS Same-Spin Scale       =       0.3333333333333333 [-]
	 SCS Opposite-Spin Scale   =       1.2000000000000000 [-]
	 SCS Same-Spin Energy      =      -0.1177377320776583 [Eh]
	 SCS Opposite-Spin Energy  =      -1.3792630651962108 [Eh]
	 SCS Correlation Energy    =      -1.4970007972738690 [Eh]
	 SCS Total Energy          =    -326.7359578810952598 [Eh]
	-----------------------------------------------------------

  Dipole Moment: [D]
     X:     7.2617      Y:    -3.2105      Z:     0.1382     Total:     7.9409

*** Psi4 exiting successfully. Buy a developer a beer!
