                               Psi4 1.3.2 release

  ==> Input File <==

--------------------------------------------------------------------------
#psi4
#
memory 32 gb

molecule  {
1 1
  N        2.4325060    -0.9845600     0.0091070
  C        1.1463630    -0.2321410    -0.0173850
  C       -1.2536230    -0.2748500     0.0109180
  C       -0.0352110    -0.9646830     0.0005950
  C        1.1983270     1.1549650    -0.0097610
  C       -1.2241940     1.1288950     0.0124220
  C       -0.0217590     1.8354230    -0.0002870
  C       -2.5623340    -1.0168010    -0.0065280
  H       -0.0261220    -2.0543070     0.0007630
  H        2.1405510     1.6994190    -0.0171620
  H       -2.1632860     1.6774730     0.0209780
  H       -0.0279913     2.9214383    -0.0502659
  H        3.1916030    -0.4398890    -0.4234570
  H        2.7260810    -1.2141090     0.9696670
  H        2.3592330    -1.8699500    -0.5112020
  H       -2.4267910    -2.0731080     0.2370320
  H       -3.2605850    -0.5864750     0.7158300
  H       -3.0261010    -0.9534780    -0.9957790
units angstrom
no_reorient  #important for SAPT in psi4, default
symmetry c1  #important for SAPT in psi4, default
}

set PROPERTIES_ORIGIN ["COM"]
properties('MP2/aug-cc-pvtz', properties = ['dipole'])
--------------------------------------------------------------------------

    Molecular point group: c1
  Charge       = 1
  Multiplicity = 1
  Basis Set: AUG-CC-PVTZ
    Blend: AUG-CC-PVTZ
  Basis Set: (AUG-CC-PVTZ AUX)
    Blend: AUG-CC-PVTZ-JKFIT

    Orbital Energies [Eh]
    ---------------------

    Doubly Occupied:

       1A    -15.892742     2A    -11.463700     3A    -11.404316
       4A    -11.402463     5A    -11.399616     6A    -11.391721
       7A    -11.382067     8A    -11.348669     9A     -1.506678
      10A     -1.312502    11A     -1.201260    12A     -1.174460
      13A     -1.082903    14A     -1.001719    15A     -0.984163
      16A     -0.953576    17A     -0.925756    18A     -0.870451
      19A     -0.827250    20A     -0.791939    21A     -0.753142
      22A     -0.729154    23A     -0.707095    24A     -0.678006
      25A     -0.651714    26A     -0.651116    27A     -0.643383
      28A     -0.500753    29A     -0.484105

  @DF-RHF Final Energy:  -325.24150421823452

   => Energetics <=

    Nuclear Repulsion Energy =            353.2770014618650407
    One-Electron Energy =               -1128.8041692997073824
    Two-Electron Energy =                 450.2856636196078739
    Total Energy =                       -325.2415042182345246
  Basis Set: (AUG-CC-PVTZ AUX)
    Blend: AUG-CC-PVTZ-RI
    Molecular point group: c1

    Geometry (in Angstrom), charge = 1, multiplicity = 1:

       Center              X                  Y                   Z               Mass
    ------------   -----------------  -----------------  -----------------  -----------------
         N            2.427732152150    -1.011088228348     0.009540019256    14.003074004430
         C            1.141589152150    -0.258669228348    -0.016951980744    12.000000000000
         C           -1.258396847850    -0.301378228348     0.011351019256    12.000000000000
         C           -0.039984847850    -0.991211228348     0.001028019256    12.000000000000
         C            1.193553152150     1.128436771652    -0.009327980744    12.000000000000
         C           -1.228967847850     1.102366771652     0.012855019256    12.000000000000
         C           -0.026532847850     1.808894771652     0.000146019256    12.000000000000
         C           -2.567107847850    -1.043329228348    -0.006094980744    12.000000000000
         H           -0.030895847850    -2.080835228348     0.001196019256     1.007825032230
         H            2.135777152150     1.672890771652    -0.016728980744     1.007825032230
         H           -2.168059847850     1.650944771652     0.021411019256     1.007825032230
         H           -0.032765147850     2.894910071652    -0.049832880744     1.007825032230
         H            3.186829152150    -0.466417228348    -0.423023980744     1.007825032230
         H            2.721307152150    -1.240637228348     0.970100019256     1.007825032230
         H            2.354459152150    -1.896478228348    -0.510768980744     1.007825032230
         H           -2.431564847850    -2.099636228348     0.237465019256     1.007825032230
         H           -3.265358847850    -0.613003228348     0.716263019256     1.007825032230
         H           -3.030874847850    -0.980006228348    -0.995345980744     1.007825032230

  Basis Set: AUG-CC-PVTZ
    Blend: AUG-CC-PVTZ
  Basis Set: (AUG-CC-PVTZ AUX)
    Blend: AUG-CC-PVTZ-JKFIT
	 Reference Energy          =    -325.2415042182345246 [Eh]
	 Singles Energy            =      -0.0000000000000000 [Eh]
	 Same-Spin Energy          =      -0.3530804589611762 [Eh]
	 Opposite-Spin Energy      =      -1.1489668732014273 [Eh]
	 Correlation Energy        =      -1.5020473321626036 [Eh]
	 Total Energy              =    -326.7435515503971146 [Eh]

	 ================> DF-SCS-MP2 Energies <==================
	-----------------------------------------------------------
	 SCS Same-Spin Scale       =       0.3333333333333333 [-]
	 SCS Opposite-Spin Scale   =       1.2000000000000000 [-]
	 SCS Same-Spin Energy      =      -0.1176934863203921 [Eh]
	 SCS Opposite-Spin Energy  =      -1.3787602478417127 [Eh]
	 SCS Correlation Energy    =      -1.4964537341621047 [Eh]
	 SCS Total Energy          =    -326.7379579523966413 [Eh]
	-----------------------------------------------------------

  Dipole Moment: [D]
     X:     7.2828      Y:    -3.2040      Z:     0.0115     Total:     7.9564

*** Psi4 exiting successfully. Buy a developer a beer!
