                               Psi4 1.3.2 release

  ==> Input File <==

--------------------------------------------------------------------------
#psi4
#
memory 32 gb

molecule  {
0 1
 Cl        1.2258420     0.0000130    -0.0722650
  C       -0.6042184     0.0000109     0.4354483
  C       -1.1723130    -1.2630170    -0.1035850
  C       -1.1723440     1.2629730    -0.1036980
  H       -0.4998300     0.0000750     1.5011250
  H       -0.6755810    -2.1546730     0.2828190
  H       -2.2185910    -1.2788520     0.2166160
  H       -1.1404100    -1.2929320    -1.1952960
  H       -0.6756180     2.1546720     0.2826010
  H       -2.2185470     1.2788410     0.2165190
  H       -1.1404690     1.2927960    -1.1954080
units angstrom
no_reorient  #important for SAPT in psi4, default
symmetry c1  #important for SAPT in psi4, default
}

set PROPERTIES_ORIGIN ["COM"]
properties('MP2/aug-cc-pvtz', properties = ['dipole'])
--------------------------------------------------------------------------

    Molecular point group: c1
  Charge       = 0
  Multiplicity = 1
  Basis Set: AUG-CC-PVTZ
    Blend: AUG-CC-PVTZ
  Basis Set: (AUG-CC-PVTZ AUX)
    Blend: AUG-CC-PVTZ-JKFIT

    Orbital Energies [Eh]
    ---------------------

    Doubly Occupied:

       1A   -104.801873     2A    -11.304732     3A    -11.233690
       4A    -11.233671     5A    -10.526173     6A     -7.992758
       7A     -7.991286     8A     -7.991283     9A     -1.137931
      10A     -1.015428    11A     -0.961793    12A     -0.804881
      13A     -0.655739    14A     -0.621415    15A     -0.592592
      16A     -0.561216    17A     -0.524649    18A     -0.522952
      19A     -0.463191    20A     -0.422950    21A     -0.421471

  @DF-RHF Final Energy:  -577.24644352026053

   => Energetics <=

    Nuclear Repulsion Energy =            165.6707563763538360
    One-Electron Energy =               -1122.2710473140791692
    Two-Electron Energy =                 379.3538474174647490
    Total Energy =                       -577.2464435202605273
  Basis Set: (AUG-CC-PVTZ AUX)
    Blend: AUG-CC-PVTZ-RI
    Molecular point group: c1

    Geometry (in Angstrom), charge = 0, multiplicity = 1:

       Center              X                  Y                   Z               Mass
    ------------   -----------------  -----------------  -----------------  -----------------
         CL           1.240662069032     0.000013207324    -0.076376423812    34.968852682000
         C           -0.589398330968     0.000011107324     0.431336876188    12.000000000000
         C           -1.157492930968    -1.263016792676    -0.107696423812    12.000000000000
         C           -1.157523930968     1.262973207324    -0.107809423812    12.000000000000
         H           -0.485009930968     0.000075207324     1.497013576188     1.007825032230
         H           -0.660760930968    -2.154672792676     0.278707576188     1.007825032230
         H           -2.203770930968    -1.278851792676     0.212504576188     1.007825032230
         H           -1.125589930968    -1.292931792676    -1.199407423812     1.007825032230
         H           -0.660797930968     2.154672207324     0.278489576188     1.007825032230
         H           -2.203726930968     1.278841207324     0.212407576188     1.007825032230
         H           -1.125648930968     1.292796207324    -1.199519423812     1.007825032230

  Basis Set: AUG-CC-PVTZ
    Blend: AUG-CC-PVTZ
  Basis Set: (AUG-CC-PVTZ AUX)
    Blend: AUG-CC-PVTZ-JKFIT
	 Reference Energy          =    -577.2464435202605273 [Eh]
	 Singles Energy            =      -0.0000000000000000 [Eh]
	 Same-Spin Energy          =      -0.1861539016800182 [Eh]
	 Opposite-Spin Energy      =      -0.6444240470357951 [Eh]
	 Correlation Energy        =      -0.8305779487158134 [Eh]
	 Total Energy              =    -578.0770214689763407 [Eh]

	 ================> DF-SCS-MP2 Energies <==================
	-----------------------------------------------------------
	 SCS Same-Spin Scale       =       0.3333333333333333 [-]
	 SCS Opposite-Spin Scale   =       1.2000000000000000 [-]
	 SCS Same-Spin Energy      =      -0.0620513005600061 [Eh]
	 SCS Opposite-Spin Energy  =      -0.7733088564429541 [Eh]
	 SCS Correlation Energy    =      -0.8353601570029602 [Eh]
	 SCS Total Energy          =    -578.0818036772634514 [Eh]
	-----------------------------------------------------------

  Dipole Moment: [D]
     X:    -2.5197      Y:     0.0000      Z:     0.5209     Total:     2.5730

*** Psi4 exiting successfully. Buy a developer a beer!
