                               Psi4 1.3.2 release

  ==> Input File <==

--------------------------------------------------------------------------
#psi4
#
memory 32 gb

molecule  {
0 1
 Cl        1.2258420     0.0000130    -0.0722650
  C       -0.5078580     0.0000110     0.4087150
  C       -1.1896677    -1.2481817    -0.1169673
  C       -1.1896983     1.2481361    -0.1170789
  H       -0.4998300     0.0000750     1.5011250
  H       -0.6755810    -2.1546730     0.2828190
  H       -2.2185910    -1.2788520     0.2166160
  H       -1.1404100    -1.2929320    -1.1952960
  H       -0.6756180     2.1546720     0.2826010
  H       -2.2185470     1.2788410     0.2165190
  H       -1.1404690     1.2927960    -1.1954080
units angstrom
no_reorient  #important for SAPT in psi4, default
symmetry c1  #important for SAPT in psi4, default
}

set PROPERTIES_ORIGIN ["COM"]
properties('MP2/aug-cc-pvtz', properties = ['dipole'])
--------------------------------------------------------------------------

    Molecular point group: c1
  Charge       = 0
  Multiplicity = 1
  Basis Set: AUG-CC-PVTZ
    Blend: AUG-CC-PVTZ
  Basis Set: (AUG-CC-PVTZ AUX)
    Blend: AUG-CC-PVTZ-JKFIT

    Orbital Energies [Eh]
    ---------------------

    Doubly Occupied:

       1A   -104.816390     2A    -11.297679     3A    -11.229668
       4A    -11.229651     5A    -10.541077     6A     -8.007845
       7A     -8.006140     8A     -8.006136     9A     -1.147513
      10A     -1.017944    11A     -0.949706    12A     -0.798665
      13A     -0.650501    14A     -0.611171    15A     -0.590235
      16A     -0.561261    17A     -0.519649    18A     -0.498902
      19A     -0.494556    20A     -0.428548    21A     -0.427921

  @DF-RHF Final Energy:  -577.24919060746038

   => Energetics <=

    Nuclear Repulsion Energy =            166.5539272823992576
    One-Electron Energy =               -1123.9439184302889316
    Two-Electron Energy =                 380.1408005404292680
    Total Energy =                       -577.2491906074603776
  Basis Set: (AUG-CC-PVTZ AUX)
    Blend: AUG-CC-PVTZ-RI
    Molecular point group: c1

    Geometry (in Angstrom), charge = 0, multiplicity = 1:

       Center              X                  Y                   Z               Mass
    ------------   -----------------  -----------------  -----------------  -----------------
         CL           1.231180110556     0.000013438023    -0.068148685404    34.968852682000
         C           -0.502519889444     0.000011438023     0.412831314596    12.000000000000
         C           -1.184329589444    -1.248181261977    -0.112850985404    12.000000000000
         C           -1.184360189444     1.248136538023    -0.112962585404    12.000000000000
         H           -0.494491889444     0.000075438023     1.505241314596     1.007825032230
         H           -0.670242889444    -2.154672561977     0.286935314596     1.007825032230
         H           -2.213252889444    -1.278851561977     0.220732314596     1.007825032230
         H           -1.135071889444    -1.292931561977    -1.191179685404     1.007825032230
         H           -0.670279889444     2.154672438023     0.286717314596     1.007825032230
         H           -2.213208889444     1.278841438023     0.220635314596     1.007825032230
         H           -1.135130889444     1.292796438023    -1.191291685404     1.007825032230

  Basis Set: AUG-CC-PVTZ
    Blend: AUG-CC-PVTZ
  Basis Set: (AUG-CC-PVTZ AUX)
    Blend: AUG-CC-PVTZ-JKFIT
	 Reference Energy          =    -577.2491906074603776 [Eh]
	 Singles Energy            =      -0.0000000000000000 [Eh]
	 Same-Spin Energy          =      -0.1863843604675441 [Eh]
	 Opposite-Spin Energy      =      -0.6450488738270570 [Eh]
	 Correlation Energy        =      -0.8314332342946010 [Eh]
	 Total Energy              =    -578.0806238417550276 [Eh]

	 ================> DF-SCS-MP2 Energies <==================
	-----------------------------------------------------------
	 SCS Same-Spin Scale       =       0.3333333333333333 [-]
	 SCS Opposite-Spin Scale   =       1.2000000000000000 [-]
	 SCS Same-Spin Energy      =      -0.0621281201558480 [Eh]
	 SCS Opposite-Spin Energy  =      -0.7740586485924684 [Eh]
	 SCS Correlation Energy    =      -0.8361867687483164 [Eh]
	 SCS Total Energy          =    -578.0853773762087258 [Eh]
	-----------------------------------------------------------

  Dipole Moment: [D]
     X:    -2.0829      Y:     0.0000      Z:     0.4618     Total:     2.1335

*** Psi4 exiting successfully. Buy a developer a beer!
