                               Psi4 1.4a3.dev225

  ==> Input File <==

--------------------------------------------------------------------------
#psi4
#
memory 32 gb

molecule  {
0 1
 Cl        1.3436760     0.0000000    -0.0570310
  C       -0.3997810     0.0000000     0.4022540
  C       -1.0564130    -1.2654060    -0.1197220
  C       -1.0564130     1.2654060    -0.1197220
  H       -0.4037926     0.0000000     1.4449594
  H       -0.5598110    -2.1568730     0.2689710
  H       -2.1057750    -1.2863280     0.1915640
  H       -1.0158470    -1.2927240    -1.2116860
  H       -0.5598100     2.1568730     0.2689710
  H       -2.1057740     1.2863280     0.1915650
  H       -1.0158470     1.2927230    -1.2116860
units angstrom
no_reorient  #important for SAPT in psi4, default
symmetry c1  #important for SAPT in psi4, default
}

set PROPERTIES_ORIGIN ["COM"]
properties('MP2/aug-cc-pvtz', properties = ['dipole'])
--------------------------------------------------------------------------

    Molecular point group: c1
  Charge       = 0
  Multiplicity = 1
  Basis Set: AUG-CC-PVTZ
    Blend: AUG-CC-PVTZ
  Basis Set: (AUG-CC-PVTZ AUX)
    Blend: AUG-CC-PVTZ-JKFIT

    Orbital Energies [Eh]
    ---------------------

    Doubly Occupied:

       1A   -104.814836     2A    -11.292696     3A    -11.230418
       4A    -11.230403     5A    -10.539567     6A     -8.006326
       7A     -8.004638     8A     -8.004630     9A     -1.147708
      10A     -1.016318    11A     -0.951105    12A     -0.806543
      13A     -0.651751    14A     -0.614124    15A     -0.589524
      16A     -0.554267    17A     -0.520055    18A     -0.510897
      19A     -0.491459    20A     -0.428628    21A     -0.427077

  @DF-RHF Final Energy:  -577.25012184914192

   => Energetics <=

    Nuclear Repulsion Energy =            166.6038882870996076
    One-Electron Energy =               -1124.0420773239384289
    Two-Electron Energy =                 380.1880671876968449
    Total Energy =                       -577.2501218491420332
  Basis Set: (AUG-CC-PVTZ AUX)
    Blend: AUG-CC-PVTZ-RI
    Molecular point group: c1

    Geometry (in Angstrom), charge = 0, multiplicity = 1:

       Center              X                  Y                   Z               Mass
    ------------   -----------------  -----------------  -----------------  -----------------
         CL           1.228222599540     0.000000012917    -0.055770113525    34.968852682000
         C           -0.515234400460     0.000000012917     0.403514886475    12.000000000000
         C           -1.171866400460    -1.265405987083    -0.118461113525    12.000000000000
         C           -1.171866400460     1.265406012917    -0.118461113525    12.000000000000
         H           -0.519246000460     0.000000012917     1.446220286475     1.007825032230
         H           -0.675264400460    -2.156872987083     0.270231886475     1.007825032230
         H           -2.221228400460    -1.286327987083     0.192824886475     1.007825032230
         H           -1.131300400460    -1.292723987083    -1.210425113525     1.007825032230
         H           -0.675263400460     2.156873012917     0.270231886475     1.007825032230
         H           -2.221227400460     1.286328012917     0.192825886475     1.007825032230
         H           -1.131300400460     1.292723012917    -1.210425113525     1.007825032230

  Basis Set: AUG-CC-PVTZ
    Blend: AUG-CC-PVTZ
  Basis Set: (AUG-CC-PVTZ AUX)
    Blend: AUG-CC-PVTZ-JKFIT
	 Reference Energy          =    -577.2501218491419195 [Eh]
	 Singles Energy            =      -0.0000000000000000 [Eh]
	 Same-Spin Energy          =      -0.1861921640191470 [Eh]
	 Opposite-Spin Energy      =      -0.6445451307752872 [Eh]
	 Correlation Energy        =      -0.8307372947944341 [Eh]
	 Total Energy              =    -578.0808591439363227 [Eh]

	 ================> DF-SCS-MP2 Energies <==================
	-----------------------------------------------------------
	 SCS Same-Spin Scale       =       0.3333333333333333 [-]
	 SCS Opposite-Spin Scale   =       1.2000000000000000 [-]
	 SCS Same-Spin Energy      =      -0.0620640546730490 [Eh]
	 SCS Opposite-Spin Energy  =      -0.7734541569303446 [Eh]
	 SCS Correlation Energy    =      -0.8355182116033936 [Eh]
	 SCS Total Energy          =    -578.0856400607452770 [Eh]
	-----------------------------------------------------------

  Dipole Moment: [D]
     X:    -2.1129      Y:    -0.0000      Z:     0.4632     Total:     2.1630

*** Psi4 exiting successfully. Buy a developer a beer!
