                               Psi4 1.3.2 release

  ==> Input File <==

--------------------------------------------------------------------------
#psi4
#
memory 32 gb

molecule  {
0 1
 Cl        1.2299733     0.0000140    -0.0571175
  C       -0.5078580     0.0000110     0.4087150
  C       -1.1723130    -1.2630170    -0.1035850
  C       -1.1723440     1.2629730    -0.1036980
  H       -0.4902974     0.0000752     1.5010133
  H       -0.6755810    -2.1546730     0.2828190
  H       -2.2185910    -1.2788520     0.2166160
  H       -1.1404100    -1.2929320    -1.1952960
  H       -0.6756180     2.1546720     0.2826010
  H       -2.2185470     1.2788410     0.2165190
  H       -1.1404690     1.2927960    -1.1954080
units angstrom
no_reorient  #important for SAPT in psi4, default
symmetry c1  #important for SAPT in psi4, default
}

set PROPERTIES_ORIGIN ["COM"]
properties('MP2/aug-cc-pvtz', properties = ['dipole'])
--------------------------------------------------------------------------

    Molecular point group: c1
  Charge       = 0
  Multiplicity = 1
  Basis Set: AUG-CC-PVTZ
    Blend: AUG-CC-PVTZ
  Basis Set: (AUG-CC-PVTZ AUX)
    Blend: AUG-CC-PVTZ-JKFIT

    Orbital Energies [Eh]
    ---------------------

    Doubly Occupied:

       1A   -104.815159     2A    -11.297737     3A    -11.230409
       4A    -11.230391     5A    -10.539945     6A     -8.006711
       7A     -8.005009     8A     -8.005000     9A     -1.147305
      10A     -1.016507    11A     -0.951560    12A     -0.797949
      13A     -0.649277    14A     -0.615074    15A     -0.590028
      16A     -0.554471    17A     -0.518163    18A     -0.511286
      19A     -0.490651    20A     -0.427424    21A     -0.426988

  @DF-RHF Final Energy:  -577.25091466209051

   => Energetics <=

    Nuclear Repulsion Energy =            166.4994386273524754
    One-Electron Energy =               -1123.8466195790142592
    Two-Electron Energy =                 380.0962662895713038
    Total Energy =                       -577.2509146620905085
  Basis Set: (AUG-CC-PVTZ AUX)
    Blend: AUG-CC-PVTZ-RI
    Molecular point group: c1

    Geometry (in Angstrom), charge = 0, multiplicity = 1:

       Center              X                  Y                   Z               Mass
    ------------   -----------------  -----------------  -----------------  -----------------
         CL           1.227998471779     0.000013741177    -0.063904760959    34.968852682000
         C           -0.509832828221     0.000010741177     0.401927739041    12.000000000000
         C           -1.174287828221    -1.263017258823    -0.110372260959    12.000000000000
         C           -1.174318828221     1.262972741177    -0.110485260959    12.000000000000
         H           -0.492272228221     0.000074941177     1.494226039041     1.007825032230
         H           -0.677555828221    -2.154673258823     0.276031739041     1.007825032230
         H           -2.220565828221    -1.278852258823     0.209828739041     1.007825032230
         H           -1.142384828221    -1.292932258823    -1.202083260959     1.007825032230
         H           -0.677592828221     2.154671741177     0.275813739041     1.007825032230
         H           -2.220521828221     1.278840741177     0.209731739041     1.007825032230
         H           -1.142443828221     1.292795741177    -1.202195260959     1.007825032230

  Basis Set: AUG-CC-PVTZ
    Blend: AUG-CC-PVTZ
  Basis Set: (AUG-CC-PVTZ AUX)
    Blend: AUG-CC-PVTZ-JKFIT
	 Reference Energy          =    -577.2509146620905085 [Eh]
	 Singles Energy            =      -0.0000000000000000 [Eh]
	 Same-Spin Energy          =      -0.1863302538968808 [Eh]
	 Opposite-Spin Energy      =      -0.6448652050719736 [Eh]
	 Correlation Energy        =      -0.8311954589688545 [Eh]
	 Total Energy              =    -578.0821101210593724 [Eh]

	 ================> DF-SCS-MP2 Energies <==================
	-----------------------------------------------------------
	 SCS Same-Spin Scale       =       0.3333333333333333 [-]
	 SCS Opposite-Spin Scale   =       1.2000000000000000 [-]
	 SCS Same-Spin Energy      =      -0.0621100846322936 [Eh]
	 SCS Opposite-Spin Energy  =      -0.7738382460863683 [Eh]
	 SCS Correlation Energy    =      -0.8359483307186619 [Eh]
	 SCS Total Energy          =    -578.0868629928091877 [Eh]
	-----------------------------------------------------------

  Dipole Moment: [D]
     X:    -2.0975      Y:     0.0000      Z:     0.4593     Total:     2.1472

*** Psi4 exiting successfully. Buy a developer a beer!
