                               Psi4 1.3.2 release

  ==> Input File <==

--------------------------------------------------------------------------
#psi4
#
memory 32 gb

molecule  {
0 1
 Cl        1.2277458     0.0138771    -0.0651463
  C       -0.5078580     0.0000110     0.4087150
  C       -1.1837642    -1.2590905    -0.0982423
  C       -1.1723440     1.2629730    -0.1036980
  H       -0.4998300     0.0000750     1.5011250
  H       -0.6755810    -2.1546730     0.2828190
  H       -2.2185910    -1.2788520     0.2166160
  H       -1.1404100    -1.2929320    -1.1952960
  H       -0.6756180     2.1546720     0.2826010
  H       -2.2185470     1.2788410     0.2165190
  H       -1.1404690     1.2927960    -1.1954080
units angstrom
no_reorient  #important for SAPT in psi4, default
symmetry c1  #important for SAPT in psi4, default
}

set PROPERTIES_ORIGIN ["COM"]
properties('MP2/aug-cc-pvtz', properties = ['dipole'])
--------------------------------------------------------------------------

    Molecular point group: c1
  Charge       = 0
  Multiplicity = 1
  Basis Set: AUG-CC-PVTZ
    Blend: AUG-CC-PVTZ
  Basis Set: (AUG-CC-PVTZ AUX)
    Blend: AUG-CC-PVTZ-JKFIT

    Orbital Energies [Eh]
    ---------------------

    Doubly Occupied:

       1A   -104.815859     2A    -11.297636     3A    -11.230405
       4A    -11.229878     5A    -10.540583     6A     -8.007350
       7A     -8.005648     8A     -8.005640     9A     -1.147287
      10A     -1.016979    11A     -0.951208    12A     -0.797767
      13A     -0.649274    14A     -0.615193    15A     -0.590552
      16A     -0.554487    17A     -0.516477    18A     -0.509585
      19A     -0.492405    20A     -0.428043    21A     -0.427327

  @DF-RHF Final Energy:  -577.25065262661008

   => Energetics <=

    Nuclear Repulsion Energy =            166.4896681262139566
    One-Electron Energy =               -1123.8214778710755581
    Two-Electron Energy =                 380.0811571182515536
    Total Energy =                       -577.2506526266100764
  Basis Set: (AUG-CC-PVTZ AUX)
    Blend: AUG-CC-PVTZ-RI
    Molecular point group: c1

    Geometry (in Angstrom), charge = 0, multiplicity = 1:

       Center              X                  Y                   Z               Mass
    ------------   -----------------  -----------------  -----------------  -----------------
         CL           1.228653620514     0.007059745968    -0.069158338169    34.968852682000
         C           -0.506950179486    -0.006806354032     0.404702961831    12.000000000000
         C           -1.182856379486    -1.265907854032    -0.102254338169    12.000000000000
         C           -1.171436179486     1.256155645968    -0.107710038169    12.000000000000
         H           -0.498922179486    -0.006742354032     1.497112961831     1.007825032230
         H           -0.674673179486    -2.161490354032     0.278806961831     1.007825032230
         H           -2.217683179486    -1.285669354032     0.212603961831     1.007825032230
         H           -1.139502179486    -1.299749354032    -1.199308038169     1.007825032230
         H           -0.674710179486     2.147854645968     0.278588961831     1.007825032230
         H           -2.217639179486     1.272023645968     0.212506961831     1.007825032230
         H           -1.139561179486     1.285978645968    -1.199420038169     1.007825032230

  Basis Set: AUG-CC-PVTZ
    Blend: AUG-CC-PVTZ
  Basis Set: (AUG-CC-PVTZ AUX)
    Blend: AUG-CC-PVTZ-JKFIT
	 Reference Energy          =    -577.2506526266100764 [Eh]
	 Singles Energy            =      -0.0000000000000000 [Eh]
	 Same-Spin Energy          =      -0.1863419574746737 [Eh]
	 Opposite-Spin Energy      =      -0.6449197587366435 [Eh]
	 Correlation Energy        =      -0.8312617162113172 [Eh]
	 Total Energy              =    -578.0819143428213920 [Eh]

	 ================> DF-SCS-MP2 Energies <==================
	-----------------------------------------------------------
	 SCS Same-Spin Scale       =       0.3333333333333333 [-]
	 SCS Opposite-Spin Scale   =       1.2000000000000000 [-]
	 SCS Same-Spin Energy      =      -0.0621139858248912 [Eh]
	 SCS Opposite-Spin Energy  =      -0.7739037104839722 [Eh]
	 SCS Correlation Energy    =      -0.8360176963088635 [Eh]
	 SCS Total Energy          =    -578.0866703229189625 [Eh]
	-----------------------------------------------------------

  Dipole Moment: [D]
     X:    -2.0875      Y:    -0.0136      Z:     0.4674     Total:     2.1392

*** Psi4 exiting successfully. Buy a developer a beer!
