                               Psi4 1.3.2 release

  ==> Input File <==

--------------------------------------------------------------------------
#psi4
#
memory 32 gb

molecule  {
0 1
 Cl        1.2079999     0.0000092    -0.1324773
  C       -0.5078580     0.0000110     0.4087150
  C       -1.1723130    -1.2630170    -0.1035850
  C       -1.1723440     1.2629730    -0.1036980
  H       -0.5379594     0.0000743     1.5007397
  H       -0.6755810    -2.1546730     0.2828190
  H       -2.2185910    -1.2788520     0.2166160
  H       -1.1404100    -1.2929320    -1.1952960
  H       -0.6756180     2.1546720     0.2826010
  H       -2.2185470     1.2788410     0.2165190
  H       -1.1404690     1.2927960    -1.1954080
units angstrom
no_reorient  #important for SAPT in psi4, default
symmetry c1  #important for SAPT in psi4, default
}

set PROPERTIES_ORIGIN ["COM"]
properties('MP2/aug-cc-pvtz', properties = ['dipole'])
--------------------------------------------------------------------------

    Molecular point group: c1
  Charge       = 0
  Multiplicity = 1
  Basis Set: AUG-CC-PVTZ
    Blend: AUG-CC-PVTZ
  Basis Set: (AUG-CC-PVTZ AUX)
    Blend: AUG-CC-PVTZ-JKFIT

    Orbital Energies [Eh]
    ---------------------

    Doubly Occupied:

       1A   -104.816437     2A    -11.297807     3A    -11.229514
       4A    -11.229496     5A    -10.541140     6A     -8.007903
       7A     -8.006198     8A     -8.006197     9A     -1.147970
      10A     -1.016183    11A     -0.951180    12A     -0.797708
      13A     -0.650281    14A     -0.614294    15A     -0.589724
      16A     -0.554328    17A     -0.513951    18A     -0.510949
      19A     -0.493048    20A     -0.428708    21A     -0.427435

  @DF-RHF Final Energy:  -577.25009952045264

   => Energetics <=

    Nuclear Repulsion Energy =            166.8317367216034484
    One-Electron Energy =               -1124.5027706945832051
    Two-Electron Energy =                 380.4209344525270922
    Total Energy =                       -577.2500995204527499
  Basis Set: (AUG-CC-PVTZ AUX)
    Blend: AUG-CC-PVTZ-RI
    Molecular point group: c1

    Geometry (in Angstrom), charge = 0, multiplicity = 1:

       Center              X                  Y                   Z               Mass
    ------------   -----------------  -----------------  -----------------  -----------------
         CL           1.216488819315     0.000011104080    -0.105486056217    34.968852682000
         C           -0.499369080685     0.000012904080     0.435706243783    12.000000000000
         C           -1.163824080685    -1.263015095920    -0.076593756217    12.000000000000
         C           -1.163855080685     1.262974904080    -0.076706756217    12.000000000000
         H           -0.529470480685     0.000076204080     1.527730943783     1.007825032230
         H           -0.667092080685    -2.154671095920     0.309810243783     1.007825032230
         H           -2.210102080685    -1.278850095920     0.243607243783     1.007825032230
         H           -1.131921080685    -1.292930095920    -1.168304756217     1.007825032230
         H           -0.667129080685     2.154673904080     0.309592243783     1.007825032230
         H           -2.210058080685     1.278842904080     0.243510243783     1.007825032230
         H           -1.131980080685     1.292797904080    -1.168416756217     1.007825032230

  Basis Set: AUG-CC-PVTZ
    Blend: AUG-CC-PVTZ
  Basis Set: (AUG-CC-PVTZ AUX)
    Blend: AUG-CC-PVTZ-JKFIT
	 Reference Energy          =    -577.2500995204526362 [Eh]
	 Singles Energy            =      -0.0000000000000000 [Eh]
	 Same-Spin Energy          =      -0.1864338531098642 [Eh]
	 Opposite-Spin Energy      =      -0.6450960006241757 [Eh]
	 Correlation Energy        =      -0.8315298537340399 [Eh]
	 Total Energy              =    -578.0816293741867185 [Eh]

	 ================> DF-SCS-MP2 Energies <==================
	-----------------------------------------------------------
	 SCS Same-Spin Scale       =       0.3333333333333333 [-]
	 SCS Opposite-Spin Scale   =       1.2000000000000000 [-]
	 SCS Same-Spin Energy      =      -0.0621446177032881 [Eh]
	 SCS Opposite-Spin Energy  =      -0.7741152007490109 [Eh]
	 SCS Correlation Energy    =      -0.8362598184522989 [Eh]
	 SCS Total Energy          =    -578.0863593389049129 [Eh]
	-----------------------------------------------------------

  Dipole Moment: [D]
     X:    -2.0501      Y:     0.0000      Z:     0.5178     Total:     2.1145

*** Psi4 exiting successfully. Buy a developer a beer!
