                               Psi4 1.3.2 release

  ==> Input File <==

--------------------------------------------------------------------------
#psi4
#
memory 32 gb

molecule  {
0 1
 Cl        1.2258420     0.0000130    -0.0722650
  C       -0.5078580     0.0000110     0.4087150
  C       -1.2068147    -1.2329663    -0.1301895
  C       -1.2068449     1.2329191    -0.1302997
  H       -0.4998300     0.0000750     1.5011250
  H       -0.6755810    -2.1546730     0.2828190
  H       -2.2185910    -1.2788520     0.2166160
  H       -1.1404100    -1.2929320    -1.1952960
  H       -0.6756180     2.1546720     0.2826010
  H       -2.2185470     1.2788410     0.2165190
  H       -1.1404690     1.2927960    -1.1954080
units angstrom
no_reorient  #important for SAPT in psi4, default
symmetry c1  #important for SAPT in psi4, default
}

set PROPERTIES_ORIGIN ["COM"]
properties('MP2/aug-cc-pvtz', properties = ['dipole'])
--------------------------------------------------------------------------

    Molecular point group: c1
  Charge       = 0
  Multiplicity = 1
  Basis Set: AUG-CC-PVTZ
    Blend: AUG-CC-PVTZ
  Basis Set: (AUG-CC-PVTZ AUX)
    Blend: AUG-CC-PVTZ-JKFIT

    Orbital Energies [Eh]
    ---------------------

    Doubly Occupied:

       1A   -104.817425     2A    -11.297821     3A    -11.229449
       4A    -11.229432     5A    -10.542033     6A     -8.008804
       7A     -8.007095     8A     -8.007095     9A     -1.147773
      10A     -1.019638    11A     -0.948199    12A     -0.799748
      13A     -0.652899    14A     -0.607296    15A     -0.590401
      16A     -0.568035    17A     -0.521194    18A     -0.497685
      19A     -0.486735    20A     -0.429721    21A     -0.428289

  @DF-RHF Final Energy:  -577.24439336184275

   => Energetics <=

    Nuclear Repulsion Energy =            166.5532616151895979
    One-Electron Energy =               -1123.9217721307913962
    Two-Electron Energy =                 380.1241171537590162
    Total Energy =                       -577.2443933618427536
  Basis Set: (AUG-CC-PVTZ AUX)
    Blend: AUG-CC-PVTZ-RI
    Molecular point group: c1

    Geometry (in Angstrom), charge = 0, multiplicity = 1:

       Center              X                  Y                   Z               Mass
    ------------   -----------------  -----------------  -----------------  -----------------
         CL           1.236454451304     0.000013684102    -0.064081763518    34.968852682000
         C           -0.497245548696     0.000011684102     0.416898236482    12.000000000000
         C           -1.196202248696    -1.232965615898    -0.122006263518    12.000000000000
         C           -1.196232448696     1.232919784102    -0.122116463518    12.000000000000
         H           -0.489217548696     0.000075684102     1.509308236482     1.007825032230
         H           -0.664968548696    -2.154672315898     0.291002236482     1.007825032230
         H           -2.207978548696    -1.278851315898     0.224799236482     1.007825032230
         H           -1.129797548696    -1.292931315898    -1.187112763518     1.007825032230
         H           -0.665005548696     2.154672684102     0.290784236482     1.007825032230
         H           -2.207934548696     1.278841684102     0.224702236482     1.007825032230
         H           -1.129856548696     1.292796684102    -1.187224763518     1.007825032230

  Basis Set: AUG-CC-PVTZ
    Blend: AUG-CC-PVTZ
  Basis Set: (AUG-CC-PVTZ AUX)
    Blend: AUG-CC-PVTZ-JKFIT
	 Reference Energy          =    -577.2443933618427536 [Eh]
	 Singles Energy            =      -0.0000000000000000 [Eh]
	 Same-Spin Energy          =      -0.1864856536375809 [Eh]
	 Opposite-Spin Energy      =      -0.6453632982923170 [Eh]
	 Correlation Energy        =      -0.8318489519298978 [Eh]
	 Total Energy              =    -578.0762423137726955 [Eh]

	 ================> DF-SCS-MP2 Energies <==================
	-----------------------------------------------------------
	 SCS Same-Spin Scale       =       0.3333333333333333 [-]
	 SCS Opposite-Spin Scale   =       1.2000000000000000 [-]
	 SCS Same-Spin Energy      =      -0.0621618845458603 [Eh]
	 SCS Opposite-Spin Energy  =      -0.7744359579507804 [Eh]
	 SCS Correlation Energy    =      -0.8365978424966406 [Eh]
	 SCS Total Energy          =    -578.0809912043393979 [Eh]
	-----------------------------------------------------------

  Dipole Moment: [D]
     X:    -2.0769      Y:     0.0000      Z:     0.4516     Total:     2.1254

*** Psi4 exiting successfully. Buy a developer a beer!
