                               Psi4 1.3.2 release

  ==> Input File <==

--------------------------------------------------------------------------
#psi4
#
memory 32 gb

molecule  {
0 1
 Cl        1.2238061    -0.0138511    -0.0793471
  C       -0.5078580     0.0000110     0.4087150
  C       -1.1608112    -1.2668474    -0.1088886
  C       -1.1723440     1.2629730    -0.1036980
  H       -0.4998300     0.0000750     1.5011250
  H       -0.6755810    -2.1546730     0.2828190
  H       -2.2185910    -1.2788520     0.2166160
  H       -1.1404100    -1.2929320    -1.1952960
  H       -0.6756180     2.1546720     0.2826010
  H       -2.2185470     1.2788410     0.2165190
  H       -1.1404690     1.2927960    -1.1954080
units angstrom
no_reorient  #important for SAPT in psi4, default
symmetry c1  #important for SAPT in psi4, default
}

set PROPERTIES_ORIGIN ["COM"]
properties('MP2/aug-cc-pvtz', properties = ['dipole'])
--------------------------------------------------------------------------

    Molecular point group: c1
  Charge       = 0
  Multiplicity = 1
  Basis Set: AUG-CC-PVTZ
    Blend: AUG-CC-PVTZ
  Basis Set: (AUG-CC-PVTZ AUX)
    Blend: AUG-CC-PVTZ-JKFIT

    Orbital Energies [Eh]
    ---------------------

    Doubly Occupied:

       1A   -104.814975     2A    -11.297903     3A    -11.230563
       4A    -11.230114     5A    -10.539788     6A     -8.006551
       7A     -8.004850     8A     -8.004844     9A     -1.147578
      10A     -1.015920    11A     -0.951781    12A     -0.798095
      13A     -0.649809    14A     -0.614617    15A     -0.589636
      16A     -0.554247    17A     -0.518243    18A     -0.512674
      19A     -0.489792    20A     -0.427486    21A     -0.426699

  @DF-RHF Final Energy:  -577.25068784777534

   => Energetics <=

    Nuclear Repulsion Energy =            166.6402669967588395
    One-Electron Energy =               -1124.1295801959563505
    Two-Electron Energy =                 380.2386253514222290
    Total Energy =                       -577.2506878477753389
  Basis Set: (AUG-CC-PVTZ AUX)
    Blend: AUG-CC-PVTZ-RI
    Molecular point group: c1

    Geometry (in Angstrom), charge = 0, multiplicity = 1:

       Center              X                  Y                   Z               Mass
    ------------   -----------------  -----------------  -----------------  -----------------
         CL           1.222949465120    -0.007048142219    -0.075357186710    34.968852682000
         C           -0.508714634880     0.006813957781     0.412704913290    12.000000000000
         C           -1.161667834880    -1.260044442219    -0.104898686710    12.000000000000
         C           -1.173200634880     1.269775957781    -0.099708086710    12.000000000000
         H           -0.500686634880     0.006877957781     1.505114913290     1.007825032230
         H           -0.676437634880    -2.147870042219     0.286808913290     1.007825032230
         H           -2.219447634880    -1.272049042219     0.220605913290     1.007825032230
         H           -1.141266634880    -1.286129042219    -1.191306086710     1.007825032230
         H           -0.676474634880     2.161474957781     0.286590913290     1.007825032230
         H           -2.219403634880     1.285643957781     0.220508913290     1.007825032230
         H           -1.141325634880     1.299598957781    -1.191418086710     1.007825032230

  Basis Set: AUG-CC-PVTZ
    Blend: AUG-CC-PVTZ
  Basis Set: (AUG-CC-PVTZ AUX)
    Blend: AUG-CC-PVTZ-JKFIT
	 Reference Energy          =    -577.2506878477753389 [Eh]
	 Singles Energy            =      -0.0000000000000000 [Eh]
	 Same-Spin Energy          =      -0.1863549619635286 [Eh]
	 Opposite-Spin Energy      =      -0.6449018082823883 [Eh]
	 Correlation Energy        =      -0.8312567702459169 [Eh]
	 Total Energy              =    -578.0819446180212253 [Eh]

	 ================> DF-SCS-MP2 Energies <==================
	-----------------------------------------------------------
	 SCS Same-Spin Scale       =       0.3333333333333333 [-]
	 SCS Opposite-Spin Scale   =       1.2000000000000000 [-]
	 SCS Same-Spin Energy      =      -0.0621183206545095 [Eh]
	 SCS Opposite-Spin Energy  =      -0.7738821699388659 [Eh]
	 SCS Correlation Energy    =      -0.8360004905933754 [Eh]
	 SCS Total Energy          =    -578.0866883383687309 [Eh]
	-----------------------------------------------------------

  Dipole Moment: [D]
     X:    -2.0878      Y:     0.0144      Z:     0.4754     Total:     2.1413

*** Psi4 exiting successfully. Buy a developer a beer!
