                               Psi4 1.4a3.dev225

  ==> Input File <==

--------------------------------------------------------------------------
#psi4
#
memory 32 gb

molecule  {
0 1
 Cl        1.3436760     0.0000000    -0.0570310
  C       -0.3997810     0.0000000     0.4022540
  C       -1.0477628    -1.2487360    -0.1128457
  C       -1.0564130     1.2654060    -0.1197220
  H       -0.4039850     0.0000000     1.4949590
  H       -0.5598110    -2.1568730     0.2689710
  H       -2.1057750    -1.2863280     0.1915640
  H       -1.0158470    -1.2927240    -1.2116860
  H       -0.5598100     2.1568730     0.2689710
  H       -2.1057740     1.2863280     0.1915650
  H       -1.0158470     1.2927230    -1.2116860
units angstrom
no_reorient  #important for SAPT in psi4, default
symmetry c1  #important for SAPT in psi4, default
}

set PROPERTIES_ORIGIN ["COM"]
properties('MP2/aug-cc-pvtz', properties = ['dipole'])
--------------------------------------------------------------------------

    Molecular point group: c1
  Charge       = 0
  Multiplicity = 1
  Basis Set: AUG-CC-PVTZ
    Blend: AUG-CC-PVTZ
  Basis Set: (AUG-CC-PVTZ AUX)
    Blend: AUG-CC-PVTZ-JKFIT

    Orbital Energies [Eh]
    ---------------------

    Doubly Occupied:

       1A   -104.815279     2A    -11.297874     3A    -11.231452
       4A    -11.230791     5A    -10.540015     6A     -8.006773
       7A     -8.005076     8A     -8.005069     9A     -1.148107
      10A     -1.017203    11A     -0.951257    12A     -0.798013
      13A     -0.650189    14A     -0.614481    15A     -0.591003
      16A     -0.552480    17A     -0.517866    18A     -0.509926
      19A     -0.489400    20A     -0.428400    21A     -0.427447

  @DF-RHF Final Energy:  -577.25029429653546

   => Energetics <=

    Nuclear Repulsion Energy =            166.6470747906319048
    One-Electron Energy =               -1124.1385366843021529
    Two-Electron Energy =                 380.2411675971347904
    Total Energy =                       -577.2502942965354578
  Basis Set: (AUG-CC-PVTZ AUX)
    Blend: AUG-CC-PVTZ-RI
    Molecular point group: c1

    Geometry (in Angstrom), charge = 0, multiplicity = 1:

       Center              X                  Y                   Z               Mass
    ------------   -----------------  -----------------  -----------------  -----------------
         CL           1.226894687762    -0.002563825825    -0.057473526350    34.968852682000
         C           -0.516562312238    -0.002563825825     0.401811473650    12.000000000000
         C           -1.164544112238    -1.251299825825    -0.113288226350    12.000000000000
         C           -1.173194312238     1.262842174175    -0.120164526350    12.000000000000
         H           -0.520766312238    -0.002563825825     1.494516473650     1.007825032230
         H           -0.676592312238    -2.159436825825     0.268528473650     1.007825032230
         H           -2.222556312238    -1.288891825825     0.191121473650     1.007825032230
         H           -1.132628312238    -1.295287825825    -1.212128526350     1.007825032230
         H           -0.676591312238     2.154309174175     0.268528473650     1.007825032230
         H           -2.222555312238     1.283764174175     0.191122473650     1.007825032230
         H           -1.132628312238     1.290159174175    -1.212128526350     1.007825032230

  Basis Set: AUG-CC-PVTZ
    Blend: AUG-CC-PVTZ
  Basis Set: (AUG-CC-PVTZ AUX)
    Blend: AUG-CC-PVTZ-JKFIT
	 Reference Energy          =    -577.2502942965354578 [Eh]
	 Singles Energy            =      -0.0000000000000000 [Eh]
	 Same-Spin Energy          =      -0.1864307692431760 [Eh]
	 Opposite-Spin Energy      =      -0.6450390529082435 [Eh]
	 Correlation Energy        =      -0.8314698221514194 [Eh]
	 Total Energy              =    -578.0817641186869196 [Eh]

	 ================> DF-SCS-MP2 Energies <==================
	-----------------------------------------------------------
	 SCS Same-Spin Scale       =       0.3333333333333333 [-]
	 SCS Opposite-Spin Scale   =       1.2000000000000000 [-]
	 SCS Same-Spin Energy      =      -0.0621435897477253 [Eh]
	 SCS Opposite-Spin Energy  =      -0.7740468634898922 [Eh]
	 SCS Correlation Energy    =      -0.8361904532376174 [Eh]
	 SCS Total Energy          =    -578.0864847497730352 [Eh]
	-----------------------------------------------------------

  Dipole Moment: [D]
     X:    -2.1080      Y:    -0.0052      Z:     0.4440     Total:     2.1542

*** Psi4 exiting successfully. Buy a developer a beer!
