                               Psi4 1.4a3.dev225

  ==> Input File <==

--------------------------------------------------------------------------
#psi4
#
memory 32 gb

molecule  {
0 1
 Cl        1.3436760     0.0000000    -0.0570310
  C       -0.3997810     0.0000000     0.4022540
  C       -1.0564130    -1.2654060    -0.1197220
  C       -1.0564130     1.2654060    -0.1197220
  H       -0.4039081     0.0000000     1.4749591
  H       -0.5598110    -2.1568730     0.2689710
  H       -2.1057750    -1.2863280     0.1915640
  H       -1.0158470    -1.2927240    -1.2116860
  H       -0.5598100     2.1568730     0.2689710
  H       -2.1057740     1.2863280     0.1915650
  H       -1.0158470     1.2927230    -1.2116860
units angstrom
no_reorient  #important for SAPT in psi4, default
symmetry c1  #important for SAPT in psi4, default
}

set PROPERTIES_ORIGIN ["COM"]
properties('MP2/aug-cc-pvtz', properties = ['dipole'])
--------------------------------------------------------------------------

    Molecular point group: c1
  Charge       = 0
  Multiplicity = 1
  Basis Set: AUG-CC-PVTZ
    Blend: AUG-CC-PVTZ
  Basis Set: (AUG-CC-PVTZ AUX)
    Blend: AUG-CC-PVTZ-JKFIT

    Orbital Energies [Eh]
    ---------------------

    Doubly Occupied:

       1A   -104.815060     2A    -11.296252     3A    -11.230615
       4A    -11.230600     5A    -10.539780     6A     -8.006539
       7A     -8.004848     8A     -8.004841     9A     -1.146755
      10A     -1.016083    11A     -0.951230    12A     -0.801273
      13A     -0.650049    14A     -0.614207    15A     -0.589627
      16A     -0.554344    17A     -0.518438    18A     -0.511068
      19A     -0.490916    20A     -0.427883    21A     -0.427234

  @DF-RHF Final Energy:  -577.25100911951006

   => Energetics <=

    Nuclear Repulsion Energy =            166.4461304234155250
    One-Electron Energy =               -1123.7389925451943782
    Two-Electron Energy =                 380.0418530022686809
    Total Energy =                       -577.2510091195101722
  Basis Set: (AUG-CC-PVTZ AUX)
    Blend: AUG-CC-PVTZ-RI
    Molecular point group: c1

    Geometry (in Angstrom), charge = 0, multiplicity = 1:

       Center              X                  Y                   Z               Mass
    ------------   -----------------  -----------------  -----------------  -----------------
         CL           1.228224091445     0.000000012917    -0.056157617278    34.968852682000
         C           -0.515232908555     0.000000012917     0.403127382722    12.000000000000
         C           -1.171864908555    -1.265405987083    -0.118848617278    12.000000000000
         C           -1.171864908555     1.265406012917    -0.118848617278    12.000000000000
         H           -0.519360008555     0.000000012917     1.475832482722     1.007825032230
         H           -0.675262908555    -2.156872987083     0.269844382722     1.007825032230
         H           -2.221226908555    -1.286327987083     0.192437382722     1.007825032230
         H           -1.131298908555    -1.292723987083    -1.210812617278     1.007825032230
         H           -0.675261908555     2.156873012917     0.269844382722     1.007825032230
         H           -2.221225908555     1.286328012917     0.192438382722     1.007825032230
         H           -1.131298908555     1.292723012917    -1.210812617278     1.007825032230

  Basis Set: AUG-CC-PVTZ
    Blend: AUG-CC-PVTZ
  Basis Set: (AUG-CC-PVTZ AUX)
    Blend: AUG-CC-PVTZ-JKFIT
	 Reference Energy          =    -577.2510091195100586 [Eh]
	 Singles Energy            =      -0.0000000000000000 [Eh]
	 Same-Spin Energy          =      -0.1862354100288775 [Eh]
	 Opposite-Spin Energy      =      -0.6447350364122270 [Eh]
	 Correlation Energy        =      -0.8309704464411045 [Eh]
	 Total Energy              =    -578.0819795659512010 [Eh]

	 ================> DF-SCS-MP2 Energies <==================
	-----------------------------------------------------------
	 SCS Same-Spin Scale       =       0.3333333333333333 [-]
	 SCS Opposite-Spin Scale   =       1.2000000000000000 [-]
	 SCS Same-Spin Energy      =      -0.0620784700096258 [Eh]
	 SCS Opposite-Spin Energy  =      -0.7736820436946723 [Eh]
	 SCS Correlation Energy    =      -0.8357605137042982 [Eh]
	 SCS Total Energy          =    -578.0867696332143169 [Eh]
	-----------------------------------------------------------

  Dipole Moment: [D]
     X:    -2.1087      Y:    -0.0000      Z:     0.4531     Total:     2.1568

*** Psi4 exiting successfully. Buy a developer a beer!
