                               Psi4 1.3.2 release

  ==> Input File <==

--------------------------------------------------------------------------
#psi4
#
memory 32 gb

molecule  {
0 1
 Cl        1.2352799     0.0831607    -0.0290222
  C       -0.5078580     0.0000110     0.4087150
  C       -1.2402310    -1.2380257    -0.0709582
  C       -1.1723440     1.2629730    -0.1036980
  H       -0.4998300     0.0000750     1.5011250
  H       -0.6755810    -2.1546730     0.2828190
  H       -2.2185910    -1.2788520     0.2166160
  H       -1.1404100    -1.2929320    -1.1952960
  H       -0.6756180     2.1546720     0.2826010
  H       -2.2185470     1.2788410     0.2165190
  H       -1.1404690     1.2927960    -1.1954080
units angstrom
no_reorient  #important for SAPT in psi4, default
symmetry c1  #important for SAPT in psi4, default
}

set PROPERTIES_ORIGIN ["COM"]
properties('MP2/aug-cc-pvtz', properties = ['dipole'])
--------------------------------------------------------------------------

    Molecular point group: c1
  Charge       = 0
  Multiplicity = 1
  Basis Set: AUG-CC-PVTZ
    Blend: AUG-CC-PVTZ
  Basis Set: (AUG-CC-PVTZ AUX)
    Blend: AUG-CC-PVTZ-JKFIT

    Orbital Energies [Eh]
    ---------------------

    Doubly Occupied:

       1A   -104.818321     2A    -11.297492     3A    -11.232233
       4A    -11.228295     5A    -10.542844     6A     -8.009617
       7A     -8.007905     8A     -8.007892     9A     -1.147231
      10A     -1.020013    11A     -0.950249    12A     -0.798073
      13A     -0.651320    14A     -0.615566    15A     -0.596318
      16A     -0.552952    17A     -0.513899    18A     -0.499581
      19A     -0.496468    20A     -0.430027    21A     -0.426981

  @DF-RHF Final Energy:  -577.24199868557901

   => Energetics <=

    Nuclear Repulsion Energy =            166.1857109014638354
    One-Electron Energy =               -1123.1688611504214350
    Two-Electron Energy =                 379.7411515633786507
    Total Energy =                       -577.2419986855788920
  Basis Set: (AUG-CC-PVTZ AUX)
    Blend: AUG-CC-PVTZ-RI
    Molecular point group: c1

    Geometry (in Angstrom), charge = 0, multiplicity = 1:

       Center              X                  Y                   Z               Mass
    ------------   -----------------  -----------------  -----------------  -----------------
         CL           1.241495635284     0.042051866919    -0.053420723312    34.968852682000
         C           -0.501642264716    -0.041097833081     0.384316476688    12.000000000000
         C           -1.234015264716    -1.279134533081    -0.095356723312    12.000000000000
         C           -1.166128264716     1.221864166919    -0.128096523312    12.000000000000
         H           -0.493614264716    -0.041033833081     1.476726476688     1.007825032230
         H           -0.669365264716    -2.195781833081     0.258420476688     1.007825032230
         H           -2.212375264716    -1.319960833081     0.192217476688     1.007825032230
         H           -1.134194264716    -1.334040833081    -1.219694523312     1.007825032230
         H           -0.669402264716     2.113563166919     0.258202476688     1.007825032230
         H           -2.212331264716     1.237732166919     0.192120476688     1.007825032230
         H           -1.134253264716     1.251687166919    -1.219806523312     1.007825032230

  Basis Set: AUG-CC-PVTZ
    Blend: AUG-CC-PVTZ
  Basis Set: (AUG-CC-PVTZ AUX)
    Blend: AUG-CC-PVTZ-JKFIT
	 Reference Energy          =    -577.2419986855790057 [Eh]
	 Singles Energy            =      -0.0000000000000000 [Eh]
	 Same-Spin Energy          =      -0.1864756538673148 [Eh]
	 Opposite-Spin Energy      =      -0.6453941304462781 [Eh]
	 Correlation Energy        =      -0.8318697843135929 [Eh]
	 Total Energy              =    -578.0738684698925454 [Eh]

	 ================> DF-SCS-MP2 Energies <==================
	-----------------------------------------------------------
	 SCS Same-Spin Scale       =       0.3333333333333333 [-]
	 SCS Opposite-Spin Scale   =       1.2000000000000000 [-]
	 SCS Same-Spin Energy      =      -0.0621585512891049 [Eh]
	 SCS Opposite-Spin Energy  =      -0.7744729565355337 [Eh]
	 SCS Correlation Energy    =      -0.8366315078246387 [Eh]
	 SCS Total Energy          =    -578.0786301934036828 [Eh]
	-----------------------------------------------------------

  Dipole Moment: [D]
     X:    -2.0660      Y:    -0.0717      Z:     0.4464     Total:     2.1149

*** Psi4 exiting successfully. Buy a developer a beer!
