                               Psi4 1.3.2 release

  ==> Input File <==

--------------------------------------------------------------------------
#psi4
#
memory 32 gb

molecule  {
0 1
 Cl        1.2258420     0.0000130    -0.0722650
  C       -0.5078580     0.0000110     0.4087150
  C       -1.1190560    -1.3051969    -0.0625184
  C       -1.1190882     1.3051579    -0.0626353
  H       -0.4998300     0.0000750     1.5011250
  H       -0.6755810    -2.1546730     0.2828190
  H       -2.2185910    -1.2788520     0.2166160
  H       -1.1404100    -1.2929320    -1.1952960
  H       -0.6756180     2.1546720     0.2826010
  H       -2.2185470     1.2788410     0.2165190
  H       -1.1404690     1.2927960    -1.1954080
units angstrom
no_reorient  #important for SAPT in psi4, default
symmetry c1  #important for SAPT in psi4, default
}

set PROPERTIES_ORIGIN ["COM"]
properties('MP2/aug-cc-pvtz', properties = ['dipole'])
--------------------------------------------------------------------------

    Molecular point group: c1
  Charge       = 0
  Multiplicity = 1
  Basis Set: AUG-CC-PVTZ
    Blend: AUG-CC-PVTZ
  Basis Set: (AUG-CC-PVTZ AUX)
    Blend: AUG-CC-PVTZ-JKFIT

    Orbital Energies [Eh]
    ---------------------

    Doubly Occupied:

       1A   -104.812816     2A    -11.299357     3A    -11.233884
       4A    -11.233865     5A    -10.537835     6A     -8.004590
       7A     -8.002895     8A     -8.002877     9A     -1.148042
      10A     -1.013069    11A     -0.958583    12A     -0.798391
      13A     -0.657979    14A     -0.618884    15A     -0.588209
      16A     -0.549960    17A     -0.532826    18A     -0.507273
      19A     -0.479604    20A     -0.425466    21A     -0.424084

  @DF-RHF Final Energy:  -577.23523926900020

   => Energetics <=

    Nuclear Repulsion Energy =            166.6448554351379983
    One-Electron Energy =               -1124.0992108715176983
    Two-Electron Energy =                 380.2191161673795818
    Total Energy =                       -577.2352392690002034
  Basis Set: (AUG-CC-PVTZ AUX)
    Blend: AUG-CC-PVTZ-RI
    Molecular point group: c1

    Geometry (in Angstrom), charge = 0, multiplicity = 1:

       Center              X                  Y                   Z               Mass
    ------------   -----------------  -----------------  -----------------  -----------------
         CL           1.209460259205     0.000012422946    -0.084896304492    34.968852682000
         C           -0.524239740795     0.000010422946     0.396083695508    12.000000000000
         C           -1.135437740795    -1.305197477054    -0.075149704492    12.000000000000
         C           -1.135469940795     1.305157322946    -0.075266604492    12.000000000000
         H           -0.516211740795     0.000074422946     1.488493695508     1.007825032230
         H           -0.691962740795    -2.154673577054     0.270187695508     1.007825032230
         H           -2.234972740795    -1.278852577054     0.203984695508     1.007825032230
         H           -1.156791740795    -1.292932577054    -1.207927304492     1.007825032230
         H           -0.691999740795     2.154671422946     0.269969695508     1.007825032230
         H           -2.234928740795     1.278840422946     0.203887695508     1.007825032230
         H           -1.156850740795     1.292795422946    -1.208039304492     1.007825032230

  Basis Set: AUG-CC-PVTZ
    Blend: AUG-CC-PVTZ
  Basis Set: (AUG-CC-PVTZ AUX)
    Blend: AUG-CC-PVTZ-JKFIT
	 Reference Energy          =    -577.2352392690002034 [Eh]
	 Singles Energy            =      -0.0000000000000000 [Eh]
	 Same-Spin Energy          =      -0.1865876722545651 [Eh]
	 Opposite-Spin Energy      =      -0.6454767395966013 [Eh]
	 Correlation Energy        =      -0.8320644118511664 [Eh]
	 Total Energy              =    -578.0673036808514098 [Eh]

	 ================> DF-SCS-MP2 Energies <==================
	-----------------------------------------------------------
	 SCS Same-Spin Scale       =       0.3333333333333333 [-]
	 SCS Opposite-Spin Scale   =       1.2000000000000000 [-]
	 SCS Same-Spin Energy      =      -0.0621958907515217 [Eh]
	 SCS Opposite-Spin Energy  =      -0.7745720875159215 [Eh]
	 SCS Correlation Energy    =      -0.8367679782674433 [Eh]
	 SCS Total Energy          =    -578.0720072472676065 [Eh]
	-----------------------------------------------------------

  Dipole Moment: [D]
     X:    -2.0992      Y:     0.0000      Z:     0.4984     Total:     2.1576

*** Psi4 exiting successfully. Buy a developer a beer!
