                               Psi4 1.3.2 release

  ==> Input File <==

--------------------------------------------------------------------------
#psi4
#
memory 32 gb

molecule  {
0 1
 Cl        1.2216384    -0.0277141    -0.0863921
  C       -0.5078580     0.0000110     0.4087150
  C       -1.1492596    -1.2705812    -0.1141529
  C       -1.1723440     1.2629730    -0.1036980
  H       -0.4998300     0.0000750     1.5011250
  H       -0.6755810    -2.1546730     0.2828190
  H       -2.2185910    -1.2788520     0.2166160
  H       -1.1404100    -1.2929320    -1.1952960
  H       -0.6756180     2.1546720     0.2826010
  H       -2.2185470     1.2788410     0.2165190
  H       -1.1404690     1.2927960    -1.1954080
units angstrom
no_reorient  #important for SAPT in psi4, default
symmetry c1  #important for SAPT in psi4, default
}

set PROPERTIES_ORIGIN ["COM"]
properties('MP2/aug-cc-pvtz', properties = ['dipole'])
--------------------------------------------------------------------------

    Molecular point group: c1
  Charge       = 0
  Multiplicity = 1
  Basis Set: AUG-CC-PVTZ
    Blend: AUG-CC-PVTZ
  Basis Set: (AUG-CC-PVTZ AUX)
    Blend: AUG-CC-PVTZ-JKFIT

    Orbital Energies [Eh]
    ---------------------

    Doubly Occupied:

       1A   -104.814558     2A    -11.298079     3A    -11.230915
       4A    -11.230068     5A    -10.539418     6A     -8.006179
       7A     -8.004478     8A     -8.004472     9A     -1.147787
      10A     -1.015424    11A     -0.952100    12A     -0.798338
      13A     -0.650325    14A     -0.614273    15A     -0.589571
      16A     -0.553930    17A     -0.519257    18A     -0.513947
      19A     -0.488358    20A     -0.427577    21A     -0.425873

  @DF-RHF Final Energy:  -577.25002497850789

   => Energetics <=

    Nuclear Repulsion Energy =            166.7218697597974995
    One-Electron Energy =               -1124.2939332760724938
    Two-Electron Energy =                 380.3220385377670709
    Total Energy =                       -577.2500249785078950
  Basis Set: (AUG-CC-PVTZ AUX)
    Blend: AUG-CC-PVTZ-RI
    Molecular point group: c1

    Geometry (in Angstrom), charge = 0, multiplicity = 1:

       Center              X                  Y                   Z               Mass
    ------------   -----------------  -----------------  -----------------  -----------------
         CL           1.219976660055    -0.014123726420    -0.078435091415    34.968852682000
         C           -0.509519739945     0.013601373580     0.416672008585    12.000000000000
         C           -1.150921339945    -1.256990826420    -0.106195891415    12.000000000000
         C           -1.174005739945     1.276563373580    -0.095740991415    12.000000000000
         H           -0.501491739945     0.013665373580     1.509082008585     1.007825032230
         H           -0.677242739945    -2.141082626420     0.290776008585     1.007825032230
         H           -2.220252739945    -1.265261626420     0.224573008585     1.007825032230
         H           -1.142071739945    -1.279341626420    -1.187338991415     1.007825032230
         H           -0.677279739945     2.168262373580     0.290558008585     1.007825032230
         H           -2.220208739945     1.292431373580     0.224476008585     1.007825032230
         H           -1.142130739945     1.306386373580    -1.187450991415     1.007825032230

  Basis Set: AUG-CC-PVTZ
    Blend: AUG-CC-PVTZ
  Basis Set: (AUG-CC-PVTZ AUX)
    Blend: AUG-CC-PVTZ-JKFIT
	 Reference Energy          =    -577.2500249785078950 [Eh]
	 Singles Energy            =      -0.0000000000000000 [Eh]
	 Same-Spin Energy          =      -0.1863760078367562 [Eh]
	 Opposite-Spin Energy      =      -0.6449287747255581 [Eh]
	 Correlation Energy        =      -0.8313047825623143 [Eh]
	 Total Energy              =    -578.0813297610702648 [Eh]

	 ================> DF-SCS-MP2 Energies <==================
	-----------------------------------------------------------
	 SCS Same-Spin Scale       =       0.3333333333333333 [-]
	 SCS Opposite-Spin Scale   =       1.2000000000000000 [-]
	 SCS Same-Spin Energy      =      -0.0621253359455854 [Eh]
	 SCS Opposite-Spin Energy  =      -0.7739145296706696 [Eh]
	 SCS Correlation Energy    =      -0.8360398656162551 [Eh]
	 SCS Total Energy          =    -578.0860648441241665 [Eh]
	-----------------------------------------------------------

  Dipole Moment: [D]
     X:    -2.0860      Y:     0.0294      Z:     0.4792     Total:     2.1405

*** Psi4 exiting successfully. Buy a developer a beer!
