                               Psi4 1.3.2 release

  ==> Input File <==

--------------------------------------------------------------------------
#psi4
#
memory 32 gb

molecule  {
0 1
 Cl        1.2415718     0.0000168    -0.0114667
  C       -0.5078580     0.0000110     0.4087150
  C       -1.1723130    -1.2630170    -0.1035850
  C       -1.1723440     1.2629730    -0.1036980
  H       -0.4617103     0.0000756     1.5001794
  H       -0.6755810    -2.1546730     0.2828190
  H       -2.2185910    -1.2788520     0.2166160
  H       -1.1404100    -1.2929320    -1.1952960
  H       -0.6756180     2.1546720     0.2826010
  H       -2.2185470     1.2788410     0.2165190
  H       -1.1404690     1.2927960    -1.1954080
units angstrom
no_reorient  #important for SAPT in psi4, default
symmetry c1  #important for SAPT in psi4, default
}

set PROPERTIES_ORIGIN ["COM"]
properties('MP2/aug-cc-pvtz', properties = ['dipole'])
--------------------------------------------------------------------------

    Molecular point group: c1
  Charge       = 0
  Multiplicity = 1
  Basis Set: AUG-CC-PVTZ
    Blend: AUG-CC-PVTZ
  Basis Set: (AUG-CC-PVTZ AUX)
    Blend: AUG-CC-PVTZ-JKFIT

    Orbital Energies [Eh]
    ---------------------

    Doubly Occupied:

       1A   -104.814436     2A    -11.297664     3A    -11.230939
       4A    -11.230921     5A    -10.539279     6A     -8.006045
       7A     -8.004341     8A     -8.004328     9A     -1.147071
      10A     -1.016727    11A     -0.951793    12A     -0.798080
      13A     -0.648821    14A     -0.615485    15A     -0.590219
      16A     -0.554583    17A     -0.520735    18A     -0.511494
      19A     -0.489132    20A     -0.427432    21A     -0.425552

  @DF-RHF Final Energy:  -577.25049039147643

   => Energetics <=

    Nuclear Repulsion Energy =            166.3183323254136212
    One-Electron Energy =               -1123.4874892542304678
    Two-Electron Energy =                 379.9186665373403571
    Total Energy =                       -577.2504903914764327
  Basis Set: (AUG-CC-PVTZ AUX)
    Blend: AUG-CC-PVTZ-RI
    Molecular point group: c1

    Geometry (in Angstrom), charge = 0, multiplicity = 1:

       Center              X                  Y                   Z               Mass
    ------------   -----------------  -----------------  -----------------  -----------------
         CL           1.234029465571     0.000015281099    -0.038703095632    34.968852682000
         C           -0.515400334429     0.000009481099     0.381478604368    12.000000000000
         C           -1.179855334429    -1.263018518901    -0.130821395632    12.000000000000
         C           -1.179886334429     1.262971481099    -0.130934395632    12.000000000000
         H           -0.469252634429     0.000074081099     1.472943004368     1.007825032230
         H           -0.683123334429    -2.154674518901     0.255582604368     1.007825032230
         H           -2.226133334429    -1.278853518901     0.189379604368     1.007825032230
         H           -1.147952334429    -1.292933518901    -1.222532395632     1.007825032230
         H           -0.683160334429     2.154670481099     0.255364604368     1.007825032230
         H           -2.226089334429     1.278839481099     0.189282604368     1.007825032230
         H           -1.148011334429     1.292794481099    -1.222644395632     1.007825032230

  Basis Set: AUG-CC-PVTZ
    Blend: AUG-CC-PVTZ
  Basis Set: (AUG-CC-PVTZ AUX)
    Blend: AUG-CC-PVTZ-JKFIT
	 Reference Energy          =    -577.2504903914764327 [Eh]
	 Singles Energy            =      -0.0000000000000000 [Eh]
	 Same-Spin Energy          =      -0.1863130411029959 [Eh]
	 Opposite-Spin Energy      =      -0.6448037439487955 [Eh]
	 Correlation Energy        =      -0.8311167850517914 [Eh]
	 Total Energy              =    -578.0816071765282231 [Eh]

	 ================> DF-SCS-MP2 Energies <==================
	-----------------------------------------------------------
	 SCS Same-Spin Scale       =       0.3333333333333333 [-]
	 SCS Opposite-Spin Scale   =       1.2000000000000000 [-]
	 SCS Same-Spin Energy      =      -0.0621043470343320 [Eh]
	 SCS Opposite-Spin Energy  =      -0.7737644927385545 [Eh]
	 SCS Correlation Energy    =      -0.8358688397728865 [Eh]
	 SCS Total Energy          =    -578.0863592312492756 [Eh]
	-----------------------------------------------------------

  Dipole Moment: [D]
     X:    -2.1240      Y:     0.0000      Z:     0.4219     Total:     2.1655

*** Psi4 exiting successfully. Buy a developer a beer!
