                               Psi4 1.3.2 release

  ==> Input File <==

--------------------------------------------------------------------------
#psi4
#
memory 32 gb

molecule  {
0 1
 Cl        1.2258420     0.0000130    -0.0722650
  C       -0.5078580     0.0000110     0.4087150
  C       -1.1834013    -1.2852685    -0.0281937
  C       -1.1723440     1.2629730    -0.1036980
  H       -0.5263411    -0.0505863     1.4998256
  H       -0.6755810    -2.1546730     0.2828190
  H       -2.2185910    -1.2788520     0.2166160
  H       -1.1404100    -1.2929320    -1.1952960
  H       -0.6756180     2.1546720     0.2826010
  H       -2.2185470     1.2788410     0.2165190
  H       -1.1404690     1.2927960    -1.1954080
units angstrom
no_reorient  #important for SAPT in psi4, default
symmetry c1  #important for SAPT in psi4, default
}

set PROPERTIES_ORIGIN ["COM"]
properties('MP2/aug-cc-pvtz', properties = ['dipole'])
--------------------------------------------------------------------------

    Molecular point group: c1
  Charge       = 0
  Multiplicity = 1
  Basis Set: AUG-CC-PVTZ
    Blend: AUG-CC-PVTZ
  Basis Set: (AUG-CC-PVTZ AUX)
    Blend: AUG-CC-PVTZ-JKFIT

    Orbital Energies [Eh]
    ---------------------

    Doubly Occupied:

       1A   -104.817316     2A    -11.297811     3A    -11.231499
       4A    -11.230521     5A    -10.541904     6A     -8.008674
       7A     -8.006972     8A     -8.006958     9A     -1.147189
      10A     -1.017529    11A     -0.953299    12A     -0.796950
      13A     -0.647578    14A     -0.624130    15A     -0.593736
      16A     -0.547219    17A     -0.520800    18A     -0.504647
      19A     -0.489294    20A     -0.429737    21A     -0.426425

  @DF-RHF Final Energy:  -577.24342828170859

   => Energetics <=

    Nuclear Repulsion Energy =            166.3307321145993001
    One-Electron Energy =               -1123.4679379504586905
    Two-Electron Energy =                 379.8937775541507449
    Total Energy =                       -577.2434282817087023
  Basis Set: (AUG-CC-PVTZ AUX)
    Blend: AUG-CC-PVTZ-RI
    Molecular point group: c1

    Geometry (in Angstrom), charge = 0, multiplicity = 1:

       Center              X                  Y                   Z               Mass
    ------------   -----------------  -----------------  -----------------  -----------------
         CL           1.227889698963     0.004089850961    -0.083843218778    34.968852682000
         C           -0.505810301037     0.004087850961     0.397136781222    12.000000000000
         C           -1.181353601037    -1.281191649039    -0.039771918778    12.000000000000
         C           -1.170296301037     1.267049850961    -0.115276218778    12.000000000000
         H           -0.524293401037    -0.046509449039     1.488247381222     1.007825032230
         H           -0.673533301037    -2.150596149039     0.271240781222     1.007825032230
         H           -2.216543301037    -1.274775149039     0.205037781222     1.007825032230
         H           -1.138362301037    -1.288855149039    -1.206874218778     1.007825032230
         H           -0.673570301037     2.158748850961     0.271022781222     1.007825032230
         H           -2.216499301037     1.282917850961     0.204940781222     1.007825032230
         H           -1.138421301037     1.296872850961    -1.206986218778     1.007825032230

  Basis Set: AUG-CC-PVTZ
    Blend: AUG-CC-PVTZ
  Basis Set: (AUG-CC-PVTZ AUX)
    Blend: AUG-CC-PVTZ-JKFIT
	 Reference Energy          =    -577.2434282817085887 [Eh]
	 Singles Energy            =      -0.0000000000000000 [Eh]
	 Same-Spin Energy          =      -0.1864833364364114 [Eh]
	 Opposite-Spin Energy      =      -0.6453334212190116 [Eh]
	 Correlation Energy        =      -0.8318167576554230 [Eh]
	 Total Energy              =    -578.0752450393640629 [Eh]

	 ================> DF-SCS-MP2 Energies <==================
	-----------------------------------------------------------
	 SCS Same-Spin Scale       =       0.3333333333333333 [-]
	 SCS Opposite-Spin Scale   =       1.2000000000000000 [-]
	 SCS Same-Spin Energy      =      -0.0621611121454705 [Eh]
	 SCS Opposite-Spin Energy  =      -0.7744001054628139 [Eh]
	 SCS Correlation Energy    =      -0.8365612176082844 [Eh]
	 SCS Total Energy          =    -578.0799894993168664 [Eh]
	-----------------------------------------------------------

  Dipole Moment: [D]
     X:    -2.0659      Y:     0.0096      Z:     0.5054     Total:     2.1268

*** Psi4 exiting successfully. Buy a developer a beer!
