                               Psi4 1.3.2 release

  ==> Input File <==

--------------------------------------------------------------------------
#psi4
#
memory 32 gb

molecule  {
0 1
 Cl        1.2258420     0.0000130    -0.0722650
  C       -0.5078580     0.0000110     0.4087150
  C       -1.1594035    -1.2373036    -0.1775721
  C       -1.1723440     1.2629730    -0.1036980
  H       -0.4733409     0.0507361     1.4994302
  H       -0.6755810    -2.1546730     0.2828190
  H       -2.2185910    -1.2788520     0.2166160
  H       -1.1404100    -1.2929320    -1.1952960
  H       -0.6756180     2.1546720     0.2826010
  H       -2.2185470     1.2788410     0.2165190
  H       -1.1404690     1.2927960    -1.1954080
units angstrom
no_reorient  #important for SAPT in psi4, default
symmetry c1  #important for SAPT in psi4, default
}

set PROPERTIES_ORIGIN ["COM"]
properties('MP2/aug-cc-pvtz', properties = ['dipole'])
--------------------------------------------------------------------------

    Molecular point group: c1
  Charge       = 0
  Multiplicity = 1
  Basis Set: AUG-CC-PVTZ
    Blend: AUG-CC-PVTZ
  Basis Set: (AUG-CC-PVTZ AUX)
    Blend: AUG-CC-PVTZ-JKFIT

    Orbital Energies [Eh]
    ---------------------

    Doubly Occupied:

       1A   -104.813743     2A    -11.298721     3A    -11.232372
       4A    -11.229223     5A    -10.538695     6A     -8.005454
       7A     -8.003753     8A     -8.003746     9A     -1.148348
      10A     -1.016161    11A     -0.951150    12A     -0.801112
      13A     -0.650150    14A     -0.612431    15A     -0.592005
      16A     -0.562876    17A     -0.526112    18A     -0.499101
      19A     -0.486157    20A     -0.427452    21A     -0.425092

  @DF-RHF Final Energy:  -577.24257017579191

   => Energetics <=

    Nuclear Repulsion Energy =            166.8265752302177418
    One-Electron Energy =               -1124.4905855988176882
    Two-Electron Energy =                 380.4214401928080065
    Total Energy =                       -577.2425701757920251
  Basis Set: (AUG-CC-PVTZ AUX)
    Blend: AUG-CC-PVTZ-RI
    Molecular point group: c1

    Geometry (in Angstrom), charge = 0, multiplicity = 1:

       Center              X                  Y                   Z               Mass
    ------------   -----------------  -----------------  -----------------  -----------------
         CL           1.223514248379    -0.004595903203    -0.060863778549    34.968852682000
         C           -0.510185751621    -0.004597903203     0.420116221451    12.000000000000
         C           -1.161731251621    -1.241912503203    -0.166170878549    12.000000000000
         C           -1.174671751621     1.258364096797    -0.092296778549    12.000000000000
         H           -0.475668651621     0.046127196797     1.510831421451     1.007825032230
         H           -0.677908751621    -2.159281903203     0.294220221451     1.007825032230
         H           -2.220918751621    -1.283460903203     0.228017221451     1.007825032230
         H           -1.142737751621    -1.297540903203    -1.183894778549     1.007825032230
         H           -0.677945751621     2.150063096797     0.294002221451     1.007825032230
         H           -2.220874751621     1.274232096797     0.227920221451     1.007825032230
         H           -1.142796751621     1.288187096797    -1.184006778549     1.007825032230

  Basis Set: AUG-CC-PVTZ
    Blend: AUG-CC-PVTZ
  Basis Set: (AUG-CC-PVTZ AUX)
    Blend: AUG-CC-PVTZ-JKFIT
	 Reference Energy          =    -577.2425701757919114 [Eh]
	 Singles Energy            =      -0.0000000000000000 [Eh]
	 Same-Spin Energy          =      -0.1865115810283701 [Eh]
	 Opposite-Spin Energy      =      -0.6452559744840809 [Eh]
	 Correlation Energy        =      -0.8317675555124510 [Eh]
	 Total Energy              =    -578.0743377313043538 [Eh]

	 ================> DF-SCS-MP2 Energies <==================
	-----------------------------------------------------------
	 SCS Same-Spin Scale       =       0.3333333333333333 [-]
	 SCS Opposite-Spin Scale   =       1.2000000000000000 [-]
	 SCS Same-Spin Energy      =      -0.0621705270094567 [Eh]
	 SCS Opposite-Spin Energy  =      -0.7743071693808971 [Eh]
	 SCS Correlation Energy    =      -0.8364776963903537 [Eh]
	 SCS Total Energy          =    -578.0790478721822865 [Eh]
	-----------------------------------------------------------

  Dipole Moment: [D]
     X:    -2.1026      Y:     0.0054      Z:     0.4558     Total:     2.1515

*** Psi4 exiting successfully. Buy a developer a beer!
