                               Psi4 1.3.2 release

  ==> Input File <==

--------------------------------------------------------------------------
#psi4
#
memory 32 gb

molecule  {
0 1
 Cl        1.2258420     0.0000130    -0.0722650
  C       -0.5078580     0.0000110     0.4087150
  C       -1.1702870    -1.2589701    -0.1160192
  C       -1.1723440     1.2629730    -0.1036980
  H       -0.4954117     0.0085223     1.5010504
  H       -0.6755810    -2.1546730     0.2828190
  H       -2.2185910    -1.2788520     0.2166160
  H       -1.1404100    -1.2929320    -1.1952960
  H       -0.6756180     2.1546720     0.2826010
  H       -2.2185470     1.2788410     0.2165190
  H       -1.1404690     1.2927960    -1.1954080
units angstrom
no_reorient  #important for SAPT in psi4, default
symmetry c1  #important for SAPT in psi4, default
}

set PROPERTIES_ORIGIN ["COM"]
properties('MP2/aug-cc-pvtz', properties = ['dipole'])
--------------------------------------------------------------------------

    Molecular point group: c1
  Charge       = 0
  Multiplicity = 1
  Basis Set: AUG-CC-PVTZ
    Blend: AUG-CC-PVTZ
  Basis Set: (AUG-CC-PVTZ AUX)
    Blend: AUG-CC-PVTZ-JKFIT

    Orbital Energies [Eh]
    ---------------------

    Doubly Occupied:

       1A   -104.815114     2A    -11.297843     3A    -11.230420
       4A    -11.230030     5A    -10.539912     6A     -8.006676
       7A     -8.004974     8A     -8.004968     9A     -1.147519
      10A     -1.016335    11A     -0.951310    12A     -0.798274
      13A     -0.649667    14A     -0.613887    15A     -0.589722
      16A     -0.556177    17A     -0.519238    18A     -0.509389
      19A     -0.490515    20A     -0.427457    21A     -0.427036

  @DF-RHF Final Energy:  -577.25069436027331

   => Energetics <=

    Nuclear Repulsion Energy =            166.6043751795946264
    One-Electron Energy =               -1124.0572112926877253
    Two-Electron Energy =                 380.2021417528198413
    Total Energy =                       -577.2506943602732008
  Basis Set: (AUG-CC-PVTZ AUX)
    Blend: AUG-CC-PVTZ-RI
    Molecular point group: c1

    Geometry (in Angstrom), charge = 0, multiplicity = 1:

       Center              X                  Y                   Z               Mass
    ------------   -----------------  -----------------  -----------------  -----------------
         CL           1.225473212719    -0.000718332620    -0.070351515763    34.968852682000
         C           -0.508226787281    -0.000720332620     0.410628484237    12.000000000000
         C           -1.170655787281    -1.259701432620    -0.114105715763    12.000000000000
         C           -1.172712787281     1.262241667380    -0.101784515763    12.000000000000
         H           -0.495780487281     0.007790967380     1.502963884237     1.007825032230
         H           -0.675949787281    -2.155404332620     0.284732484237     1.007825032230
         H           -2.218959787281    -1.279583332620     0.218529484237     1.007825032230
         H           -1.140778787281    -1.293663332620    -1.193382515763     1.007825032230
         H           -0.675986787281     2.153940667380     0.284514484237     1.007825032230
         H           -2.218915787281     1.278109667380     0.218432484237     1.007825032230
         H           -1.140837787281     1.292064667380    -1.193494515763     1.007825032230

  Basis Set: AUG-CC-PVTZ
    Blend: AUG-CC-PVTZ
  Basis Set: (AUG-CC-PVTZ AUX)
    Blend: AUG-CC-PVTZ-JKFIT
	 Reference Energy          =    -577.2506943602733145 [Eh]
	 Singles Energy            =      -0.0000000000000000 [Eh]
	 Same-Spin Energy          =      -0.1863500358004480 [Eh]
	 Opposite-Spin Energy      =      -0.6449016717381409 [Eh]
	 Correlation Energy        =      -0.8312517075385890 [Eh]
	 Total Energy              =    -578.0819460678119412 [Eh]

	 ================> DF-SCS-MP2 Energies <==================
	-----------------------------------------------------------
	 SCS Same-Spin Scale       =       0.3333333333333333 [-]
	 SCS Opposite-Spin Scale   =       1.2000000000000000 [-]
	 SCS Same-Spin Energy      =      -0.0621166786001493 [Eh]
	 SCS Opposite-Spin Energy  =      -0.7738820060857691 [Eh]
	 SCS Correlation Energy    =      -0.8359986846859184 [Eh]
	 SCS Total Energy          =    -578.0866930449592473 [Eh]
	-----------------------------------------------------------

  Dipole Moment: [D]
     X:    -2.0913      Y:    -0.0002      Z:     0.4676     Total:     2.1429

*** Psi4 exiting successfully. Buy a developer a beer!
