                               Psi4 1.3.2 release

  ==> Input File <==

--------------------------------------------------------------------------
#psi4
#
memory 32 gb

molecule  {
0 1
 Cl        1.2116521    -0.0831347    -0.1141895
  C       -0.5078580     0.0000110     0.4087150
  C       -1.1025738    -1.2845464    -0.1348076
  C       -1.1723440     1.2629730    -0.1036980
  H       -0.4998300     0.0000750     1.5011250
  H       -0.6755810    -2.1546730     0.2828190
  H       -2.2185910    -1.2788520     0.2166160
  H       -1.1404100    -1.2929320    -1.1952960
  H       -0.6756180     2.1546720     0.2826010
  H       -2.2185470     1.2788410     0.2165190
  H       -1.1404690     1.2927960    -1.1954080
units angstrom
no_reorient  #important for SAPT in psi4, default
symmetry c1  #important for SAPT in psi4, default
}

set PROPERTIES_ORIGIN ["COM"]
properties('MP2/aug-cc-pvtz', properties = ['dipole'])
--------------------------------------------------------------------------

    Molecular point group: c1
  Charge       = 0
  Multiplicity = 1
  Basis Set: AUG-CC-PVTZ
    Blend: AUG-CC-PVTZ
  Basis Set: (AUG-CC-PVTZ AUX)
    Blend: AUG-CC-PVTZ-JKFIT

    Orbital Energies [Eh]
    ---------------------

    Doubly Occupied:

       1A   -104.813093     2A    -11.299066     3A    -11.232390
       4A    -11.230575     5A    -10.538156     6A     -8.004904
       7A     -8.003201     8A     -8.003195     9A     -1.149089
      10A     -1.013664    11A     -0.953547    12A     -0.799744
      13A     -0.653747    14A     -0.612740    15A     -0.591702
      16A     -0.552055    17A     -0.523501    18A     -0.517430
      19A     -0.482226    20A     -0.428062    21A     -0.421262

  @DF-RHF Final Energy:  -577.24315162095297

   => Energetics <=

    Nuclear Repulsion Energy =            167.0909315262809969
    One-Electron Energy =               -1125.0214663460606062
    Two-Electron Energy =                 380.6873831988266375
    Total Energy =                       -577.2431516209529718
  Basis Set: (AUG-CC-PVTZ AUX)
    Blend: AUG-CC-PVTZ-RI
    Molecular point group: c1

    Geometry (in Angstrom), charge = 0, multiplicity = 1:

       Center              X                  Y                   Z               Mass
    ------------   -----------------  -----------------  -----------------  -----------------
         CL           1.207285792835    -0.042557921745    -0.090597489323    34.968852682000
         C           -0.512224307165     0.040587778255     0.432307010677    12.000000000000
         C           -1.106940107165    -1.243969621745    -0.111215589323    12.000000000000
         C           -1.176710307165     1.303549778255    -0.080105989323    12.000000000000
         H           -0.504196307165     0.040651778255     1.524717010677     1.007825032230
         H           -0.679947307165    -2.114096221745     0.306411010677     1.007825032230
         H           -2.222957307165    -1.238275221745     0.240208010677     1.007825032230
         H           -1.144776307165    -1.252355221745    -1.171703989323     1.007825032230
         H           -0.679984307165     2.195248778255     0.306193010677     1.007825032230
         H           -2.222913307165     1.319417778255     0.240111010677     1.007825032230
         H           -1.144835307165     1.333372778255    -1.171815989323     1.007825032230

  Basis Set: AUG-CC-PVTZ
    Blend: AUG-CC-PVTZ
  Basis Set: (AUG-CC-PVTZ AUX)
    Blend: AUG-CC-PVTZ-JKFIT
	 Reference Energy          =    -577.2431516209529718 [Eh]
	 Singles Energy            =      -0.0000000000000000 [Eh]
	 Same-Spin Energy          =      -0.1865598853539653 [Eh]
	 Opposite-Spin Energy      =      -0.6452752973622120 [Eh]
	 Correlation Energy        =      -0.8318351827161773 [Eh]
	 Total Energy              =    -578.0749868036691623 [Eh]

	 ================> DF-SCS-MP2 Energies <==================
	-----------------------------------------------------------
	 SCS Same-Spin Scale       =       0.3333333333333333 [-]
	 SCS Opposite-Spin Scale   =       1.2000000000000000 [-]
	 SCS Same-Spin Energy      =      -0.0621866284513218 [Eh]
	 SCS Opposite-Spin Energy  =      -0.7743303568346543 [Eh]
	 SCS Correlation Energy    =      -0.8365169852859761 [Eh]
	 SCS Total Energy          =    -578.0796686062388972 [Eh]
	-----------------------------------------------------------

  Dipole Moment: [D]
     X:    -2.0640      Y:     0.0962      Z:     0.4931     Total:     2.1242

*** Psi4 exiting successfully. Buy a developer a beer!
