                               Psi4 1.3.2 release

  ==> Input File <==

--------------------------------------------------------------------------
#psi4
#
memory 32 gb

molecule  {
0 1
 Cl        1.2258420     0.0000130    -0.0722650
  C       -0.7005789     0.0000108     0.4621815
  C       -1.1723130    -1.2630170    -0.1035850
  C       -1.1723440     1.2629730    -0.1036980
  H       -0.4998300     0.0000750     1.5011250
  H       -0.6755810    -2.1546730     0.2828190
  H       -2.2185910    -1.2788520     0.2166160
  H       -1.1404100    -1.2929320    -1.1952960
  H       -0.6756180     2.1546720     0.2826010
  H       -2.2185470     1.2788410     0.2165190
  H       -1.1404690     1.2927960    -1.1954080
units angstrom
no_reorient  #important for SAPT in psi4, default
symmetry c1  #important for SAPT in psi4, default
}

set PROPERTIES_ORIGIN ["COM"]
properties('MP2/aug-cc-pvtz', properties = ['dipole'])
--------------------------------------------------------------------------

    Molecular point group: c1
  Charge       = 0
  Multiplicity = 1
  Basis Set: AUG-CC-PVTZ
    Blend: AUG-CC-PVTZ
  Basis Set: (AUG-CC-PVTZ AUX)
    Blend: AUG-CC-PVTZ-JKFIT

    Orbital Energies [Eh]
    ---------------------

    Doubly Occupied:

       1A   -104.785409     2A    -11.314995     3A    -11.238800
       4A    -11.238780     5A    -10.509743     6A     -7.976196
       7A     -7.974905     8A     -7.974902     9A     -1.136905
      10A     -1.008640    11A     -0.973157    12A     -0.812136
      13A     -0.664927    14A     -0.627549    15A     -0.600160
      16A     -0.568425    17A     -0.535955    18A     -0.530376
      19A     -0.435286    20A     -0.413221    21A     -0.411114

  @DF-RHF Final Energy:  -577.23200090887929

   => Energetics <=

    Nuclear Repulsion Energy =            164.8143249598548152
    One-Electron Energy =               -1120.6294900753543970
    Two-Electron Energy =                 378.5831642066202676
    Total Energy =                       -577.2320009088792858
  Basis Set: (AUG-CC-PVTZ AUX)
    Blend: AUG-CC-PVTZ-RI
    Molecular point group: c1

    Geometry (in Angstrom), charge = 0, multiplicity = 1:

       Center              X                  Y                   Z               Mass
    ------------   -----------------  -----------------  -----------------  -----------------
         CL           1.255482271976     0.000013222704    -0.080487978332    34.968852682000
         C           -0.670938628024     0.000011022704     0.453958521668    12.000000000000
         C           -1.142672728024    -1.263016777296    -0.111807978332    12.000000000000
         C           -1.142703728024     1.262973222704    -0.111920978332    12.000000000000
         H           -0.470189728024     0.000075222704     1.492902021668     1.007825032230
         H           -0.645940728024    -2.154672777296     0.274596021668     1.007825032230
         H           -2.188950728024    -1.278851777296     0.208393021668     1.007825032230
         H           -1.110769728024    -1.292931777296    -1.203518978332     1.007825032230
         H           -0.645977728024     2.154672222704     0.274378021668     1.007825032230
         H           -2.188906728024     1.278841222704     0.208296021668     1.007825032230
         H           -1.110828728024     1.292796222704    -1.203630978332     1.007825032230

  Basis Set: AUG-CC-PVTZ
    Blend: AUG-CC-PVTZ
  Basis Set: (AUG-CC-PVTZ AUX)
    Blend: AUG-CC-PVTZ-JKFIT
	 Reference Energy          =    -577.2320009088792858 [Eh]
	 Singles Energy            =      -0.0000000000000000 [Eh]
	 Same-Spin Energy          =      -0.1862877997723421 [Eh]
	 Opposite-Spin Energy      =      -0.6442301274081725 [Eh]
	 Correlation Energy        =      -0.8305179271805146 [Eh]
	 Total Energy              =    -578.0625188360597804 [Eh]

	 ================> DF-SCS-MP2 Energies <==================
	-----------------------------------------------------------
	 SCS Same-Spin Scale       =       0.3333333333333333 [-]
	 SCS Opposite-Spin Scale   =       1.2000000000000000 [-]
	 SCS Same-Spin Energy      =      -0.0620959332574474 [Eh]
	 SCS Opposite-Spin Energy  =      -0.7730761528898070 [Eh]
	 SCS Correlation Energy    =      -0.8351720861472544 [Eh]
	 SCS Total Energy          =    -578.0671729950265672 [Eh]
	-----------------------------------------------------------

  Dipole Moment: [D]
     X:    -3.0095      Y:     0.0000      Z:     0.5719     Total:     3.0633

*** Psi4 exiting successfully. Buy a developer a beer!
