                               Psi4 1.3.2 release

  ==> Input File <==

--------------------------------------------------------------------------
#psi4
#
memory 32 gb

molecule  {
0 1
 Cl        1.2258420     0.0000130    -0.0722650
  C       -0.5078580     0.0000110     0.4087150
  C       -1.1810160    -1.2556472    -0.1102959
  C       -1.1810468     1.2556024    -0.1104082
  H       -0.4998300     0.0000750     1.5011250
  H       -0.6755810    -2.1546730     0.2828190
  H       -2.2185910    -1.2788520     0.2166160
  H       -1.1404100    -1.2929320    -1.1952960
  H       -0.6756180     2.1546720     0.2826010
  H       -2.2185470     1.2788410     0.2165190
  H       -1.1404690     1.2927960    -1.1954080
units angstrom
no_reorient  #important for SAPT in psi4, default
symmetry c1  #important for SAPT in psi4, default
}

set PROPERTIES_ORIGIN ["COM"]
properties('MP2/aug-cc-pvtz', properties = ['dipole'])
--------------------------------------------------------------------------

    Molecular point group: c1
  Charge       = 0
  Multiplicity = 1
  Basis Set: AUG-CC-PVTZ
    Blend: AUG-CC-PVTZ
  Basis Set: (AUG-CC-PVTZ AUX)
    Blend: AUG-CC-PVTZ-JKFIT

    Orbital Energies [Eh]
    ---------------------

    Doubly Occupied:

       1A   -104.815892     2A    -11.297689     3A    -11.229907
       4A    -11.229889     5A    -10.540620     6A     -8.007387
       7A     -8.005683     8A     -8.005678     9A     -1.147443
      10A     -1.017168    11A     -0.950560    12A     -0.798240
      13A     -0.649774    14A     -0.613118    15A     -0.590117
      16A     -0.557846    17A     -0.518569    18A     -0.505049
      19A     -0.492883    20A     -0.427969    21A     -0.427686

  @DF-RHF Final Energy:  -577.25044644469870

   => Energetics <=

    Nuclear Repulsion Energy =            166.5573281888510451
    One-Electron Energy =               -1123.9572164950989190
    Two-Electron Energy =                 380.1494418615492918
    Total Energy =                       -577.2504464446985821
  Basis Set: (AUG-CC-PVTZ AUX)
    Blend: AUG-CC-PVTZ-RI
    Molecular point group: c1

    Geometry (in Angstrom), charge = 0, multiplicity = 1:

       Center              X                  Y                   Z               Mass
    ------------   -----------------  -----------------  -----------------  -----------------
         CL           1.228518885930     0.000013314983    -0.070200694575    34.968852682000
         C           -0.505181114070     0.000011314983     0.410779305425    12.000000000000
         C           -1.178339114070    -1.255646885017    -0.108231594575    12.000000000000
         C           -1.178369914070     1.255602714983    -0.108343894575    12.000000000000
         H           -0.497153114070     0.000075314983     1.503189305425     1.007825032230
         H           -0.672904114070    -2.154672685017     0.284883305425     1.007825032230
         H           -2.215914114070    -1.278851685017     0.218680305425     1.007825032230
         H           -1.137733114070    -1.292931685017    -1.193231694575     1.007825032230
         H           -0.672941114070     2.154672314983     0.284665305425     1.007825032230
         H           -2.215870114070     1.278841314983     0.218583305425     1.007825032230
         H           -1.137792114070     1.292796314983    -1.193343694575     1.007825032230

  Basis Set: AUG-CC-PVTZ
    Blend: AUG-CC-PVTZ
  Basis Set: (AUG-CC-PVTZ AUX)
    Blend: AUG-CC-PVTZ-JKFIT
	 Reference Energy          =    -577.2504464446986958 [Eh]
	 Singles Energy            =      -0.0000000000000000 [Eh]
	 Same-Spin Energy          =      -0.1863564329435641 [Eh]
	 Opposite-Spin Energy      =      -0.6449530382412174 [Eh]
	 Correlation Energy        =      -0.8313094711847815 [Eh]
	 Total Energy              =    -578.0817559158834911 [Eh]

	 ================> DF-SCS-MP2 Energies <==================
	-----------------------------------------------------------
	 SCS Same-Spin Scale       =       0.3333333333333333 [-]
	 SCS Opposite-Spin Scale   =       1.2000000000000000 [-]
	 SCS Same-Spin Energy      =      -0.0621188109811880 [Eh]
	 SCS Opposite-Spin Energy  =      -0.7739436458894609 [Eh]
	 SCS Correlation Energy    =      -0.8360624568706490 [Eh]
	 SCS Total Energy          =    -578.0865089015693457 [Eh]
	-----------------------------------------------------------

  Dipole Moment: [D]
     X:    -2.0857      Y:     0.0000      Z:     0.4667     Total:     2.1373

*** Psi4 exiting successfully. Buy a developer a beer!
