                               Psi4 1.3.2 release

  ==> Input File <==

--------------------------------------------------------------------------
#psi4
#
memory 32 gb

molecule  {
0 1
 Cl        1.2258420     0.0000130    -0.0722650
  C       -0.4991761    -0.0073588     0.4154532
  C       -1.1723130    -1.2630170    -0.1035850
  C       -1.1723440     1.2629730    -0.1036980
  H       -0.4998300     0.0000750     1.5011250
  H       -0.6694433    -2.1491472     0.2875626
  H       -2.2185910    -1.2788520     0.2166160
  H       -1.1404100    -1.2929320    -1.1952960
  H       -0.6756180     2.1546720     0.2826010
  H       -2.2185470     1.2788410     0.2165190
  H       -1.1404690     1.2927960    -1.1954080
units angstrom
no_reorient  #important for SAPT in psi4, default
symmetry c1  #important for SAPT in psi4, default
}

set PROPERTIES_ORIGIN ["COM"]
properties('MP2/aug-cc-pvtz', properties = ['dipole'])
--------------------------------------------------------------------------

    Molecular point group: c1
  Charge       = 0
  Multiplicity = 1
  Basis Set: AUG-CC-PVTZ
    Blend: AUG-CC-PVTZ
  Basis Set: (AUG-CC-PVTZ AUX)
    Blend: AUG-CC-PVTZ-JKFIT

    Orbital Energies [Eh]
    ---------------------

    Doubly Occupied:

       1A   -104.816204     2A    -11.296999     3A    -11.230217
       4A    -11.229997     5A    -10.541021     6A     -8.007801
       7A     -8.006082     8A     -8.006075     9A     -1.148010
      10A     -1.015687    11A     -0.950032    12A     -0.798991
      13A     -0.648794    14A     -0.613886    15A     -0.589767
      16A     -0.553928    17A     -0.518770    18A     -0.508519
      19A     -0.493418    20A     -0.428239    21A     -0.426834

  @DF-RHF Final Energy:  -577.25072058483170

   => Energetics <=

    Nuclear Repulsion Energy =            166.5810101049164871
    One-Electron Energy =               -1124.0049141622655497
    Two-Electron Energy =                 380.1731834725173371
    Total Energy =                       -577.2507205848316971
  Basis Set: (AUG-CC-PVTZ AUX)
    Blend: AUG-CC-PVTZ-RI
    Molecular point group: c1

    Geometry (in Angstrom), charge = 0, multiplicity = 1:

       Center              X                  Y                   Z               Mass
    ------------   -----------------  -----------------  -----------------  -----------------
         CL           1.224427328843     0.001075287653    -0.073362458844    34.968852682000
         C           -0.500590771157    -0.006296512347     0.414355741156    12.000000000000
         C           -1.173727671157    -1.261954712347    -0.104682458844    12.000000000000
         C           -1.173758671157     1.264035287653    -0.104795458844    12.000000000000
         H           -0.501244671157     0.001137287653     1.500027541156     1.007825032230
         H           -0.670857971157    -2.148084912347     0.286465141156     1.007825032230
         H           -2.220005671157    -1.277789712347     0.215518541156     1.007825032230
         H           -1.141824671157    -1.291869712347    -1.196393458844     1.007825032230
         H           -0.677032671157     2.155734287653     0.281503541156     1.007825032230
         H           -2.219961671157     1.279903287653     0.215421541156     1.007825032230
         H           -1.141883671157     1.293858287653    -1.196505458844     1.007825032230

  Basis Set: AUG-CC-PVTZ
    Blend: AUG-CC-PVTZ
  Basis Set: (AUG-CC-PVTZ AUX)
    Blend: AUG-CC-PVTZ-JKFIT
	 Reference Energy          =    -577.2507205848316971 [Eh]
	 Singles Energy            =      -0.0000000000000000 [Eh]
	 Same-Spin Energy          =      -0.1863166444228597 [Eh]
	 Opposite-Spin Energy      =      -0.6449068015541233 [Eh]
	 Correlation Energy        =      -0.8312234459769829 [Eh]
	 Total Energy              =    -578.0819440308086996 [Eh]

	 ================> DF-SCS-MP2 Energies <==================
	-----------------------------------------------------------
	 SCS Same-Spin Scale       =       0.3333333333333333 [-]
	 SCS Opposite-Spin Scale   =       1.2000000000000000 [-]
	 SCS Same-Spin Energy      =      -0.0621055481409532 [Eh]
	 SCS Opposite-Spin Energy  =      -0.7738881618649479 [Eh]
	 SCS Correlation Energy    =      -0.8359937100059012 [Eh]
	 SCS Total Energy          =    -578.0867142948376340 [Eh]
	-----------------------------------------------------------

  Dipole Moment: [D]
     X:    -2.0572      Y:    -0.0071      Z:     0.4727     Total:     2.1108

*** Psi4 exiting successfully. Buy a developer a beer!
