                               Psi4 1.3.2 release

  ==> Input File <==

--------------------------------------------------------------------------
#psi4
#
memory 32 gb

molecule  {
0 1
 Cl        1.2258420     0.0000130    -0.0722650
  C       -0.5078580     0.0000110     0.4087150
  C       -1.1723130    -1.2630170    -0.1035850
  C       -1.1723440     1.2629730    -0.1036980
  H       -0.4983603     0.0000867     1.7011196
  H       -0.6755810    -2.1546730     0.2828190
  H       -2.2185910    -1.2788520     0.2166160
  H       -1.1404100    -1.2929320    -1.1952960
  H       -0.6756180     2.1546720     0.2826010
  H       -2.2185470     1.2788410     0.2165190
  H       -1.1404690     1.2927960    -1.1954080
units angstrom
no_reorient  #important for SAPT in psi4, default
symmetry c1  #important for SAPT in psi4, default
}

set PROPERTIES_ORIGIN ["COM"]
properties('MP2/aug-cc-pvtz', properties = ['dipole'])
--------------------------------------------------------------------------

    Molecular point group: c1
  Charge       = 0
  Multiplicity = 1
  Basis Set: AUG-CC-PVTZ
    Blend: AUG-CC-PVTZ
  Basis Set: (AUG-CC-PVTZ AUX)
    Blend: AUG-CC-PVTZ-JKFIT

    Orbital Energies [Eh]
    ---------------------

    Doubly Occupied:

       1A   -104.817924     2A    -11.319569     3A    -11.232224
       4A    -11.232207     5A    -10.542560     6A     -8.009317
       7A     -8.007598     8A     -8.007597     9A     -1.144605
      10A     -1.016515    11A     -0.952936    12A     -0.774502
      13A     -0.637846    14A     -0.616109    15A     -0.591454
      16A     -0.555459    17A     -0.513064    18A     -0.509378
      19A     -0.484921    20A     -0.429244    21A     -0.420007

  @DF-RHF Final Energy:  -577.23030752367401

   => Energetics <=

    Nuclear Repulsion Energy =            165.6470967282494087
    One-Electron Energy =               -1122.1247364279702197
    Two-Electron Energy =                 379.2473321760468821
    Total Energy =                       -577.2303075236739005
  Basis Set: (AUG-CC-PVTZ AUX)
    Blend: AUG-CC-PVTZ-RI
    Molecular point group: c1

    Geometry (in Angstrom), charge = 0, multiplicity = 1:

       Center              X                  Y                   Z               Mass
    ------------   -----------------  -----------------  -----------------  -----------------
         CL           1.225822897470     0.000013040816    -0.074848168346    34.968852682000
         C           -0.507877102530     0.000011040816     0.406131831654    12.000000000000
         C           -1.172332102530    -1.263016959184    -0.106168168346    12.000000000000
         C           -1.172363102530     1.262973040816    -0.106281168346    12.000000000000
         H           -0.498379402530     0.000086740816     1.698536431654     1.007825032230
         H           -0.675600102530    -2.154672959184     0.280235831654     1.007825032230
         H           -2.218610102530    -1.278851959184     0.214032831654     1.007825032230
         H           -1.140429102530    -1.292931959184    -1.197879168346     1.007825032230
         H           -0.675637102530     2.154672040816     0.280017831654     1.007825032230
         H           -2.218566102530     1.278841040816     0.213935831654     1.007825032230
         H           -1.140488102530     1.292796040816    -1.197991168346     1.007825032230

  Basis Set: AUG-CC-PVTZ
    Blend: AUG-CC-PVTZ
  Basis Set: (AUG-CC-PVTZ AUX)
    Blend: AUG-CC-PVTZ-JKFIT
	 Reference Energy          =    -577.2303075236740142 [Eh]
	 Singles Energy            =      -0.0000000000000000 [Eh]
	 Same-Spin Energy          =      -0.1867134703659315 [Eh]
	 Opposite-Spin Energy      =      -0.6468873348153761 [Eh]
	 Correlation Energy        =      -0.8336008051813075 [Eh]
	 Total Energy              =    -578.0639083288552911 [Eh]

	 ================> DF-SCS-MP2 Energies <==================
	-----------------------------------------------------------
	 SCS Same-Spin Scale       =       0.3333333333333333 [-]
	 SCS Opposite-Spin Scale   =       1.2000000000000000 [-]
	 SCS Same-Spin Energy      =      -0.0622378234553105 [Eh]
	 SCS Opposite-Spin Energy  =      -0.7762648017784513 [Eh]
	 SCS Correlation Energy    =      -0.8385026252337617 [Eh]
	 SCS Total Energy          =    -578.0688101489078008 [Eh]
	-----------------------------------------------------------

  Dipole Moment: [D]
     X:    -2.0503      Y:     0.0000      Z:     0.3382     Total:     2.0780

*** Psi4 exiting successfully. Buy a developer a beer!
