                               Psi4 1.3.2 release

  ==> Input File <==

--------------------------------------------------------------------------
#psi4
#
memory 32 gb

molecule  {
0 1
 Cl        1.2169080    -0.0554328    -0.1003683
  C       -0.5078580     0.0000110     0.4087150
  C       -1.1260109    -1.2777584    -0.1245615
  C       -1.1723440     1.2629730    -0.1036980
  H       -0.4998300     0.0000750     1.5011250
  H       -0.6755810    -2.1546730     0.2828190
  H       -2.2185910    -1.2788520     0.2166160
  H       -1.1404100    -1.2929320    -1.1952960
  H       -0.6756180     2.1546720     0.2826010
  H       -2.2185470     1.2788410     0.2165190
  H       -1.1404690     1.2927960    -1.1954080
units angstrom
no_reorient  #important for SAPT in psi4, default
symmetry c1  #important for SAPT in psi4, default
}

set PROPERTIES_ORIGIN ["COM"]
properties('MP2/aug-cc-pvtz', properties = ['dipole'])
--------------------------------------------------------------------------

    Molecular point group: c1
  Charge       = 0
  Multiplicity = 1
  Basis Set: AUG-CC-PVTZ
    Blend: AUG-CC-PVTZ
  Basis Set: (AUG-CC-PVTZ AUX)
    Blend: AUG-CC-PVTZ-JKFIT

    Orbital Energies [Eh]
    ---------------------

    Doubly Occupied:

       1A   -104.813782     2A    -11.298517     3A    -11.231640
       4A    -11.230180     5A    -10.538741     6A     -8.005496
       7A     -8.003794     8A     -8.003789     9A     -1.148340
      10A     -1.014498    11A     -0.952793    12A     -0.798961
      13A     -0.651789    14A     -0.613521    15A     -0.590203
      16A     -0.553030    17A     -0.521417    18A     -0.515975
      19A     -0.485329    20A     -0.427791    21A     -0.423857

  @DF-RHF Final Energy:  -577.24740574255804

   => Energetics <=

    Nuclear Repulsion Energy =            166.8978095809507352
    One-Electron Energy =               -1124.6435424854776102
    Two-Electron Energy =                 380.4983271619688026
    Total Energy =                       -577.2474057425581577
  Basis Set: (AUG-CC-PVTZ AUX)
    Blend: AUG-CC-PVTZ-RI
    Molecular point group: c1

    Geometry (in Angstrom), charge = 0, multiplicity = 1:

       Center              X                  Y                   Z               Mass
    ------------   -----------------  -----------------  -----------------  -----------------
         CL           1.213790704317    -0.028315529951    -0.084546559983    34.968852682000
         C           -0.510975295683     0.027128270049     0.424536740017    12.000000000000
         C           -1.129128195683    -1.250641129951    -0.108739759983    12.000000000000
         C           -1.175461295683     1.290090270049    -0.087876259983    12.000000000000
         H           -0.502947295683     0.027192270049     1.516946740017     1.007825032230
         H           -0.678698295683    -2.127555729951     0.298640740017     1.007825032230
         H           -2.221708295683    -1.251734729951     0.232437740017     1.007825032230
         H           -1.143527295683    -1.265814729951    -1.179474259983     1.007825032230
         H           -0.678735295683     2.181789270049     0.298422740017     1.007825032230
         H           -2.221664295683     1.305958270049     0.232340740017     1.007825032230
         H           -1.143586295683     1.319913270049    -1.179586259983     1.007825032230

  Basis Set: AUG-CC-PVTZ
    Blend: AUG-CC-PVTZ
  Basis Set: (AUG-CC-PVTZ AUX)
    Blend: AUG-CC-PVTZ-JKFIT
	 Reference Energy          =    -577.2474057425580440 [Eh]
	 Singles Energy            =      -0.0000000000000000 [Eh]
	 Same-Spin Energy          =      -0.1864477302301156 [Eh]
	 Opposite-Spin Energy      =      -0.6450542422839726 [Eh]
	 Correlation Energy        =      -0.8315019725140882 [Eh]
	 Total Energy              =    -578.0789077150720914 [Eh]

	 ================> DF-SCS-MP2 Energies <==================
	-----------------------------------------------------------
	 SCS Same-Spin Scale       =       0.3333333333333333 [-]
	 SCS Opposite-Spin Scale   =       1.2000000000000000 [-]
	 SCS Same-Spin Energy      =      -0.0621492434100385 [Eh]
	 SCS Opposite-Spin Energy  =      -0.7740650907407670 [Eh]
	 SCS Correlation Energy    =      -0.8362143341508055 [Eh]
	 SCS Total Energy          =    -578.0836200767088258 [Eh]
	-----------------------------------------------------------

  Dipole Moment: [D]
     X:    -2.0781      Y:     0.0614      Z:     0.4865     Total:     2.1351

*** Psi4 exiting successfully. Buy a developer a beer!
