                               Psi4 1.3.2 release

  ==> Input File <==

--------------------------------------------------------------------------
#psi4
#
memory 32 gb

molecule  {
0 1
 Cl        1.2258420     0.0000130    -0.0722650
  C       -0.5078580     0.0000110     0.4087150
  C       -1.1639069    -1.2462552    -0.1530783
  C       -1.1723440     1.2629730    -0.1036980
  H       -0.4821637     0.0338577     1.5003277
  H       -0.6755810    -2.1546730     0.2828190
  H       -2.2185910    -1.2788520     0.2166160
  H       -1.1404100    -1.2929320    -1.1952960
  H       -0.6756180     2.1546720     0.2826010
  H       -2.2185470     1.2788410     0.2165190
  H       -1.1404690     1.2927960    -1.1954080
units angstrom
no_reorient  #important for SAPT in psi4, default
symmetry c1  #important for SAPT in psi4, default
}

set PROPERTIES_ORIGIN ["COM"]
properties('MP2/aug-cc-pvtz', properties = ['dipole'])
--------------------------------------------------------------------------

    Molecular point group: c1
  Charge       = 0
  Multiplicity = 1
  Basis Set: AUG-CC-PVTZ
    Blend: AUG-CC-PVTZ
  Basis Set: (AUG-CC-PVTZ AUX)
    Blend: AUG-CC-PVTZ-JKFIT

    Orbital Energies [Eh]
    ---------------------

    Doubly Occupied:

       1A   -104.814270     2A    -11.298281     3A    -11.231398
       4A    -11.229519     5A    -10.539160     6A     -8.005921
       7A     -8.004219     8A     -8.004214     9A     -1.147957
      10A     -1.016162    11A     -0.951063    12A     -0.799777
      13A     -0.650080    14A     -0.612056    15A     -0.590389
      16A     -0.560950    17A     -0.523899    18A     -0.503351
      19A     -0.488114    20A     -0.427509    21A     -0.425873

  @DF-RHF Final Energy:  -577.24729319762764

   => Energetics <=

    Nuclear Repulsion Energy =            166.7345954476286636
    One-Electron Energy =               -1124.3154590891372209
    Two-Electron Energy =                 380.3335704438809444
    Total Energy =                       -577.2472931976276413
  Basis Set: (AUG-CC-PVTZ AUX)
    Blend: AUG-CC-PVTZ-RI
    Molecular point group: c1

    Geometry (in Angstrom), charge = 0, multiplicity = 1:

       Center              X                  Y                   Z               Mass
    ------------   -----------------  -----------------  -----------------  -----------------
         CL           1.224320832748    -0.003001134063    -0.064642507260    34.968852682000
         C           -0.509379167252    -0.003003134063     0.416337492740    12.000000000000
         C           -1.165428067252    -1.249269334063    -0.145455807260    12.000000000000
         C           -1.173865167252     1.259958865937    -0.096075507260    12.000000000000
         H           -0.483684867252     0.030843565937     1.507950192740     1.007825032230
         H           -0.677102167252    -2.157687134063     0.290441492740     1.007825032230
         H           -2.220112167252    -1.281866134063     0.224238492740     1.007825032230
         H           -1.141931167252    -1.295946134063    -1.187673507260     1.007825032230
         H           -0.677139167252     2.151657865937     0.290223492740     1.007825032230
         H           -2.220068167252     1.275826865937     0.224141492740     1.007825032230
         H           -1.141990167252     1.289781865937    -1.187785507260     1.007825032230

  Basis Set: AUG-CC-PVTZ
    Blend: AUG-CC-PVTZ
  Basis Set: (AUG-CC-PVTZ AUX)
    Blend: AUG-CC-PVTZ-JKFIT
	 Reference Energy          =    -577.2472931976276413 [Eh]
	 Singles Energy            =      -0.0000000000000000 [Eh]
	 Same-Spin Energy          =      -0.1864208333659126 [Eh]
	 Opposite-Spin Energy      =      -0.6450447106078139 [Eh]
	 Correlation Energy        =      -0.8314655439737264 [Eh]
	 Total Energy              =    -578.0787587416014048 [Eh]

	 ================> DF-SCS-MP2 Energies <==================
	-----------------------------------------------------------
	 SCS Same-Spin Scale       =       0.3333333333333333 [-]
	 SCS Opposite-Spin Scale   =       1.2000000000000000 [-]
	 SCS Same-Spin Energy      =      -0.0621402777886375 [Eh]
	 SCS Opposite-Spin Energy  =      -0.7740536527293767 [Eh]
	 SCS Correlation Energy    =      -0.8361939305180142 [Eh]
	 SCS Total Energy          =    -578.0834871281456344 [Eh]
	-----------------------------------------------------------

  Dipole Moment: [D]
     X:    -2.0989      Y:     0.0018      Z:     0.4590     Total:     2.1485

*** Psi4 exiting successfully. Buy a developer a beer!
