                               Psi4 1.3.2 release

  ==> Input File <==

--------------------------------------------------------------------------
#psi4
#
memory 32 gb

molecule  {
0 1
 Cl        1.2258420     0.0000130    -0.0722650
  C       -0.5078580     0.0000110     0.4087150
  C       -1.1635594    -1.2702906    -0.0968351
  C       -1.1635906     1.2702474    -0.0969487
  H       -0.4998300     0.0000750     1.5011250
  H       -0.6755810    -2.1546730     0.2828190
  H       -2.2185910    -1.2788520     0.2166160
  H       -1.1404100    -1.2929320    -1.1952960
  H       -0.6756180     2.1546720     0.2826010
  H       -2.2185470     1.2788410     0.2165190
  H       -1.1404690     1.2927960    -1.1954080
units angstrom
no_reorient  #important for SAPT in psi4, default
symmetry c1  #important for SAPT in psi4, default
}

set PROPERTIES_ORIGIN ["COM"]
properties('MP2/aug-cc-pvtz', properties = ['dipole'])
--------------------------------------------------------------------------

    Molecular point group: c1
  Charge       = 0
  Multiplicity = 1
  Basis Set: AUG-CC-PVTZ
    Blend: AUG-CC-PVTZ
  Basis Set: (AUG-CC-PVTZ AUX)
    Blend: AUG-CC-PVTZ-JKFIT

    Orbital Energies [Eh]
    ---------------------

    Doubly Occupied:

       1A   -104.814940     2A    -11.297877     3A    -11.230638
       4A    -11.230620     5A    -10.539748     6A     -8.006512
       7A     -8.004812     8A     -8.004803     9A     -1.147421
      10A     -1.015757    11A     -0.952477    12A     -0.797666
      13A     -0.649614    14A     -0.616488    15A     -0.589775
      16A     -0.551058    17A     -0.517385    18A     -0.515901
      19A     -0.489353    20A     -0.427142    21A     -0.426830

  @DF-RHF Final Energy:  -577.25052725248429

   => Energetics <=

    Nuclear Repulsion Energy =            166.5706306942336994
    One-Electron Energy =               -1123.9886819993826066
    Two-Electron Energy =                 380.1675240526645894
    Total Energy =                       -577.2505272524842894
  Basis Set: (AUG-CC-PVTZ AUX)
    Blend: AUG-CC-PVTZ-RI
    Molecular point group: c1

    Geometry (in Angstrom), charge = 0, multiplicity = 1:

       Center              X                  Y                   Z               Mass
    ------------   -----------------  -----------------  -----------------  -----------------
         CL           1.223149312491     0.000013068904    -0.074341024994    34.968852682000
         C           -0.510550687509     0.000011068904     0.406638975006    12.000000000000
         C           -1.166252087509    -1.270290531096    -0.098911124994    12.000000000000
         C           -1.166283287509     1.270247468904    -0.099024724994    12.000000000000
         H           -0.502522687509     0.000075068904     1.499048975006     1.007825032230
         H           -0.678273687509    -2.154672931096     0.280742975006     1.007825032230
         H           -2.221283687509    -1.278851931096     0.214539975006     1.007825032230
         H           -1.143102687509    -1.292931931096    -1.197372024994     1.007825032230
         H           -0.678310687509     2.154672068904     0.280524975006     1.007825032230
         H           -2.221239687509     1.278841068904     0.214442975006     1.007825032230
         H           -1.143161687509     1.292796068904    -1.197484024994     1.007825032230

  Basis Set: AUG-CC-PVTZ
    Blend: AUG-CC-PVTZ
  Basis Set: (AUG-CC-PVTZ AUX)
    Blend: AUG-CC-PVTZ-JKFIT
	 Reference Energy          =    -577.2505272524842894 [Eh]
	 Singles Energy            =      -0.0000000000000000 [Eh]
	 Same-Spin Energy          =      -0.1863460145411663 [Eh]
	 Opposite-Spin Energy      =      -0.6448865538767541 [Eh]
	 Correlation Energy        =      -0.8312325684179205 [Eh]
	 Total Energy              =    -578.0817598209022208 [Eh]

	 ================> DF-SCS-MP2 Energies <==================
	-----------------------------------------------------------
	 SCS Same-Spin Scale       =       0.3333333333333333 [-]
	 SCS Opposite-Spin Scale   =       1.2000000000000000 [-]
	 SCS Same-Spin Energy      =      -0.0621153381803888 [Eh]
	 SCS Opposite-Spin Energy  =      -0.7738638646521049 [Eh]
	 SCS Correlation Energy    =      -0.8359792028324937 [Eh]
	 SCS Total Energy          =    -578.0865064553167940 [Eh]
	-----------------------------------------------------------

  Dipole Moment: [D]
     X:    -2.0908      Y:     0.0000      Z:     0.4761     Total:     2.1443

*** Psi4 exiting successfully. Buy a developer a beer!
