                               Psi4 1.3.2 release

  ==> Input File <==

--------------------------------------------------------------------------
#psi4
#
memory 32 gb

molecule  {
0 1
 Cl        1.2258420     0.0000130    -0.0722650
  C       -0.5078580     0.0000110     0.4087150
  C       -1.1682105    -1.2548272    -0.1284135
  C       -1.1723440     1.2629730    -0.1036980
  H       -0.4909943     0.0169689     1.5008927
  H       -0.6755810    -2.1546730     0.2828190
  H       -2.2185910    -1.2788520     0.2166160
  H       -1.1404100    -1.2929320    -1.1952960
  H       -0.6756180     2.1546720     0.2826010
  H       -2.2185470     1.2788410     0.2165190
  H       -1.1404690     1.2927960    -1.1954080
units angstrom
no_reorient  #important for SAPT in psi4, default
symmetry c1  #important for SAPT in psi4, default
}

set PROPERTIES_ORIGIN ["COM"]
properties('MP2/aug-cc-pvtz', properties = ['dipole'])
--------------------------------------------------------------------------

    Molecular point group: c1
  Charge       = 0
  Multiplicity = 1
  Basis Set: AUG-CC-PVTZ
    Blend: AUG-CC-PVTZ
  Basis Set: (AUG-CC-PVTZ AUX)
    Blend: AUG-CC-PVTZ-JKFIT

    Orbital Energies [Eh]
    ---------------------

    Doubly Occupied:

       1A   -104.814825     2A    -11.297959     3A    -11.230680
       4A    -11.229851     5A    -10.539654     6A     -8.006418
       7A     -8.004715     8A     -8.004710     9A     -1.147645
      10A     -1.016255    11A     -0.951181    12A     -0.798709
      13A     -0.649843    14A     -0.613038    15A     -0.589689
      16A     -0.557910    17A     -0.520990    18A     -0.507446
      19A     -0.489789    20A     -0.427494    21A     -0.426649

  @DF-RHF Final Energy:  -577.25003331560390

   => Energetics <=

    Nuclear Repulsion Energy =            166.6468022783594449
    One-Electron Energy =               -1124.1427687616537696
    Two-Electron Energy =                 380.2459331676903957
    Total Energy =                       -577.2500333156039005
  Basis Set: (AUG-CC-PVTZ AUX)
    Blend: AUG-CC-PVTZ-RI
    Molecular point group: c1

    Geometry (in Angstrom), charge = 0, multiplicity = 1:

       Center              X                  Y                   Z               Mass
    ------------   -----------------  -----------------  -----------------  -----------------
         CL           1.225096788716    -0.001464612901    -0.068443240821    34.968852682000
         C           -0.508603211284    -0.001466612901     0.412536759179    12.000000000000
         C           -1.168955711284    -1.256304812901    -0.124591740821    12.000000000000
         C           -1.173089211284     1.261495387099    -0.099876240821    12.000000000000
         H           -0.491739511284     0.015491287099     1.504714459179     1.007825032230
         H           -0.676326211284    -2.156150612901     0.286640759179     1.007825032230
         H           -2.219336211284    -1.280329612901     0.220437759179     1.007825032230
         H           -1.141155211284    -1.294409612901    -1.191474240821     1.007825032230
         H           -0.676363211284     2.153194387099     0.286422759179     1.007825032230
         H           -2.219292211284     1.277363387099     0.220340759179     1.007825032230
         H           -1.141214211284     1.291318387099    -1.191586240821     1.007825032230

  Basis Set: AUG-CC-PVTZ
    Blend: AUG-CC-PVTZ
  Basis Set: (AUG-CC-PVTZ AUX)
    Blend: AUG-CC-PVTZ-JKFIT
	 Reference Energy          =    -577.2500333156039005 [Eh]
	 Singles Energy            =      -0.0000000000000000 [Eh]
	 Same-Spin Energy          =      -0.1863649997682542 [Eh]
	 Opposite-Spin Energy      =      -0.6449267338970358 [Eh]
	 Correlation Energy        =      -0.8312917336652900 [Eh]
	 Total Energy              =    -578.0813250492691395 [Eh]

	 ================> DF-SCS-MP2 Energies <==================
	-----------------------------------------------------------
	 SCS Same-Spin Scale       =       0.3333333333333333 [-]
	 SCS Opposite-Spin Scale   =       1.2000000000000000 [-]
	 SCS Same-Spin Energy      =      -0.0621216665894181 [Eh]
	 SCS Opposite-Spin Energy  =      -0.7739120806764429 [Eh]
	 SCS Correlation Energy    =      -0.8360337472658610 [Eh]
	 SCS Total Energy          =    -578.0860670628698017 [Eh]
	-----------------------------------------------------------

  Dipole Moment: [D]
     X:    -2.0941      Y:    -0.0000      Z:     0.4642     Total:     2.1449

*** Psi4 exiting successfully. Buy a developer a beer!
