                               Psi4 1.3.2 release

  ==> Input File <==

--------------------------------------------------------------------------
#psi4
#
memory 32 gb

molecule  {
0 1
 Cl        1.2326638     0.0554588    -0.0435757
  C       -0.5078580     0.0000110     0.4087150
  C       -1.2178056    -1.2467368    -0.0819844
  C       -1.1723440     1.2629730    -0.1036980
  H       -0.4998300     0.0000750     1.5011250
  H       -0.6755810    -2.1546730     0.2828190
  H       -2.2185910    -1.2788520     0.2166160
  H       -1.1404100    -1.2929320    -1.1952960
  H       -0.6756180     2.1546720     0.2826010
  H       -2.2185470     1.2788410     0.2165190
  H       -1.1404690     1.2927960    -1.1954080
units angstrom
no_reorient  #important for SAPT in psi4, default
symmetry c1  #important for SAPT in psi4, default
}

set PROPERTIES_ORIGIN ["COM"]
properties('MP2/aug-cc-pvtz', properties = ['dipole'])
--------------------------------------------------------------------------

    Molecular point group: c1
  Charge       = 0
  Multiplicity = 1
  Basis Set: AUG-CC-PVTZ
    Blend: AUG-CC-PVTZ
  Basis Set: (AUG-CC-PVTZ AUX)
    Blend: AUG-CC-PVTZ-JKFIT

    Orbital Energies [Eh]
    ---------------------

    Doubly Occupied:

       1A   -104.817298     2A    -11.297459     3A    -11.231318
       4A    -11.228905     5A    -10.541897     6A     -8.008669
       7A     -8.006961     8A     -8.006951     9A     -1.147146
      10A     -1.018733    11A     -0.950542    12A     -0.797733
      13A     -0.649889    14A     -0.615633    15A     -0.593592
      16A     -0.553850    17A     -0.514587    18A     -0.503838
      19A     -0.495395    20A     -0.429435    21A     -0.427120

  @DF-RHF Final Energy:  -577.24699554395875

   => Energetics <=

    Nuclear Repulsion Energy =            166.2949547016289671
    One-Electron Energy =               -1123.4099995387846320
    Two-Electron Energy =                 379.8680492931970321
    Total Energy =                       -577.2469955439586329
  Basis Set: (AUG-CC-PVTZ AUX)
    Blend: AUG-CC-PVTZ-RI
    Molecular point group: c1

    Geometry (in Angstrom), charge = 0, multiplicity = 1:

       Center              X                  Y                   Z               Mass
    ------------   -----------------  -----------------  -----------------  -----------------
         CL           1.236603009708     0.028105247068    -0.059755769304    34.968852682000
         C           -0.503918790292    -0.027342552932     0.392534930696    12.000000000000
         C           -1.213866390292    -1.274090352932    -0.098164469304    12.000000000000
         C           -1.168404790292     1.235619447068    -0.119878069304    12.000000000000
         H           -0.495890790292    -0.027278552932     1.484944930696     1.007825032230
         H           -0.671641790292    -2.182026552932     0.266638930696     1.007825032230
         H           -2.214651790292    -1.306205552932     0.200435930696     1.007825032230
         H           -1.136470790292    -1.320285552932    -1.211476069304     1.007825032230
         H           -0.671678790292     2.127318447068     0.266420930696     1.007825032230
         H           -2.214607790292     1.251487447068     0.200338930696     1.007825032230
         H           -1.136529790292     1.265442447068    -1.211588069304     1.007825032230

  Basis Set: AUG-CC-PVTZ
    Blend: AUG-CC-PVTZ
  Basis Set: (AUG-CC-PVTZ AUX)
    Blend: AUG-CC-PVTZ-JKFIT
	 Reference Energy          =    -577.2469955439587466 [Eh]
	 Singles Energy            =      -0.0000000000000000 [Eh]
	 Same-Spin Energy          =      -0.1863939619342220 [Eh]
	 Opposite-Spin Energy      =      -0.6451292505975703 [Eh]
	 Correlation Energy        =      -0.8315232125317923 [Eh]
	 Total Energy              =    -578.0785187564905527 [Eh]

	 ================> DF-SCS-MP2 Energies <==================
	-----------------------------------------------------------
	 SCS Same-Spin Scale       =       0.3333333333333333 [-]
	 SCS Opposite-Spin Scale   =       1.2000000000000000 [-]
	 SCS Same-Spin Energy      =      -0.0621313206447407 [Eh]
	 SCS Opposite-Spin Energy  =      -0.7741551007170844 [Eh]
	 SCS Correlation Energy    =      -0.8362864213618251 [Eh]
	 SCS Total Energy          =    -578.0832819653205661 [Eh]
	-----------------------------------------------------------

  Dipole Moment: [D]
     X:    -2.0779      Y:    -0.0505      Z:     0.4549     Total:     2.1277

*** Psi4 exiting successfully. Buy a developer a beer!
