                               Psi4 1.3.2 release

  ==> Input File <==

--------------------------------------------------------------------------
#psi4
#
memory 32 gb

molecule  {
0 1
 Cl        1.2258420     0.0000130    -0.0722650
  C       -0.4905456    -0.0148242     0.4221520
  C       -1.1723130    -1.2630170    -0.1035850
  C       -1.1723440     1.2629730    -0.1036980
  H       -0.4998300     0.0000750     1.5011250
  H       -0.6633440    -2.1435540     0.2922765
  H       -2.2185910    -1.2788520     0.2166160
  H       -1.1404100    -1.2929320    -1.1952960
  H       -0.6756180     2.1546720     0.2826010
  H       -2.2185470     1.2788410     0.2165190
  H       -1.1404690     1.2927960    -1.1954080
units angstrom
no_reorient  #important for SAPT in psi4, default
symmetry c1  #important for SAPT in psi4, default
}

set PROPERTIES_ORIGIN ["COM"]
properties('MP2/aug-cc-pvtz', properties = ['dipole'])
--------------------------------------------------------------------------

    Molecular point group: c1
  Charge       = 0
  Multiplicity = 1
  Basis Set: AUG-CC-PVTZ
    Blend: AUG-CC-PVTZ
  Basis Set: (AUG-CC-PVTZ AUX)
    Blend: AUG-CC-PVTZ-JKFIT

    Orbital Energies [Eh]
    ---------------------

    Doubly Occupied:

       1A   -104.816987     2A    -11.296291     3A    -11.230208
       4A    -11.229793     5A    -10.541854     6A     -8.008648
       7A     -8.006912     8A     -8.006905     9A     -1.148684
      10A     -1.014967    11A     -0.948588    12A     -0.800086
      13A     -0.648194    14A     -0.612879    15A     -0.589639
      16A     -0.553439    17A     -0.520233    18A     -0.505832
      19A     -0.495625    20A     -0.429050    21A     -0.426081

  @DF-RHF Final Energy:  -577.25016885091543

   => Energetics <=

    Nuclear Repulsion Energy =            166.5993812667080647
    One-Electron Energy =               -1124.0373061627562947
    Two-Electron Energy =                 380.1877560451328009
    Total Energy =                       -577.2501688509154292
  Basis Set: (AUG-CC-PVTZ AUX)
    Blend: AUG-CC-PVTZ-RI
    Molecular point group: c1

    Geometry (in Angstrom), charge = 0, multiplicity = 1:

       Center              X                  Y                   Z               Mass
    ------------   -----------------  -----------------  -----------------  -----------------
         CL           1.223021177525     0.002151216001    -0.074453620441    34.968852682000
         C           -0.493366422475    -0.012685983999     0.419963379559    12.000000000000
         C           -1.175133822475    -1.260878783999    -0.105773620441    12.000000000000
         C           -1.175164822475     1.265111216001    -0.105886620441    12.000000000000
         H           -0.502650822475     0.002213216001     1.498936379559     1.007825032230
         H           -0.666164822475    -2.141415783999     0.290087879559     1.007825032230
         H           -2.221411822475    -1.276713783999     0.214427379559     1.007825032230
         H           -1.143230822475    -1.290793783999    -1.197484620441     1.007825032230
         H           -0.678438822475     2.156810216001     0.280412379559     1.007825032230
         H           -2.221367822475     1.280979216001     0.214330379559     1.007825032230
         H           -1.143289822475     1.294934216001    -1.197596620441     1.007825032230

  Basis Set: AUG-CC-PVTZ
    Blend: AUG-CC-PVTZ
  Basis Set: (AUG-CC-PVTZ AUX)
    Blend: AUG-CC-PVTZ-JKFIT
	 Reference Energy          =    -577.2501688509154292 [Eh]
	 Singles Energy            =      -0.0000000000000000 [Eh]
	 Same-Spin Energy          =      -0.1863039653061255 [Eh]
	 Opposite-Spin Energy      =      -0.6449405207378445 [Eh]
	 Correlation Energy        =      -0.8312444860439699 [Eh]
	 Total Energy              =    -578.0814133369593719 [Eh]

	 ================> DF-SCS-MP2 Energies <==================
	-----------------------------------------------------------
	 SCS Same-Spin Scale       =       0.3333333333333333 [-]
	 SCS Opposite-Spin Scale   =       1.2000000000000000 [-]
	 SCS Same-Spin Energy      =      -0.0621013217687085 [Eh]
	 SCS Opposite-Spin Energy  =      -0.7739286248854134 [Eh]
	 SCS Correlation Energy    =      -0.8360299466541219 [Eh]
	 SCS Total Energy          =    -578.0861987975695229 [Eh]
	-----------------------------------------------------------

  Dipole Moment: [D]
     X:    -2.0266      Y:    -0.0140      Z:     0.4738     Total:     2.0813

*** Psi4 exiting successfully. Buy a developer a beer!
