                               Psi4 1.4a3.dev225

  ==> Input File <==

--------------------------------------------------------------------------
#psi4
#
memory 32 gb

molecule  {
0 1
 Cl        1.3436760     0.0000000    -0.0570310
  C       -0.3997810     0.0000000     0.4022540
  C       -1.0780386    -1.3070810    -0.1369128
  C       -1.0564130     1.2654060    -0.1197220
  H       -0.4039850     0.0000000     1.4949590
  H       -0.5598110    -2.1568730     0.2689710
  H       -2.1057750    -1.2863280     0.1915640
  H       -1.0158470    -1.2927240    -1.2116860
  H       -0.5598100     2.1568730     0.2689710
  H       -2.1057740     1.2863280     0.1915650
  H       -1.0158470     1.2927230    -1.2116860
units angstrom
no_reorient  #important for SAPT in psi4, default
symmetry c1  #important for SAPT in psi4, default
}

set PROPERTIES_ORIGIN ["COM"]
properties('MP2/aug-cc-pvtz', properties = ['dipole'])
--------------------------------------------------------------------------

    Molecular point group: c1
  Charge       = 0
  Multiplicity = 1
  Basis Set: AUG-CC-PVTZ
    Blend: AUG-CC-PVTZ
  Basis Set: (AUG-CC-PVTZ AUX)
    Blend: AUG-CC-PVTZ-JKFIT

    Orbital Energies [Eh]
    ---------------------

    Doubly Occupied:

       1A   -104.815121     2A    -11.300169     3A    -11.230686
       4A    -11.229523     5A    -10.539774     6A     -8.006534
       7A     -8.004851     8A     -8.004844     9A     -1.142011
      10A     -1.013145    11A     -0.951713    12A     -0.797756
      13A     -0.646279    14A     -0.614459    15A     -0.587010
      16A     -0.559755    17A     -0.522346    18A     -0.507702
      19A     -0.491447    20A     -0.427099    21A     -0.424097

  @DF-RHF Final Energy:  -577.24919908865093

   => Energetics <=

    Nuclear Repulsion Energy =            165.6033485882001912
    One-Electron Energy =               -1122.0724524534616648
    Two-Electron Energy =                 379.2199047766105764
    Total Energy =                       -577.2491990886508120
  Basis Set: (AUG-CC-PVTZ AUX)
    Blend: AUG-CC-PVTZ-RI
    Molecular point group: c1

    Geometry (in Angstrom), charge = 0, multiplicity = 1:

       Center              X                  Y                   Z               Mass
    ------------   -----------------  -----------------  -----------------  -----------------
         CL           1.231551092620     0.006409609771    -0.053772016849    34.968852682000
         C           -0.511905907380     0.006409609771     0.405512983151    12.000000000000
         C           -1.190163507380    -1.300671390229    -0.133653816849    12.000000000000
         C           -1.168537907380     1.271815609771    -0.116463016849    12.000000000000
         H           -0.516109907380     0.006409609771     1.498217983151     1.007825032230
         H           -0.671935907380    -2.150463390229     0.272229983151     1.007825032230
         H           -2.217899907380    -1.279918390229     0.194822983151     1.007825032230
         H           -1.127971907380    -1.286314390229    -1.208427016849     1.007825032230
         H           -0.671934907380     2.163282609771     0.272229983151     1.007825032230
         H           -2.217898907380     1.292737609771     0.194823983151     1.007825032230
         H           -1.127971907380     1.299132609771    -1.208427016849     1.007825032230

  Basis Set: AUG-CC-PVTZ
    Blend: AUG-CC-PVTZ
  Basis Set: (AUG-CC-PVTZ AUX)
    Blend: AUG-CC-PVTZ-JKFIT
	 Reference Energy          =    -577.2491990886509257 [Eh]
	 Singles Energy            =      -0.0000000000000000 [Eh]
	 Same-Spin Energy          =      -0.1859898447824570 [Eh]
	 Opposite-Spin Energy      =      -0.6447129357213907 [Eh]
	 Correlation Energy        =      -0.8307027805038476 [Eh]
	 Total Energy              =    -578.0799018691548099 [Eh]

	 ================> DF-SCS-MP2 Energies <==================
	-----------------------------------------------------------
	 SCS Same-Spin Scale       =       0.3333333333333333 [-]
	 SCS Opposite-Spin Scale   =       1.2000000000000000 [-]
	 SCS Same-Spin Energy      =      -0.0619966149274857 [Eh]
	 SCS Opposite-Spin Energy  =      -0.7736555228656687 [Eh]
	 SCS Correlation Energy    =      -0.8356521377931544 [Eh]
	 SCS Total Energy          =    -578.0848512264441297 [Eh]
	-----------------------------------------------------------

  Dipole Moment: [D]
     X:    -2.0990      Y:     0.0151      Z:     0.4488     Total:     2.1465

*** Psi4 exiting successfully. Buy a developer a beer!
