                               Psi4 1.3.2 release

  ==> Input File <==

--------------------------------------------------------------------------
#psi4
#
memory 32 gb

molecule  {
0 1
 Cl        1.1982935     0.0000073    -0.1623407
  C       -0.5078580     0.0000110     0.4087150
  C       -1.1723130    -1.2630170    -0.1035850
  C       -1.1723440     1.2629730    -0.1036980
  H       -0.5570133     0.0000739     1.5000480
  H       -0.6755810    -2.1546730     0.2828190
  H       -2.2185910    -1.2788520     0.2166160
  H       -1.1404100    -1.2929320    -1.1952960
  H       -0.6756180     2.1546720     0.2826010
  H       -2.2185470     1.2788410     0.2165190
  H       -1.1404690     1.2927960    -1.1954080
units angstrom
no_reorient  #important for SAPT in psi4, default
symmetry c1  #important for SAPT in psi4, default
}

set PROPERTIES_ORIGIN ["COM"]
properties('MP2/aug-cc-pvtz', properties = ['dipole'])
--------------------------------------------------------------------------

    Molecular point group: c1
  Charge       = 0
  Multiplicity = 1
  Basis Set: AUG-CC-PVTZ
    Blend: AUG-CC-PVTZ
  Basis Set: (AUG-CC-PVTZ AUX)
    Blend: AUG-CC-PVTZ-JKFIT

    Orbital Energies [Eh]
    ---------------------

    Doubly Occupied:

       1A   -104.816963     2A    -11.297824     3A    -11.229154
       4A    -11.229137     5A    -10.541636     6A     -8.008398
       7A     -8.006692     8A     -8.006690     9A     -1.148321
      10A     -1.016064    11A     -0.951035    12A     -0.797604
      13A     -0.650759    14A     -0.613955    15A     -0.589608
      16A     -0.554291    17A     -0.512314    18A     -0.510820
      19A     -0.493920    20A     -0.429179    21A     -0.427439

  @DF-RHF Final Energy:  -577.24925948692305

   => Energetics <=

    Nuclear Repulsion Energy =            166.9751537959168104
    One-Electron Energy =               -1124.7852201309538032
    Two-Electron Energy =                 380.5608068481139412
    Total Energy =                       -577.2492594869229379
  Basis Set: (AUG-CC-PVTZ AUX)
    Blend: AUG-CC-PVTZ-RI
    Molecular point group: c1

    Geometry (in Angstrom), charge = 0, multiplicity = 1:

       Center              X                  Y                   Z               Mass
    ------------   -----------------  -----------------  -----------------  -----------------
         CL           1.211378779144     0.000010060795    -0.121956257570    34.968852682000
         C           -0.494772720856     0.000013760795     0.449099442430    12.000000000000
         C           -1.159227720856    -1.263014239205    -0.063200557570    12.000000000000
         C           -1.159258720856     1.262975760795    -0.063313557570    12.000000000000
         H           -0.543928020856     0.000076660795     1.540432442430     1.007825032230
         H           -0.662495720856    -2.154670239205     0.323203442430     1.007825032230
         H           -2.205505720856    -1.278849239205     0.257000442430     1.007825032230
         H           -1.127324720856    -1.292929239205    -1.154911557570     1.007825032230
         H           -0.662532720856     2.154674760795     0.322985442430     1.007825032230
         H           -2.205461720856     1.278843760795     0.256903442430     1.007825032230
         H           -1.127383720856     1.292798760795    -1.155023557570     1.007825032230

  Basis Set: AUG-CC-PVTZ
    Blend: AUG-CC-PVTZ
  Basis Set: (AUG-CC-PVTZ AUX)
    Blend: AUG-CC-PVTZ-JKFIT
	 Reference Energy          =    -577.2492594869230516 [Eh]
	 Singles Energy            =      -0.0000000000000000 [Eh]
	 Same-Spin Energy          =      -0.1865001635222847 [Eh]
	 Opposite-Spin Energy      =      -0.6452312633746954 [Eh]
	 Correlation Energy        =      -0.8317314268969801 [Eh]
	 Total Energy              =    -578.0809909138200737 [Eh]

	 ================> DF-SCS-MP2 Energies <==================
	-----------------------------------------------------------
	 SCS Same-Spin Scale       =       0.3333333333333333 [-]
	 SCS Opposite-Spin Scale   =       1.2000000000000000 [-]
	 SCS Same-Spin Energy      =      -0.0621667211740949 [Eh]
	 SCS Opposite-Spin Energy  =      -0.7742775160496345 [Eh]
	 SCS Correlation Energy    =      -0.8364442372237294 [Eh]
	 SCS Total Energy          =    -578.0857037241468106 [Eh]
	-----------------------------------------------------------

  Dipole Moment: [D]
     X:    -2.0304      Y:     0.0000      Z:     0.5398     Total:     2.1009

*** Psi4 exiting successfully. Buy a developer a beer!
