                               Psi4 1.3.2 release

  ==> Input File <==

--------------------------------------------------------------------------
#psi4
#
memory 32 gb

molecule  {
0 1
 Cl        1.2171837     0.0000111    -0.1024490
  C       -0.5078580     0.0000110     0.4087150
  C       -1.1723130    -1.2630170    -0.1035850
  C       -1.1723440     1.2629730    -0.1036980
  H       -0.5188964     0.0000747     1.5010987
  H       -0.6755810    -2.1546730     0.2828190
  H       -2.2185910    -1.2788520     0.2166160
  H       -1.1404100    -1.2929320    -1.1952960
  H       -0.6756180     2.1546720     0.2826010
  H       -2.2185470     1.2788410     0.2165190
  H       -1.1404690     1.2927960    -1.1954080
units angstrom
no_reorient  #important for SAPT in psi4, default
symmetry c1  #important for SAPT in psi4, default
}

set PROPERTIES_ORIGIN ["COM"]
properties('MP2/aug-cc-pvtz', properties = ['dipole'])
--------------------------------------------------------------------------

    Molecular point group: c1
  Charge       = 0
  Multiplicity = 1
  Basis Set: AUG-CC-PVTZ
    Blend: AUG-CC-PVTZ
  Basis Set: (AUG-CC-PVTZ AUX)
    Blend: AUG-CC-PVTZ-JKFIT

    Orbital Energies [Eh]
    ---------------------

    Doubly Occupied:

       1A   -104.815918     2A    -11.297785     3A    -11.229873
       4A    -11.229855     5A    -10.540652     6A     -8.007417
       7A     -8.005714     8A     -8.005710     9A     -1.147666
      10A     -1.016308    11A     -0.951330    12A     -0.797808
      13A     -0.649845    14A     -0.614619    15A     -0.589843
      16A     -0.554377    17A     -0.515621    18A     -0.511082
      19A     -0.492118    20A     -0.428115    21A     -0.427430

  @DF-RHF Final Energy:  -577.25064885182701

   => Energetics <=

    Nuclear Repulsion Energy =            166.6942929182298769
    One-Electron Energy =               -1124.2317166330417422
    Two-Electron Energy =                 380.2867748629849984
    Total Energy =                       -577.2506488518268952
  Basis Set: (AUG-CC-PVTZ AUX)
    Blend: AUG-CC-PVTZ-RI
    Molecular point group: c1

    Geometry (in Angstrom), charge = 0, multiplicity = 1:

       Center              X                  Y                   Z               Mass
    ------------   -----------------  -----------------  -----------------  -----------------
         CL           1.221310362304     0.000012147366    -0.088920562758    34.968852682000
         C           -0.503731337696     0.000012047366     0.422243437242    12.000000000000
         C           -1.168186337696    -1.263015952634    -0.090056562758    12.000000000000
         C           -1.168217337696     1.262974047366    -0.090169562758    12.000000000000
         H           -0.514769737696     0.000075747366     1.514627137242     1.007825032230
         H           -0.671454337696    -2.154671952634     0.296347437242     1.007825032230
         H           -2.214464337696    -1.278850952634     0.230144437242     1.007825032230
         H           -1.136283337696    -1.292930952634    -1.181767562758     1.007825032230
         H           -0.671491337696     2.154673047366     0.296129437242     1.007825032230
         H           -2.214420337696     1.278842047366     0.230047437242     1.007825032230
         H           -1.136342337696     1.292797047366    -1.181879562758     1.007825032230

  Basis Set: AUG-CC-PVTZ
    Blend: AUG-CC-PVTZ
  Basis Set: (AUG-CC-PVTZ AUX)
    Blend: AUG-CC-PVTZ-JKFIT
	 Reference Energy          =    -577.2506488518270089 [Eh]
	 Singles Energy            =      -0.0000000000000000 [Eh]
	 Same-Spin Energy          =      -0.1863815314446637 [Eh]
	 Opposite-Spin Energy      =      -0.6449849415309508 [Eh]
	 Correlation Energy        =      -0.8313664729756145 [Eh]
	 Total Energy              =    -578.0820153248025690 [Eh]

	 ================> DF-SCS-MP2 Energies <==================
	-----------------------------------------------------------
	 SCS Same-Spin Scale       =       0.3333333333333333 [-]
	 SCS Opposite-Spin Scale   =       1.2000000000000000 [-]
	 SCS Same-Spin Energy      =      -0.0621271771482212 [Eh]
	 SCS Opposite-Spin Energy  =      -0.7739819298371409 [Eh]
	 SCS Correlation Energy    =      -0.8361091069853621 [Eh]
	 SCS Total Energy          =    -578.0867579588124272 [Eh]
	-----------------------------------------------------------

  Dipole Moment: [D]
     X:    -2.0695      Y:     0.0000      Z:     0.4950     Total:     2.1279

*** Psi4 exiting successfully. Buy a developer a beer!
