                               Psi4 1.3.2 release

  ==> Input File <==

--------------------------------------------------------------------------
#psi4
#
memory 32 gb

molecule  {
0 1
 Cl        1.2258420     0.0000130    -0.0722650
  C       -0.3151371     0.0000112     0.3552485
  C       -1.1723130    -1.2630170    -0.1035850
  C       -1.1723440     1.2629730    -0.1036980
  H       -0.4998300     0.0000750     1.5011250
  H       -0.6755810    -2.1546730     0.2828190
  H       -2.2185910    -1.2788520     0.2166160
  H       -1.1404100    -1.2929320    -1.1952960
  H       -0.6756180     2.1546720     0.2826010
  H       -2.2185470     1.2788410     0.2165190
  H       -1.1404690     1.2927960    -1.1954080
units angstrom
no_reorient  #important for SAPT in psi4, default
symmetry c1  #important for SAPT in psi4, default
}

set PROPERTIES_ORIGIN ["COM"]
properties('MP2/aug-cc-pvtz', properties = ['dipole'])
--------------------------------------------------------------------------

    Molecular point group: c1
  Charge       = 0
  Multiplicity = 1
  Basis Set: AUG-CC-PVTZ
    Blend: AUG-CC-PVTZ
  Basis Set: (AUG-CC-PVTZ AUX)
    Blend: AUG-CC-PVTZ-JKFIT

    Orbital Energies [Eh]
    ---------------------

    Doubly Occupied:

       1A   -104.833307     2A    -11.293548     3A    -11.227710
       4A    -11.227694     5A    -10.561394     6A     -8.028765
       7A     -8.026208     8A     -8.026196     9A     -1.194779
      10A     -1.004645    11A     -0.934596    12A     -0.786754
      13A     -0.647033    14A     -0.604477    15A     -0.594572
      16A     -0.544754    17A     -0.544017    18A     -0.514707
      19A     -0.497714    20A     -0.413805    21A     -0.412572

  @DF-RHF Final Energy:  -577.21300156261486

   => Energetics <=

    Nuclear Repulsion Energy =            168.6606815558403980
    One-Electron Energy =               -1127.9088747222403981
    Two-Electron Energy =                 382.0351916037851083
    Total Energy =                       -577.2130015626148634
  Basis Set: (AUG-CC-PVTZ AUX)
    Blend: AUG-CC-PVTZ-RI
    Molecular point group: c1

    Geometry (in Angstrom), charge = 0, multiplicity = 1:

       Center              X                  Y                   Z               Mass
    ------------   -----------------  -----------------  -----------------  -----------------
         CL           1.196201490961     0.000013161184    -0.064041729491    34.968852682000
         C           -0.344777609039     0.000011361184     0.363471770509    12.000000000000
         C           -1.201953509039    -1.263016838816    -0.095361729491    12.000000000000
         C           -1.201984509039     1.262973161184    -0.095474729491    12.000000000000
         H           -0.529470509039     0.000075161184     1.509348270509     1.007825032230
         H           -0.705221509039    -2.154672838816     0.291042270509     1.007825032230
         H           -2.248231509039    -1.278851838816     0.224839270509     1.007825032230
         H           -1.170050509039    -1.292931838816    -1.187072729491     1.007825032230
         H           -0.705258509039     2.154672161184     0.290824270509     1.007825032230
         H           -2.248187509039     1.278841161184     0.224742270509     1.007825032230
         H           -1.170109509039     1.292796161184    -1.187184729491     1.007825032230

  Basis Set: AUG-CC-PVTZ
    Blend: AUG-CC-PVTZ
  Basis Set: (AUG-CC-PVTZ AUX)
    Blend: AUG-CC-PVTZ-JKFIT
	 Reference Energy          =    -577.2130015626148634 [Eh]
	 Singles Energy            =      -0.0000000000000000 [Eh]
	 Same-Spin Energy          =      -0.1884900586005099 [Eh]
	 Opposite-Spin Energy      =      -0.6481973484434127 [Eh]
	 Correlation Energy        =      -0.8366874070439226 [Eh]
	 Total Energy              =    -578.0496889696587459 [Eh]

	 ================> DF-SCS-MP2 Energies <==================
	-----------------------------------------------------------
	 SCS Same-Spin Scale       =       0.3333333333333333 [-]
	 SCS Opposite-Spin Scale   =       1.2000000000000000 [-]
	 SCS Same-Spin Energy      =      -0.0628300195335033 [Eh]
	 SCS Opposite-Spin Energy  =      -0.7778368181320953 [Eh]
	 SCS Correlation Energy    =      -0.8406668376655986 [Eh]
	 SCS Total Energy          =    -578.0536684002804577 [Eh]
	-----------------------------------------------------------

  Dipole Moment: [D]
     X:    -1.3642      Y:     0.0000      Z:     0.3654     Total:     1.4123

*** Psi4 exiting successfully. Buy a developer a beer!
