                               Psi4 1.3.2 release

  ==> Input File <==

--------------------------------------------------------------------------
#psi4
#
memory 32 gb

molecule  {
0 1
 Cl        1.2258420     0.0000130    -0.0722650
  C       -0.5078580     0.0000110     0.4087150
  C       -1.1723130    -1.2630170    -0.1035850
  C       -1.1723440     1.2629730    -0.1036980
  H       -0.5005649     0.0000691     1.4011277
  H       -0.6755810    -2.1546730     0.2828190
  H       -2.2185910    -1.2788520     0.2166160
  H       -1.1404100    -1.2929320    -1.1952960
  H       -0.6756180     2.1546720     0.2826010
  H       -2.2185470     1.2788410     0.2165190
  H       -1.1404690     1.2927960    -1.1954080
units angstrom
no_reorient  #important for SAPT in psi4, default
symmetry c1  #important for SAPT in psi4, default
}

set PROPERTIES_ORIGIN ["COM"]
properties('MP2/aug-cc-pvtz', properties = ['dipole'])
--------------------------------------------------------------------------

    Molecular point group: c1
  Charge       = 0
  Multiplicity = 1
  Basis Set: AUG-CC-PVTZ
    Blend: AUG-CC-PVTZ
  Basis Set: (AUG-CC-PVTZ AUX)
    Blend: AUG-CC-PVTZ-JKFIT

    Orbital Energies [Eh]
    ---------------------

    Doubly Occupied:

       1A   -104.814707     2A    -11.285835     3A    -11.229612
       4A    -11.229594     5A    -10.539506     6A     -8.006273
       7A     -8.004580     8A     -8.004571     9A     -1.150832
      10A     -1.017322    11A     -0.951095    12A     -0.816124
      13A     -0.655013    14A     -0.614677    15A     -0.589660
      16A     -0.554199    17A     -0.522639    18A     -0.510685
      19A     -0.492937    20A     -0.429831    21A     -0.426932

  @DF-RHF Final Energy:  -577.24519470484279

   => Energetics <=

    Nuclear Repulsion Energy =            167.0993976822520608
    One-Electron Energy =               -1124.9959439439164726
    Two-Electron Energy =                 380.6513515568216235
    Total Energy =                       -577.2451947048427883
  Basis Set: (AUG-CC-PVTZ AUX)
    Blend: AUG-CC-PVTZ-RI
    Molecular point group: c1

    Geometry (in Angstrom), charge = 0, multiplicity = 1:

       Center              X                  Y                   Z               Mass
    ------------   -----------------  -----------------  -----------------  -----------------
         CL           1.225851374113     0.000013268154    -0.070973196694    34.968852682000
         C           -0.507848625887     0.000011268154     0.410006803306    12.000000000000
         C           -1.172303625887    -1.263016731846    -0.102293196694    12.000000000000
         C           -1.172334625887     1.262973268154    -0.102406196694    12.000000000000
         H           -0.500555525887     0.000069368154     1.402419503306     1.007825032230
         H           -0.675571625887    -2.154672731846     0.284110803306     1.007825032230
         H           -2.218581625887    -1.278851731846     0.217907803306     1.007825032230
         H           -1.140400625887    -1.292931731846    -1.194004196694     1.007825032230
         H           -0.675608625887     2.154672268154     0.283892803306     1.007825032230
         H           -2.218537625887     1.278841268154     0.217810803306     1.007825032230
         H           -1.140459625887     1.292796268154    -1.194116196694     1.007825032230

  Basis Set: AUG-CC-PVTZ
    Blend: AUG-CC-PVTZ
  Basis Set: (AUG-CC-PVTZ AUX)
    Blend: AUG-CC-PVTZ-JKFIT
	 Reference Energy          =    -577.2451947048427883 [Eh]
	 Singles Energy            =      -0.0000000000000000 [Eh]
	 Same-Spin Energy          =      -0.1862122165455190 [Eh]
	 Opposite-Spin Energy      =      -0.6443262187110024 [Eh]
	 Correlation Energy        =      -0.8305384352565214 [Eh]
	 Total Energy              =    -578.0757331400992598 [Eh]

	 ================> DF-SCS-MP2 Energies <==================
	-----------------------------------------------------------
	 SCS Same-Spin Scale       =       0.3333333333333333 [-]
	 SCS Opposite-Spin Scale   =       1.2000000000000000 [-]
	 SCS Same-Spin Energy      =      -0.0620707388485063 [Eh]
	 SCS Opposite-Spin Energy  =      -0.7731914624532028 [Eh]
	 SCS Correlation Energy    =      -0.8352622013017091 [Eh]
	 SCS Total Energy          =    -578.0804569061444909 [Eh]
	-----------------------------------------------------------

  Dipole Moment: [D]
     X:    -2.1014      Y:     0.0000      Z:     0.5022     Total:     2.1605

*** Psi4 exiting successfully. Buy a developer a beer!
