                               Psi4 1.3.2 release

  ==> Input File <==

--------------------------------------------------------------------------
#psi4
#
memory 32 gb

molecule  {
0 1
 Cl        1.2486386     0.0000187     0.0191290
  C       -0.5078580     0.0000110     0.4087150
  C       -1.1723130    -1.2630170    -0.1035850
  C       -1.1723440     1.2629730    -0.1036980
  H       -0.4426687     0.0000759     1.4992077
  H       -0.6755810    -2.1546730     0.2828190
  H       -2.2185910    -1.2788520     0.2166160
  H       -1.1404100    -1.2929320    -1.1952960
  H       -0.6756180     2.1546720     0.2826010
  H       -2.2185470     1.2788410     0.2165190
  H       -1.1404690     1.2927960    -1.1954080
units angstrom
no_reorient  #important for SAPT in psi4, default
symmetry c1  #important for SAPT in psi4, default
}

set PROPERTIES_ORIGIN ["COM"]
properties('MP2/aug-cc-pvtz', properties = ['dipole'])
--------------------------------------------------------------------------

    Molecular point group: c1
  Charge       = 0
  Multiplicity = 1
  Basis Set: AUG-CC-PVTZ
    Blend: AUG-CC-PVTZ
  Basis Set: (AUG-CC-PVTZ AUX)
    Blend: AUG-CC-PVTZ-JKFIT

    Orbital Energies [Eh]
    ---------------------

    Doubly Occupied:

       1A   -104.813982     2A    -11.297597     3A    -11.231288
       4A    -11.231270     5A    -10.538865     6A     -8.005632
       7A     -8.003925     8A     -8.003909     9A     -1.146992
      10A     -1.016888    11A     -0.951948    12A     -0.798160
      13A     -0.648584    14A     -0.615730    15A     -0.590347
      16A     -0.554665    17A     -0.522459    18A     -0.511633
      19A     -0.488111    20A     -0.427453    21A     -0.424411

  @DF-RHF Final Energy:  -577.24981162749566

   => Energetics <=

    Nuclear Repulsion Energy =            166.2053388159376937
    One-Electron Energy =               -1123.2626055666273714
    Two-Electron Energy =                 379.8074551231940177
    Total Energy =                       -577.2498116274956601
  Basis Set: (AUG-CC-PVTZ AUX)
    Blend: AUG-CC-PVTZ-RI
    Molecular point group: c1

    Geometry (in Angstrom), charge = 0, multiplicity = 1:

       Center              X                  Y                   Z               Mass
    ------------   -----------------  -----------------  -----------------  -----------------
         CL           1.237683088096     0.000016325676    -0.021807312581    34.968852682000
         C           -0.518813511904     0.000008625676     0.367778687419    12.000000000000
         C           -1.183268511904    -1.263019374324    -0.144521312581    12.000000000000
         C           -1.183299511904     1.262970625676    -0.144634312581    12.000000000000
         H           -0.453624211904     0.000073525676     1.458271387419     1.007825032230
         H           -0.686536511904    -2.154675374324     0.241882687419     1.007825032230
         H           -2.229546511904    -1.278854374324     0.175679687419     1.007825032230
         H           -1.151365511904    -1.292934374324    -1.236232312581     1.007825032230
         H           -0.686573511904     2.154669625676     0.241664687419     1.007825032230
         H           -2.229502511904     1.278838625676     0.175582687419     1.007825032230
         H           -1.151424511904     1.292793625676    -1.236344312581     1.007825032230

  Basis Set: AUG-CC-PVTZ
    Blend: AUG-CC-PVTZ
  Basis Set: (AUG-CC-PVTZ AUX)
    Blend: AUG-CC-PVTZ-JKFIT
	 Reference Energy          =    -577.2498116274956601 [Eh]
	 Singles Energy            =      -0.0000000000000000 [Eh]
	 Same-Spin Energy          =      -0.1863213432258833 [Eh]
	 Opposite-Spin Energy      =      -0.6447964119250543 [Eh]
	 Correlation Energy        =      -0.8311177551509377 [Eh]
	 Total Energy              =    -578.0809293826465591 [Eh]

	 ================> DF-SCS-MP2 Energies <==================
	-----------------------------------------------------------
	 SCS Same-Spin Scale       =       0.3333333333333333 [-]
	 SCS Opposite-Spin Scale   =       1.2000000000000000 [-]
	 SCS Same-Spin Energy      =      -0.0621071144086278 [Eh]
	 SCS Opposite-Spin Energy  =      -0.7737556943100652 [Eh]
	 SCS Correlation Energy    =      -0.8358628087186930 [Eh]
	 SCS Total Energy          =    -578.0856744362143900 [Eh]
	-----------------------------------------------------------

  Dipole Moment: [D]
     X:    -2.1405      Y:     0.0000      Z:     0.3960     Total:     2.1769

*** Psi4 exiting successfully. Buy a developer a beer!
