                               Psi4 1.4a3.dev225

  ==> Input File <==

--------------------------------------------------------------------------
#psi4
#
memory 32 gb

molecule  {
0 1
 Cl        1.3436760     0.0000000    -0.0570310
  C       -0.3997810     0.0000000     0.4022540
  C       -1.0347874    -1.2237310    -0.1025312
  C       -1.0564130     1.2654060    -0.1197220
  H       -0.4039850     0.0000000     1.4949590
  H       -0.5598110    -2.1568730     0.2689710
  H       -2.1057750    -1.2863280     0.1915640
  H       -1.0158470    -1.2927240    -1.2116860
  H       -0.5598100     2.1568730     0.2689710
  H       -2.1057740     1.2863280     0.1915650
  H       -1.0158470     1.2927230    -1.2116860
units angstrom
no_reorient  #important for SAPT in psi4, default
symmetry c1  #important for SAPT in psi4, default
}

set PROPERTIES_ORIGIN ["COM"]
properties('MP2/aug-cc-pvtz', properties = ['dipole'])
--------------------------------------------------------------------------

    Molecular point group: c1
  Charge       = 0
  Multiplicity = 1
  Basis Set: AUG-CC-PVTZ
    Blend: AUG-CC-PVTZ
  Basis Set: (AUG-CC-PVTZ AUX)
    Blend: AUG-CC-PVTZ-JKFIT

    Orbital Energies [Eh]
    ---------------------

    Doubly Occupied:

       1A   -104.815365     2A    -11.296693     3A    -11.232713
       4A    -11.230869     5A    -10.540137     6A     -8.006893
       7A     -8.005190     8A     -8.005182     9A     -1.151265
      10A     -1.019199    11A     -0.951269    12A     -0.797956
      13A     -0.652427    14A     -0.615092    15A     -0.593151
      16A     -0.549899    17A     -0.520673    18A     -0.505478
      19A     -0.487086    20A     -0.429734    21A     -0.427571

  @DF-RHF Final Energy:  -577.24781955539970

   => Energetics <=

    Nuclear Repulsion Energy =            167.1102980513661294
    One-Electron Energy =               -1125.0485512963680321
    Two-Electron Energy =                 380.6904336896021164
    Total Energy =                       -577.2478195553997011
  Basis Set: (AUG-CC-PVTZ AUX)
    Blend: AUG-CC-PVTZ-RI
    Molecular point group: c1

    Geometry (in Angstrom), charge = 0, multiplicity = 1:

       Center              X                  Y                   Z               Mass
    ------------   -----------------  -----------------  -----------------  -----------------
         CL           1.224899076892    -0.006409583937    -0.059059891959    34.968852682000
         C           -0.518557923108    -0.006409583937     0.400225108041    12.000000000000
         C           -1.153564323108    -1.230140583937    -0.104560091959    12.000000000000
         C           -1.175189923108     1.258996416063    -0.121750891959    12.000000000000
         H           -0.522761923108    -0.006409583937     1.492930108041     1.007825032230
         H           -0.678587923108    -2.163282583937     0.266942108041     1.007825032230
         H           -2.224551923108    -1.292737583937     0.189535108041     1.007825032230
         H           -1.134623923108    -1.299133583937    -1.213714891959     1.007825032230
         H           -0.678586923108     2.150463416063     0.266942108041     1.007825032230
         H           -2.224550923108     1.279918416063     0.189536108041     1.007825032230
         H           -1.134623923108     1.286313416063    -1.213714891959     1.007825032230

  Basis Set: AUG-CC-PVTZ
    Blend: AUG-CC-PVTZ
  Basis Set: (AUG-CC-PVTZ AUX)
    Blend: AUG-CC-PVTZ-JKFIT
	 Reference Energy          =    -577.2478195553997011 [Eh]
	 Singles Energy            =      -0.0000000000000000 [Eh]
	 Same-Spin Energy          =      -0.1867368751856749 [Eh]
	 Opposite-Spin Energy      =      -0.6453841597244661 [Eh]
	 Correlation Energy        =      -0.8321210349101409 [Eh]
	 Total Energy              =    -578.0799405903098886 [Eh]

	 ================> DF-SCS-MP2 Energies <==================
	-----------------------------------------------------------
	 SCS Same-Spin Scale       =       0.3333333333333333 [-]
	 SCS Opposite-Spin Scale   =       1.2000000000000000 [-]
	 SCS Same-Spin Energy      =      -0.0622456250618916 [Eh]
	 SCS Opposite-Spin Energy  =      -0.7744609916693592 [Eh]
	 SCS Correlation Energy    =      -0.8367066167312508 [Eh]
	 SCS Total Energy          =    -578.0845261721309498 [Eh]
	-----------------------------------------------------------

  Dipole Moment: [D]
     X:    -2.1112      Y:    -0.0124      Z:     0.4426     Total:     2.1571

*** Psi4 exiting successfully. Buy a developer a beer!
