                               Psi4 1.3.2 release

  ==> Input File <==

--------------------------------------------------------------------------
#psi4
#
memory 32 gb

molecule  {
0 1
 Cl        1.2258420     0.0000130    -0.0722650
  C       -0.5078580     0.0000110     0.4087150
  C       -1.1284924    -1.1797208    -0.0697990
  C       -1.1723440     1.2629730    -0.1036980
  H       -0.4998300     0.0000750     1.5011250
  H       -0.6755810    -2.1546730     0.2828190
  H       -2.2185910    -1.2788520     0.2166160
  H       -1.1404100    -1.2929320    -1.1952960
  H       -0.6756180     2.1546720     0.2826010
  H       -2.2185470     1.2788410     0.2165190
  H       -1.1404690     1.2927960    -1.1954080
units angstrom
no_reorient  #important for SAPT in psi4, default
symmetry c1  #important for SAPT in psi4, default
}

set PROPERTIES_ORIGIN ["COM"]
properties('MP2/aug-cc-pvtz', properties = ['dipole'])
--------------------------------------------------------------------------

    Molecular point group: c1
  Charge       = 0
  Multiplicity = 1
  Basis Set: AUG-CC-PVTZ
    Blend: AUG-CC-PVTZ
  Basis Set: (AUG-CC-PVTZ AUX)
    Blend: AUG-CC-PVTZ-JKFIT

    Orbital Energies [Eh]
    ---------------------

    Doubly Occupied:

       1A   -104.815714     2A    -11.293576     3A    -11.234802
       4A    -11.230524     5A    -10.540603     6A     -8.007363
       7A     -8.005637     8A     -8.005628     9A     -1.158661
      10A     -1.023397    11A     -0.951795    12A     -0.797483
      13A     -0.657522    14A     -0.617572    15A     -0.597519
      16A     -0.546578    17A     -0.525829    18A     -0.496032
      19A     -0.482270    20A     -0.431507    21A     -0.427737

  @DF-RHF Final Energy:  -577.23881211190553

   => Energetics <=

    Nuclear Repulsion Energy =            168.1319389031903313
    One-Electron Energy =               -1127.0460055784647011
    Two-Electron Energy =                 381.6752545633688101
    Total Energy =                       -577.2388121119056450
  Basis Set: (AUG-CC-PVTZ AUX)
    Blend: AUG-CC-PVTZ-RI
    Molecular point group: c1

    Geometry (in Angstrom), charge = 0, multiplicity = 1:

       Center              X                  Y                   Z               Mass
    ------------   -----------------  -----------------  -----------------  -----------------
         CL           1.219102292268    -0.012797727348    -0.077461126001    34.968852682000
         C           -0.514597707732    -0.012799727348     0.403518873999    12.000000000000
         C           -1.135232107732    -1.192531527348    -0.074995126001    12.000000000000
         C           -1.179083707732     1.250162272652    -0.108894126001    12.000000000000
         H           -0.506569707732    -0.012735727348     1.495928873999     1.007825032230
         H           -0.682320707732    -2.167483727348     0.277622873999     1.007825032230
         H           -2.225330707732    -1.291662727348     0.211419873999     1.007825032230
         H           -1.147149707732    -1.305742727348    -1.200492126001     1.007825032230
         H           -0.682357707732     2.141861272652     0.277404873999     1.007825032230
         H           -2.225286707732     1.266030272652     0.211322873999     1.007825032230
         H           -1.147208707732     1.279985272652    -1.200604126001     1.007825032230

  Basis Set: AUG-CC-PVTZ
    Blend: AUG-CC-PVTZ
  Basis Set: (AUG-CC-PVTZ AUX)
    Blend: AUG-CC-PVTZ-JKFIT
	 Reference Energy          =    -577.2388121119055313 [Eh]
	 Singles Energy            =      -0.0000000000000000 [Eh]
	 Same-Spin Energy          =      -0.1874993506136568 [Eh]
	 Opposite-Spin Energy      =      -0.6462786335187056 [Eh]
	 Correlation Energy        =      -0.8337779841323625 [Eh]
	 Total Energy              =    -578.0725900960378567 [Eh]

	 ================> DF-SCS-MP2 Energies <==================
	-----------------------------------------------------------
	 SCS Same-Spin Scale       =       0.3333333333333333 [-]
	 SCS Opposite-Spin Scale   =       1.2000000000000000 [-]
	 SCS Same-Spin Energy      =      -0.0624997835378856 [Eh]
	 SCS Opposite-Spin Energy  =      -0.7755343602224467 [Eh]
	 SCS Correlation Energy    =      -0.8380341437603323 [Eh]
	 SCS Total Energy          =    -578.0768462556658278 [Eh]
	-----------------------------------------------------------

  Dipole Moment: [D]
     X:    -2.0995      Y:    -0.0223      Z:     0.4675     Total:     2.1510

*** Psi4 exiting successfully. Buy a developer a beer!
