                               Psi4 1.3.2 release

  ==> Input File <==

--------------------------------------------------------------------------
#psi4
#
memory 32 gb

molecule  {
0 1
 Cl        1.2258420     0.0000130    -0.0722650
  C       -0.5078580     0.0000110     0.4087150
  C       -1.2599541    -1.4296095    -0.1711570
  C       -1.1723440     1.2629730    -0.1036980
  H       -0.4998300     0.0000750     1.5011250
  H       -0.6755810    -2.1546730     0.2828190
  H       -2.2185910    -1.2788520     0.2166160
  H       -1.1404100    -1.2929320    -1.1952960
  H       -0.6756180     2.1546720     0.2826010
  H       -2.2185470     1.2788410     0.2165190
  H       -1.1404690     1.2927960    -1.1954080
units angstrom
no_reorient  #important for SAPT in psi4, default
symmetry c1  #important for SAPT in psi4, default
}

set PROPERTIES_ORIGIN ["COM"]
properties('MP2/aug-cc-pvtz', properties = ['dipole'])
--------------------------------------------------------------------------

    Molecular point group: c1
  Charge       = 0
  Multiplicity = 1
  Basis Set: AUG-CC-PVTZ
    Blend: AUG-CC-PVTZ
  Basis Set: (AUG-CC-PVTZ AUX)
    Blend: AUG-CC-PVTZ-JKFIT

    Orbital Energies [Eh]
    ---------------------

    Doubly Occupied:

       1A   -104.815298     2A    -11.302709     3A    -11.230283
       4A    -11.230051     5A    -10.539839     6A     -8.006605
       7A     -8.004936     8A     -8.004925     9A     -1.134526
      10A     -1.007274    11A     -0.954174    12A     -0.796437
      13A     -0.643213    14A     -0.620229    15A     -0.583098
      16A     -0.576588    17A     -0.534779    18A     -0.503981
      19A     -0.478645    20A     -0.426523    21A     -0.407213

  @DF-RHF Final Energy:  -577.22397284369072

   => Energetics <=

    Nuclear Repulsion Energy =            163.7012446346531078
    One-Electron Energy =               -1118.2477853909097121
    Two-Electron Energy =                 377.3225679125658871
    Total Energy =                       -577.2239728436907171
  Basis Set: (AUG-CC-PVTZ AUX)
    Blend: AUG-CC-PVTZ-RI
    Molecular point group: c1

    Geometry (in Angstrom), charge = 0, multiplicity = 1:

       Center              X                  Y                   Z               Mass
    ------------   -----------------  -----------------  -----------------  -----------------
         CL           1.239321044489     0.025635045908    -0.061872309733    34.968852682000
         C           -0.494378955511     0.025633045908     0.419107690267    12.000000000000
         C           -1.246475055511    -1.403987454092    -0.160764309733    12.000000000000
         C           -1.158864955511     1.288595045908    -0.093305309733    12.000000000000
         H           -0.486350955511     0.025697045908     1.511517690267     1.007825032230
         H           -0.662101955511    -2.129050954092     0.293211690267     1.007825032230
         H           -2.205111955511    -1.253229954092     0.227008690267     1.007825032230
         H           -1.126930955511    -1.267309954092    -1.184903309733     1.007825032230
         H           -0.662138955511     2.180294045908     0.292993690267     1.007825032230
         H           -2.205067955511     1.304463045908     0.226911690267     1.007825032230
         H           -1.126989955511     1.318418045908    -1.185015309733     1.007825032230

  Basis Set: AUG-CC-PVTZ
    Blend: AUG-CC-PVTZ
  Basis Set: (AUG-CC-PVTZ AUX)
    Blend: AUG-CC-PVTZ-JKFIT
	 Reference Energy          =    -577.2239728436907171 [Eh]
	 Singles Energy            =      -0.0000000000000000 [Eh]
	 Same-Spin Energy          =      -0.1862271323703352 [Eh]
	 Opposite-Spin Energy      =      -0.6460838158372838 [Eh]
	 Correlation Energy        =      -0.8323109482076190 [Eh]
	 Total Energy              =    -578.0562837918982950 [Eh]

	 ================> DF-SCS-MP2 Energies <==================
	-----------------------------------------------------------
	 SCS Same-Spin Scale       =       0.3333333333333333 [-]
	 SCS Opposite-Spin Scale   =       1.2000000000000000 [-]
	 SCS Same-Spin Energy      =      -0.0620757107901117 [Eh]
	 SCS Opposite-Spin Energy  =      -0.7753005790047406 [Eh]
	 SCS Correlation Energy    =      -0.8373762897948523 [Eh]
	 SCS Total Energy          =    -578.0613491334855780 [Eh]
	-----------------------------------------------------------

  Dipole Moment: [D]
     X:    -2.0398      Y:     0.0924      Z:     0.4952     Total:     2.1011

*** Psi4 exiting successfully. Buy a developer a beer!
