                               Psi4 1.3.2 release

  ==> Input File <==

--------------------------------------------------------------------------
#psi4
#
memory 32 gb

molecule  {
0 1
 Cl        1.2258420     0.0000130    -0.0722650
  C       -0.5078580     0.0000110     0.4087150
  C       -1.1742884    -1.2669678    -0.0911118
  C       -1.1723440     1.2629730    -0.1036980
  H       -0.5042489    -0.0083723     1.5011164
  H       -0.6755810    -2.1546730     0.2828190
  H       -2.2185910    -1.2788520     0.2166160
  H       -1.1404100    -1.2929320    -1.1952960
  H       -0.6756180     2.1546720     0.2826010
  H       -2.2185470     1.2788410     0.2165190
  H       -1.1404690     1.2927960    -1.1954080
units angstrom
no_reorient  #important for SAPT in psi4, default
symmetry c1  #important for SAPT in psi4, default
}

set PROPERTIES_ORIGIN ["COM"]
properties('MP2/aug-cc-pvtz', properties = ['dipole'])
--------------------------------------------------------------------------

    Molecular point group: c1
  Charge       = 0
  Multiplicity = 1
  Basis Set: AUG-CC-PVTZ
    Blend: AUG-CC-PVTZ
  Basis Set: (AUG-CC-PVTZ AUX)
    Blend: AUG-CC-PVTZ-JKFIT

    Orbital Energies [Eh]
    ---------------------

    Doubly Occupied:

       1A   -104.815711     2A    -11.297696     3A    -11.230412
       4A    -11.230101     5A    -10.540448     6A     -8.007215
       7A     -8.005513     8A     -8.005505     9A     -1.147326
      10A     -1.016564    11A     -0.951696    12A     -0.797596
      13A     -0.649208    14A     -0.616133    15A     -0.590377
      16A     -0.552777    17A     -0.515429    18A     -0.512723
      19A     -0.491658    20A     -0.427809    21A     -0.427316

  @DF-RHF Final Energy:  -577.25066926826344

   => Energetics <=

    Nuclear Repulsion Energy =            166.5222507418631892
    One-Electron Energy =               -1123.8874126289513242
    Two-Electron Energy =                 380.1144926188246700
    Total Energy =                       -577.2506692682634366
  Basis Set: (AUG-CC-PVTZ AUX)
    Blend: AUG-CC-PVTZ-RI
    Molecular point group: c1

    Geometry (in Angstrom), charge = 0, multiplicity = 1:

       Center              X                  Y                   Z               Mass
    ------------   -----------------  -----------------  -----------------  -----------------
         CL           1.226202775710     0.000729936370    -0.074183115555    34.968852682000
         C           -0.507497224290     0.000727936370     0.406796884445    12.000000000000
         C           -1.173927624290    -1.266250863630    -0.093029915555    12.000000000000
         C           -1.171983224290     1.263689936370    -0.105616115555    12.000000000000
         H           -0.503888124290    -0.007655363630     1.499198284445     1.007825032230
         H           -0.675220224290    -2.153956063630     0.280900884445     1.007825032230
         H           -2.218230224290    -1.278135063630     0.214697884445     1.007825032230
         H           -1.140049224290    -1.292215063630    -1.197214115555     1.007825032230
         H           -0.675257224290     2.155388936370     0.280682884445     1.007825032230
         H           -2.218186224290     1.279557936370     0.214600884445     1.007825032230
         H           -1.140108224290     1.293512936370    -1.197326115555     1.007825032230

  Basis Set: AUG-CC-PVTZ
    Blend: AUG-CC-PVTZ
  Basis Set: (AUG-CC-PVTZ AUX)
    Blend: AUG-CC-PVTZ-JKFIT
	 Reference Energy          =    -577.2506692682634366 [Eh]
	 Singles Energy            =      -0.0000000000000000 [Eh]
	 Same-Spin Energy          =      -0.1863457767310762 [Eh]
	 Opposite-Spin Energy      =      -0.6449177069818806 [Eh]
	 Correlation Energy        =      -0.8312634837129568 [Eh]
	 Total Energy              =    -578.0819327519764101 [Eh]

	 ================> DF-SCS-MP2 Energies <==================
	-----------------------------------------------------------
	 SCS Same-Spin Scale       =       0.3333333333333333 [-]
	 SCS Opposite-Spin Scale   =       1.2000000000000000 [-]
	 SCS Same-Spin Energy      =      -0.0621152589103587 [Eh]
	 SCS Opposite-Spin Energy  =      -0.7739012483782567 [Eh]
	 SCS Correlation Energy    =      -0.8360165072886154 [Eh]
	 SCS Total Energy          =    -578.0866857755520414 [Eh]
	-----------------------------------------------------------

  Dipole Moment: [D]
     X:    -2.0851      Y:     0.0007      Z:     0.4758     Total:     2.1387

*** Psi4 exiting successfully. Buy a developer a beer!
