                               Psi4 1.3.2 release

  ==> Input File <==

--------------------------------------------------------------------------
#psi4
#
memory 32 gb

molecule  {
0 1
 Cl        1.2295175     0.0277401    -0.0579914
  C       -0.5078580     0.0000110     0.4087150
  C       -1.1951640    -1.2550680    -0.0928611
  C       -1.1723440     1.2629730    -0.1036980
  H       -0.4998300     0.0000750     1.5011250
  H       -0.6755810    -2.1546730     0.2828190
  H       -2.2185910    -1.2788520     0.2166160
  H       -1.1404100    -1.2929320    -1.1952960
  H       -0.6756180     2.1546720     0.2826010
  H       -2.2185470     1.2788410     0.2165190
  H       -1.1404690     1.2927960    -1.1954080
units angstrom
no_reorient  #important for SAPT in psi4, default
symmetry c1  #important for SAPT in psi4, default
}

set PROPERTIES_ORIGIN ["COM"]
properties('MP2/aug-cc-pvtz', properties = ['dipole'])
--------------------------------------------------------------------------

    Molecular point group: c1
  Charge       = 0
  Multiplicity = 1
  Basis Set: AUG-CC-PVTZ
    Blend: AUG-CC-PVTZ
  Basis Set: (AUG-CC-PVTZ AUX)
    Blend: AUG-CC-PVTZ-JKFIT

    Orbital Energies [Eh]
    ---------------------

    Doubly Occupied:

       1A   -104.816325     2A    -11.297547     3A    -11.230647
       4A    -11.229547     5A    -10.541006     6A     -8.007775
       7A     -8.006071     8A     -8.006062     9A     -1.147202
      10A     -1.017542    11A     -0.950958    12A     -0.797689
      13A     -0.649280    14A     -0.615404    15A     -0.591374
      16A     -0.554397    17A     -0.515742    18A     -0.507796
      19A     -0.493545    20A     -0.428582    21A     -0.427256

  @DF-RHF Final Energy:  -577.24992759026077

   => Energetics <=

    Nuclear Repulsion Energy =            166.4206260626935432
    One-Electron Energy =               -1123.6776149167953918
    Two-Electron Energy =                 380.0070612638410239
    Total Energy =                       -577.2499275902607678
  Basis Set: (AUG-CC-PVTZ AUX)
    Blend: AUG-CC-PVTZ-RI
    Molecular point group: c1

    Geometry (in Angstrom), charge = 0, multiplicity = 1:

       Center              X                  Y                   Z               Mass
    ------------   -----------------  -----------------  -----------------  -----------------
         CL           1.231384559218     0.014090928235    -0.066037767929    34.968852682000
         C           -0.505990940782    -0.013638171765     0.400668632071    12.000000000000
         C           -1.193296940782    -1.268717171765    -0.100907467929    12.000000000000
         C           -1.170476940782     1.249323828235    -0.111744367929    12.000000000000
         H           -0.497962940782    -0.013574171765     1.493078632071     1.007825032230
         H           -0.673713940782    -2.168322171765     0.274772632071     1.007825032230
         H           -2.216723940782    -1.292501171765     0.208569632071     1.007825032230
         H           -1.138542940782    -1.306581171765    -1.203342367929     1.007825032230
         H           -0.673750940782     2.141022828235     0.274554632071     1.007825032230
         H           -2.216679940782     1.265191828235     0.208472632071     1.007825032230
         H           -1.138601940782     1.279146828235    -1.203454367929     1.007825032230

  Basis Set: AUG-CC-PVTZ
    Blend: AUG-CC-PVTZ
  Basis Set: (AUG-CC-PVTZ AUX)
    Blend: AUG-CC-PVTZ-JKFIT
	 Reference Energy          =    -577.2499275902607678 [Eh]
	 Singles Energy            =      -0.0000000000000000 [Eh]
	 Same-Spin Energy          =      -0.1863498250977967 [Eh]
	 Opposite-Spin Energy      =      -0.6449649977192408 [Eh]
	 Correlation Energy        =      -0.8313148228170375 [Eh]
	 Total Energy              =    -578.0812424130778027 [Eh]

	 ================> DF-SCS-MP2 Energies <==================
	-----------------------------------------------------------
	 SCS Same-Spin Scale       =       0.3333333333333333 [-]
	 SCS Opposite-Spin Scale   =       1.2000000000000000 [-]
	 SCS Same-Spin Energy      =      -0.0621166083659322 [Eh]
	 SCS Opposite-Spin Energy  =      -0.7739579972630889 [Eh]
	 SCS Correlation Energy    =      -0.8360746056290211 [Eh]
	 SCS Total Energy          =    -578.0860021958898187 [Eh]
	-----------------------------------------------------------

  Dipole Moment: [D]
     X:    -2.0855      Y:    -0.0266      Z:     0.4633     Total:     2.1365

*** Psi4 exiting successfully. Buy a developer a beer!
