                               Psi4 1.3.2 release

  ==> Input File <==

--------------------------------------------------------------------------
#psi4
#
memory 32 gb

molecule  {
0 1
 Cl        1.2258420     0.0000130    -0.0722650
  C       -0.5609883     0.0421907     0.3674844
  C       -1.1723130    -1.2630170    -0.1035850
  C       -1.1723440     1.2629730    -0.1036980
  H       -0.4998300     0.0000750     1.5011250
  H       -0.7131848    -2.1863873     0.2537521
  H       -2.2185910    -1.2788520     0.2166160
  H       -1.1404100    -1.2929320    -1.1952960
  H       -0.6756180     2.1546720     0.2826010
  H       -2.2185470     1.2788410     0.2165190
  H       -1.1404690     1.2927960    -1.1954080
units angstrom
no_reorient  #important for SAPT in psi4, default
symmetry c1  #important for SAPT in psi4, default
}

set PROPERTIES_ORIGIN ["COM"]
properties('MP2/aug-cc-pvtz', properties = ['dipole'])
--------------------------------------------------------------------------

    Molecular point group: c1
  Charge       = 0
  Multiplicity = 1
  Basis Set: AUG-CC-PVTZ
    Blend: AUG-CC-PVTZ
  Basis Set: (AUG-CC-PVTZ AUX)
    Blend: AUG-CC-PVTZ-JKFIT

    Orbital Energies [Eh]
    ---------------------

    Doubly Occupied:

       1A   -104.810289     2A    -11.303207     3A    -11.232176
       4A    -11.230127     5A    -10.534787     6A     -8.001469
       7A     -7.999865     8A     -7.999854     9A     -1.145801
      10A     -1.021342    11A     -0.960232    12A     -0.791651
      13A     -0.654549    14A     -0.621851    15A     -0.593102
      16A     -0.557895    17A     -0.528851    18A     -0.505792
      19A     -0.476856    20A     -0.428091    21A     -0.421695

  @DF-RHF Final Energy:  -577.24376042519361

   => Energetics <=

    Nuclear Repulsion Energy =            166.4626905524871745
    One-Electron Energy =               -1123.7739336799322700
    Two-Electron Energy =                 380.0674827022515387
    Total Energy =                       -577.2437604251936136
  Basis Set: (AUG-CC-PVTZ AUX)
    Blend: AUG-CC-PVTZ-RI
    Molecular point group: c1

    Geometry (in Angstrom), charge = 0, multiplicity = 1:

       Center              X                  Y                   Z               Mass
    ------------   -----------------  -----------------  -----------------  -----------------
         CL           1.234499023786    -0.006064376445    -0.065548150735    34.968852682000
         C           -0.552331276214     0.036113323555     0.374201249265    12.000000000000
         C           -1.163655976214    -1.269094376445    -0.096868150735    12.000000000000
         C           -1.163686976214     1.256895623555    -0.096981150735    12.000000000000
         H           -0.491172976214    -0.006002376445     1.507841849265     1.007825032230
         H           -0.704527776214    -2.192464676445     0.260468949265     1.007825032230
         H           -2.209933976214    -1.284929376445     0.223332849265     1.007825032230
         H           -1.131752976214    -1.299009376445    -1.188579150735     1.007825032230
         H           -0.666960976214     2.148594623555     0.289317849265     1.007825032230
         H           -2.209889976214     1.272763623555     0.223235849265     1.007825032230
         H           -1.131811976214     1.286718623555    -1.188691150735     1.007825032230

  Basis Set: AUG-CC-PVTZ
    Blend: AUG-CC-PVTZ
  Basis Set: (AUG-CC-PVTZ AUX)
    Blend: AUG-CC-PVTZ-JKFIT
	 Reference Energy          =    -577.2437604251936136 [Eh]
	 Singles Energy            =      -0.0000000000000000 [Eh]
	 Same-Spin Energy          =      -0.1868098274289019 [Eh]
	 Opposite-Spin Energy      =      -0.6453849674079128 [Eh]
	 Correlation Energy        =      -0.8321947948368148 [Eh]
	 Total Energy              =    -578.0759552200304370 [Eh]

	 ================> DF-SCS-MP2 Energies <==================
	-----------------------------------------------------------
	 SCS Same-Spin Scale       =       0.3333333333333333 [-]
	 SCS Opposite-Spin Scale   =       1.2000000000000000 [-]
	 SCS Same-Spin Energy      =      -0.0622699424763006 [Eh]
	 SCS Opposite-Spin Energy  =      -0.7744619608894954 [Eh]
	 SCS Correlation Energy    =      -0.8367319033657961 [Eh]
	 SCS Total Energy          =    -578.0804923285594441 [Eh]
	-----------------------------------------------------------

  Dipole Moment: [D]
     X:    -2.2901      Y:     0.0483      Z:     0.4587     Total:     2.3360

*** Psi4 exiting successfully. Buy a developer a beer!
