                               Psi4 1.3.2 release

  ==> Input File <==

--------------------------------------------------------------------------
#psi4
#
memory 32 gb

molecule  {
0 1
 Cl        1.2258420     0.0000130    -0.0722650
  C       -0.5078580     0.0000110     0.4087150
  C       -1.1370018    -1.2915289    -0.0763564
  C       -1.1370336     1.2914882    -0.0764720
  H       -0.4998300     0.0000750     1.5011250
  H       -0.6755810    -2.1546730     0.2828190
  H       -2.2185910    -1.2788520     0.2166160
  H       -1.1404100    -1.2929320    -1.1952960
  H       -0.6756180     2.1546720     0.2826010
  H       -2.2185470     1.2788410     0.2165190
  H       -1.1404690     1.2927960    -1.1954080
units angstrom
no_reorient  #important for SAPT in psi4, default
symmetry c1  #important for SAPT in psi4, default
}

set PROPERTIES_ORIGIN ["COM"]
properties('MP2/aug-cc-pvtz', properties = ['dipole'])
--------------------------------------------------------------------------

    Molecular point group: c1
  Charge       = 0
  Multiplicity = 1
  Basis Set: AUG-CC-PVTZ
    Blend: AUG-CC-PVTZ
  Basis Set: (AUG-CC-PVTZ AUX)
    Blend: AUG-CC-PVTZ-JKFIT

    Orbital Energies [Eh]
    ---------------------

    Doubly Occupied:

       1A   -104.813620     2A    -11.298589     3A    -11.232348
       4A    -11.232330     5A    -10.538553     6A     -8.005312
       7A     -8.003616     8A     -8.003602     9A     -1.147678
      10A     -1.013999    11A     -0.955907    12A     -0.797666
      13A     -0.653294    14A     -0.618977    15A     -0.588952
      16A     -0.542493    17A     -0.534486    18A     -0.510965
      19A     -0.483651    20A     -0.426185    21A     -0.425165

  @DF-RHF Final Energy:  -577.24414690836261

   => Energetics <=

    Nuclear Repulsion Energy =            166.6078282037607039
    One-Electron Energy =               -1124.0491744523596935
    Two-Electron Energy =                 380.1971993402364092
    Total Energy =                       -577.2441469083626089
  Basis Set: (AUG-CC-PVTZ AUX)
    Blend: AUG-CC-PVTZ-RI
    Molecular point group: c1

    Geometry (in Angstrom), charge = 0, multiplicity = 1:

       Center              X                  Y                   Z               Mass
    ------------   -----------------  -----------------  -----------------  -----------------
         CL           1.214980310138     0.000012684405    -0.080639947682    34.968852682000
         C           -0.518719689862     0.000010684405     0.400340052318    12.000000000000
         C           -1.147863489862    -1.291529215595    -0.084731347682    12.000000000000
         C           -1.147895289862     1.291487884405    -0.084846947682    12.000000000000
         H           -0.510691689862     0.000074684405     1.492750052318     1.007825032230
         H           -0.686442689862    -2.154673315595     0.274444052318     1.007825032230
         H           -2.229452689862    -1.278852315595     0.208241052318     1.007825032230
         H           -1.151271689862    -1.292932315595    -1.203670947682     1.007825032230
         H           -0.686479689862     2.154671684405     0.274226052318     1.007825032230
         H           -2.229408689862     1.278840684405     0.208144052318     1.007825032230
         H           -1.151330689862     1.292795684405    -1.203782947682     1.007825032230

  Basis Set: AUG-CC-PVTZ
    Blend: AUG-CC-PVTZ
  Basis Set: (AUG-CC-PVTZ AUX)
    Blend: AUG-CC-PVTZ-JKFIT
	 Reference Energy          =    -577.2441469083626089 [Eh]
	 Singles Energy            =      -0.0000000000000000 [Eh]
	 Same-Spin Energy          =      -0.1864446815762689 [Eh]
	 Opposite-Spin Energy      =      -0.6451079957951589 [Eh]
	 Correlation Energy        =      -0.8315526773714278 [Eh]
	 Total Energy              =    -578.0756995857340144 [Eh]

	 ================> DF-SCS-MP2 Energies <==================
	-----------------------------------------------------------
	 SCS Same-Spin Scale       =       0.3333333333333333 [-]
	 SCS Opposite-Spin Scale   =       1.2000000000000000 [-]
	 SCS Same-Spin Energy      =      -0.0621482271920896 [Eh]
	 SCS Opposite-Spin Energy  =      -0.7741295949541906 [Eh]
	 SCS Correlation Energy    =      -0.8362778221462803 [Eh]
	 SCS Total Energy          =    -578.0804247305088666 [Eh]
	-----------------------------------------------------------

  Dipole Moment: [D]
     X:    -2.0967      Y:     0.0000      Z:     0.4896     Total:     2.1531

*** Psi4 exiting successfully. Buy a developer a beer!
