                               Psi4 1.4a3.dev225

  ==> Input File <==

--------------------------------------------------------------------------
#psi4
#
memory 32 gb

molecule  {
0 1
 Cl        1.3436760     0.0000000    -0.0570310
  C       -0.3997810     0.0000000     0.4022540
  C       -1.0564130    -1.2654060    -0.1197220
  C       -1.0564130     1.2654060    -0.1197220
  H       -0.4041774     0.0000000     1.5449586
  H       -0.5598110    -2.1568730     0.2689710
  H       -2.1057750    -1.2863280     0.1915640
  H       -1.0158470    -1.2927240    -1.2116860
  H       -0.5598100     2.1568730     0.2689710
  H       -2.1057740     1.2863280     0.1915650
  H       -1.0158470     1.2927230    -1.2116860
units angstrom
no_reorient  #important for SAPT in psi4, default
symmetry c1  #important for SAPT in psi4, default
}

set PROPERTIES_ORIGIN ["COM"]
properties('MP2/aug-cc-pvtz', properties = ['dipole'])
--------------------------------------------------------------------------

    Molecular point group: c1
  Charge       = 0
  Multiplicity = 1
  Basis Set: AUG-CC-PVTZ
    Blend: AUG-CC-PVTZ
  Basis Set: (AUG-CC-PVTZ AUX)
    Blend: AUG-CC-PVTZ-JKFIT

    Orbital Energies [Eh]
    ---------------------

    Doubly Occupied:

       1A   -104.815712     2A    -11.304332     3A    -11.231160
       4A    -11.231146     5A    -10.540398     6A     -8.007155
       7A     -8.005458     8A     -8.005453     9A     -1.145045
      10A     -1.015762    11A     -0.951596    12A     -0.790561
      13A     -0.645941    14A     -0.614480    15A     -0.589966
      16A     -0.554584    17A     -0.514854    18A     -0.511560
      19A     -0.489386    20A     -0.427696    21A     -0.425902

  @DF-RHF Final Energy:  -577.24860812894030

   => Energetics <=

    Nuclear Repulsion Energy =            166.0978044501040074
    One-Electron Energy =               -1123.0565266767805497
    Two-Electron Energy =                 379.7101140977362093
    Total Energy =                       -577.2486081289403046
  Basis Set: (AUG-CC-PVTZ AUX)
    Blend: AUG-CC-PVTZ-RI
    Molecular point group: c1

    Geometry (in Angstrom), charge = 0, multiplicity = 1:

       Center              X                  Y                   Z               Mass
    ------------   -----------------  -----------------  -----------------  -----------------
         CL           1.228227569972     0.000000012917    -0.057061795284    34.968852682000
         C           -0.515229430028     0.000000012917     0.402223204716    12.000000000000
         C           -1.171861430028    -1.265405987083    -0.119752795284    12.000000000000
         C           -1.171861430028     1.265406012917    -0.119752795284    12.000000000000
         H           -0.519625830028     0.000000012917     1.544927804716     1.007825032230
         H           -0.675259430028    -2.156872987083     0.268940204716     1.007825032230
         H           -2.221223430028    -1.286327987083     0.191533204716     1.007825032230
         H           -1.131295430028    -1.292723987083    -1.211716795284     1.007825032230
         H           -0.675258430028     2.156873012917     0.268940204716     1.007825032230
         H           -2.221222430028     1.286328012917     0.191534204716     1.007825032230
         H           -1.131295430028     1.292723012917    -1.211716795284     1.007825032230

  Basis Set: AUG-CC-PVTZ
    Blend: AUG-CC-PVTZ
  Basis Set: (AUG-CC-PVTZ AUX)
    Blend: AUG-CC-PVTZ-JKFIT
	 Reference Energy          =    -577.2486081289403046 [Eh]
	 Singles Energy            =      -0.0000000000000000 [Eh]
	 Same-Spin Energy          =      -0.1863532680564937 [Eh]
	 Opposite-Spin Energy      =      -0.6452917011228563 [Eh]
	 Correlation Energy        =      -0.8316449691793499 [Eh]
	 Total Energy              =    -578.0802530981196696 [Eh]

	 ================> DF-SCS-MP2 Energies <==================
	-----------------------------------------------------------
	 SCS Same-Spin Scale       =       0.3333333333333333 [-]
	 SCS Opposite-Spin Scale   =       1.2000000000000000 [-]
	 SCS Same-Spin Energy      =      -0.0621177560188312 [Eh]
	 SCS Opposite-Spin Energy  =      -0.7743500413474275 [Eh]
	 SCS Correlation Energy    =      -0.8364677973662586 [Eh]
	 SCS Total Energy          =    -578.0850759263065584 [Eh]
	-----------------------------------------------------------

  Dipole Moment: [D]
     X:    -2.0973      Y:    -0.0000      Z:     0.4212     Total:     2.1392

*** Psi4 exiting successfully. Buy a developer a beer!
