                               Psi4 1.3.2 release

  ==> Input File <==

--------------------------------------------------------------------------
#psi4
#
memory 32 gb

molecule  {
0 1
 Cl        1.2258420     0.0000130    -0.0722650
  C       -0.5078580     0.0000110     0.4087150
  C       -1.2237488    -1.2173752    -0.1432475
  C       -1.2237785     1.2173264    -0.1433563
  H       -0.4998300     0.0000750     1.5011250
  H       -0.6755810    -2.1546730     0.2828190
  H       -2.2185910    -1.2788520     0.2166160
  H       -1.1404100    -1.2929320    -1.1952960
  H       -0.6756180     2.1546720     0.2826010
  H       -2.2185470     1.2788410     0.2165190
  H       -1.1404690     1.2927960    -1.1954080
units angstrom
no_reorient  #important for SAPT in psi4, default
symmetry c1  #important for SAPT in psi4, default
}

set PROPERTIES_ORIGIN ["COM"]
properties('MP2/aug-cc-pvtz', properties = ['dipole'])
--------------------------------------------------------------------------

    Molecular point group: c1
  Charge       = 0
  Multiplicity = 1
  Basis Set: AUG-CC-PVTZ
    Blend: AUG-CC-PVTZ
  Basis Set: (AUG-CC-PVTZ AUX)
    Blend: AUG-CC-PVTZ-JKFIT

    Orbital Energies [Eh]
    ---------------------

    Doubly Occupied:

       1A   -104.818513     2A    -11.298176     3A    -11.229585
       4A    -11.229569     5A    -10.543043     6A     -8.009816
       7A     -8.008105     8A     -8.008102     9A     -1.148196
      10A     -1.021519    11A     -0.946942    12A     -0.801087
      13A     -0.656192    14A     -0.604041    15A     -0.590589
      16A     -0.574571    17A     -0.521828    18A     -0.500445
      19A     -0.474851    20A     -0.430913    21A     -0.428442

  @DF-RHF Final Energy:  -577.23674615333323

   => Energetics <=

    Nuclear Repulsion Energy =            166.5603053015014439
    One-Electron Energy =               -1123.9050511669477146
    Two-Electron Energy =                 380.1079997121130987
    Total Energy =                       -577.2367461533331152
  Basis Set: (AUG-CC-PVTZ AUX)
    Blend: AUG-CC-PVTZ-RI
    Molecular point group: c1

    Geometry (in Angstrom), charge = 0, multiplicity = 1:

       Center              X                  Y                   Z               Mass
    ------------   -----------------  -----------------  -----------------  -----------------
         CL           1.241663288818     0.000013930182    -0.060065349409    34.968852682000
         C           -0.492036711182     0.000011930182     0.420914650591    12.000000000000
         C           -1.207927511182    -1.217374269818    -0.131047849409    12.000000000000
         C           -1.207957211182     1.217327330182    -0.131156649409    12.000000000000
         H           -0.484008711182     0.000075930182     1.513324650591     1.007825032230
         H           -0.659759711182    -2.154672069818     0.295018650591     1.007825032230
         H           -2.202769711182    -1.278851069818     0.228815650591     1.007825032230
         H           -1.124588711182    -1.292931069818    -1.183096349409     1.007825032230
         H           -0.659796711182     2.154672930182     0.294800650591     1.007825032230
         H           -2.202725711182     1.278841930182     0.228718650591     1.007825032230
         H           -1.124647711182     1.292796930182    -1.183208349409     1.007825032230

  Basis Set: AUG-CC-PVTZ
    Blend: AUG-CC-PVTZ
  Basis Set: (AUG-CC-PVTZ AUX)
    Blend: AUG-CC-PVTZ-JKFIT
	 Reference Energy          =    -577.2367461533332289 [Eh]
	 Singles Energy            =      -0.0000000000000000 [Eh]
	 Same-Spin Energy          =      -0.1866478985951114 [Eh]
	 Opposite-Spin Energy      =      -0.6458385041443409 [Eh]
	 Correlation Energy        =      -0.8324864027394523 [Eh]
	 Total Energy              =    -578.0692325560727340 [Eh]

	 ================> DF-SCS-MP2 Energies <==================
	-----------------------------------------------------------
	 SCS Same-Spin Scale       =       0.3333333333333333 [-]
	 SCS Opposite-Spin Scale   =       1.2000000000000000 [-]
	 SCS Same-Spin Energy      =      -0.0622159661983705 [Eh]
	 SCS Opposite-Spin Energy  =      -0.7750062049732090 [Eh]
	 SCS Correlation Energy    =      -0.8372221711715795 [Eh]
	 SCS Total Energy          =    -578.0739683245047900 [Eh]
	-----------------------------------------------------------

  Dipole Moment: [D]
     X:    -2.0705      Y:     0.0000      Z:     0.4409     Total:     2.1169

*** Psi4 exiting successfully. Buy a developer a beer!
