                               Psi4 1.4a3.dev225

  ==> Input File <==

--------------------------------------------------------------------------
#psi4
#
memory 32 gb

molecule  {
0 1
 Cl        1.3436760     0.0000000    -0.0570310
  C       -0.3997810     0.0000000     0.4022540
  C       -1.0650632    -1.2820760    -0.1265983
  C       -1.0564130     1.2654060    -0.1197220
  H       -0.4039850     0.0000000     1.4949590
  H       -0.5598110    -2.1568730     0.2689710
  H       -2.1057750    -1.2863280     0.1915640
  H       -1.0158470    -1.2927240    -1.2116860
  H       -0.5598100     2.1568730     0.2689710
  H       -2.1057740     1.2863280     0.1915650
  H       -1.0158470     1.2927230    -1.2116860
units angstrom
no_reorient  #important for SAPT in psi4, default
symmetry c1  #important for SAPT in psi4, default
}

set PROPERTIES_ORIGIN ["COM"]
properties('MP2/aug-cc-pvtz', properties = ['dipole'])
--------------------------------------------------------------------------

    Molecular point group: c1
  Charge       = 0
  Multiplicity = 1
  Basis Set: AUG-CC-PVTZ
    Blend: AUG-CC-PVTZ
  Basis Set: (AUG-CC-PVTZ AUX)
    Blend: AUG-CC-PVTZ-JKFIT

    Orbital Energies [Eh]
    ---------------------

    Doubly Occupied:

       1A   -104.815181     2A    -11.299262     3A    -11.230719
       4A    -11.230168     5A    -10.539870     6A     -8.006629
       7A     -8.004940     8A     -8.004933     9A     -1.144426
      10A     -1.014785    11A     -0.951444    12A     -0.797919
      13A     -0.647741    14A     -0.614229    15A     -0.588536
      16A     -0.556465    17A     -0.518908    18A     -0.510285
      19A     -0.491246    20A     -0.427254    21A     -0.426166

  @DF-RHF Final Energy:  -577.25074418542113

   => Energetics <=

    Nuclear Repulsion Energy =            166.0448417833493124
    One-Electron Energy =               -1122.9489625929336398
    Two-Electron Energy =                 379.6533766241632293
    Total Energy =                       -577.2507441854211265
  Basis Set: (AUG-CC-PVTZ AUX)
    Blend: AUG-CC-PVTZ-RI
    Molecular point group: c1

    Geometry (in Angstrom), charge = 0, multiplicity = 1:

       Center              X                  Y                   Z               Mass
    ------------   -----------------  -----------------  -----------------  -----------------
         CL           1.229555481750     0.002563851659    -0.055358382458    34.968852682000
         C           -0.513901518250     0.002563851659     0.403926617542    12.000000000000
         C           -1.179183718250    -1.279512148341    -0.124925682458    12.000000000000
         C           -1.170533518250     1.267969851659    -0.118049382458    12.000000000000
         H           -0.518105518250     0.002563851659     1.496631617542     1.007825032230
         H           -0.673931518250    -2.154309148341     0.270643617542     1.007825032230
         H           -2.219895518250    -1.283764148341     0.193236617542     1.007825032230
         H           -1.129967518250    -1.290160148341    -1.210013382458     1.007825032230
         H           -0.673930518250     2.159436851659     0.270643617542     1.007825032230
         H           -2.219894518250     1.288891851659     0.193237617542     1.007825032230
         H           -1.129967518250     1.295286851659    -1.210013382458     1.007825032230

  Basis Set: AUG-CC-PVTZ
    Blend: AUG-CC-PVTZ
  Basis Set: (AUG-CC-PVTZ AUX)
    Blend: AUG-CC-PVTZ-JKFIT
	 Reference Energy          =    -577.2507441854211265 [Eh]
	 Singles Energy            =      -0.0000000000000000 [Eh]
	 Same-Spin Energy          =      -0.1861339972165096 [Eh]
	 Opposite-Spin Energy      =      -0.6447729764928489 [Eh]
	 Correlation Energy        =      -0.8309069737093586 [Eh]
	 Total Energy              =    -578.0816511591305016 [Eh]

	 ================> DF-SCS-MP2 Energies <==================
	-----------------------------------------------------------
	 SCS Same-Spin Scale       =       0.3333333333333333 [-]
	 SCS Opposite-Spin Scale   =       1.2000000000000000 [-]
	 SCS Same-Spin Energy      =      -0.0620446657388365 [Eh]
	 SCS Opposite-Spin Energy  =      -0.7737275717914187 [Eh]
	 SCS Correlation Energy    =      -0.8357722375302552 [Eh]
	 SCS Total Energy          =    -578.0865164229513766 [Eh]
	-----------------------------------------------------------

  Dipole Moment: [D]
     X:    -2.1032      Y:     0.0057      Z:     0.4465     Total:     2.1500

*** Psi4 exiting successfully. Buy a developer a beer!
