                               Psi4 1.3.2 release

  ==> Input File <==

--------------------------------------------------------------------------
#psi4
#
memory 32 gb

molecule  {
0 1
 Cl        1.2215787     0.0000120    -0.0873759
  C       -0.5078580     0.0000110     0.4087150
  C       -1.1723130    -1.2630170    -0.1035850
  C       -1.1723440     1.2629730    -0.1036980
  H       -0.5093633     0.0000748     1.5011535
  H       -0.6755810    -2.1546730     0.2828190
  H       -2.2185910    -1.2788520     0.2166160
  H       -1.1404100    -1.2929320    -1.1952960
  H       -0.6756180     2.1546720     0.2826010
  H       -2.2185470     1.2788410     0.2165190
  H       -1.1404690     1.2927960    -1.1954080
units angstrom
no_reorient  #important for SAPT in psi4, default
symmetry c1  #important for SAPT in psi4, default
}

set PROPERTIES_ORIGIN ["COM"]
properties('MP2/aug-cc-pvtz', properties = ['dipole'])
--------------------------------------------------------------------------

    Molecular point group: c1
  Charge       = 0
  Multiplicity = 1
  Basis Set: AUG-CC-PVTZ
    Blend: AUG-CC-PVTZ
  Basis Set: (AUG-CC-PVTZ AUX)
    Blend: AUG-CC-PVTZ-JKFIT

    Orbital Energies [Eh]
    ---------------------

    Doubly Occupied:

       1A   -104.815662     2A    -11.297771     3A    -11.230052
       4A    -11.230034     5A    -10.540413     6A     -8.007178
       7A     -8.005476     8A     -8.005470     9A     -1.147532
      10A     -1.016372    11A     -0.951406    12A     -0.797856
      13A     -0.649644    14A     -0.614775    15A     -0.589904
      16A     -0.554406    17A     -0.516464    18A     -0.511149
      19A     -0.491637    20A     -0.427772    21A     -0.427427

  @DF-RHF Final Energy:  -577.25081267438134

   => Energetics <=

    Nuclear Repulsion Energy =            166.6278267106594342
    One-Electron Energy =               -1124.1004796203083060
    Two-Electron Energy =                 380.2218402352675639
    Total Energy =                       -577.2508126743813364
  Basis Set: (AUG-CC-PVTZ AUX)
    Blend: AUG-CC-PVTZ-RI
    Molecular point group: c1

    Geometry (in Angstrom), charge = 0, multiplicity = 1:

       Center              X                  Y                   Z               Mass
    ------------   -----------------  -----------------  -----------------  -----------------
         CL           1.223612460336     0.000012642710    -0.080603675669    34.968852682000
         C           -0.505824239664     0.000011642710     0.415487224331    12.000000000000
         C           -1.170279239664    -1.263016357290    -0.096812775669    12.000000000000
         C           -1.170310239664     1.262973642710    -0.096925775669    12.000000000000
         H           -0.507329539664     0.000075442710     1.507925724331     1.007825032230
         H           -0.673547239664    -2.154672357290     0.289591224331     1.007825032230
         H           -2.216557239664    -1.278851357290     0.223388224331     1.007825032230
         H           -1.138376239664    -1.292931357290    -1.188523775669     1.007825032230
         H           -0.673584239664     2.154672642710     0.289373224331     1.007825032230
         H           -2.216513239664     1.278841642710     0.223291224331     1.007825032230
         H           -1.138435239664     1.292796642710    -1.188635775669     1.007825032230

  Basis Set: AUG-CC-PVTZ
    Blend: AUG-CC-PVTZ
  Basis Set: (AUG-CC-PVTZ AUX)
    Blend: AUG-CC-PVTZ-JKFIT
	 Reference Energy          =    -577.2508126743813364 [Eh]
	 Singles Energy            =      -0.0000000000000000 [Eh]
	 Same-Spin Energy          =      -0.1863607547994764 [Eh]
	 Opposite-Spin Energy      =      -0.6449386999682041 [Eh]
	 Correlation Energy        =      -0.8312994547676804 [Eh]
	 Total Energy              =    -578.0821121291489817 [Eh]

	 ================> DF-SCS-MP2 Energies <==================
	-----------------------------------------------------------
	 SCS Same-Spin Scale       =       0.3333333333333333 [-]
	 SCS Opposite-Spin Scale   =       1.2000000000000000 [-]
	 SCS Same-Spin Energy      =      -0.0621202515998255 [Eh]
	 SCS Opposite-Spin Energy  =      -0.7739264399618448 [Eh]
	 SCS Correlation Energy    =      -0.8360466915616703 [Eh]
	 SCS Total Energy          =    -578.0868593659430417 [Eh]
	-----------------------------------------------------------

  Dipole Moment: [D]
     X:    -2.0790      Y:     0.0000      Z:     0.4833     Total:     2.1344

*** Psi4 exiting successfully. Buy a developer a beer!
