                               Psi4 1.3.2 release

  ==> Input File <==

--------------------------------------------------------------------------
#psi4
#
memory 32 gb

molecule  {
0 1
 Cl        1.2258420     0.0000130    -0.0722650
  C       -0.5078580     0.0000110     0.4087150
  C       -1.1799096    -1.2782400    -0.0534675
  C       -1.1723440     1.2629730    -0.1036980
  H       -0.5175061    -0.0337078     1.5005914
  H       -0.6755810    -2.1546730     0.2828190
  H       -2.2185910    -1.2788520     0.2166160
  H       -1.1404100    -1.2929320    -1.1952960
  H       -0.6756180     2.1546720     0.2826010
  H       -2.2185470     1.2788410     0.2165190
  H       -1.1404690     1.2927960    -1.1954080
units angstrom
no_reorient  #important for SAPT in psi4, default
symmetry c1  #important for SAPT in psi4, default
}

set PROPERTIES_ORIGIN ["COM"]
properties('MP2/aug-cc-pvtz', properties = ['dipole'])
--------------------------------------------------------------------------

    Molecular point group: c1
  Charge       = 0
  Multiplicity = 1
  Basis Set: AUG-CC-PVTZ
    Blend: AUG-CC-PVTZ
  Basis Set: (AUG-CC-PVTZ AUX)
    Blend: AUG-CC-PVTZ-JKFIT

    Orbital Energies [Eh]
    ---------------------

    Doubly Occupied:

       1A   -104.816656     2A    -11.297685     3A    -11.231042
       4A    -11.230140     5A    -10.541303     6A     -8.008072
       7A     -8.006370     8A     -8.006359     9A     -1.147184
      10A     -1.017076    11A     -0.952559    12A     -0.797038
      13A     -0.648297    14A     -0.620589    15A     -0.592236
      16A     -0.548813    17A     -0.518188    18A     -0.507870
      19A     -0.491773    20A     -0.428967    21A     -0.426896

  @DF-RHF Final Energy:  -577.24748130593389

   => Energetics <=

    Nuclear Repulsion Energy =            166.4052080208779500
    One-Electron Energy =               -1123.6351528550574130
    Two-Electron Energy =                 379.9824635282455461
    Total Energy =                       -577.2474813059338885
  Basis Set: (AUG-CC-PVTZ AUX)
    Blend: AUG-CC-PVTZ-RI
    Molecular point group: c1

    Geometry (in Angstrom), charge = 0, multiplicity = 1:

       Center              X                  Y                   Z               Mass
    ------------   -----------------  -----------------  -----------------  -----------------
         CL           1.227238556027     0.002790852472    -0.079966011121    34.968852682000
         C           -0.506461443973     0.002788852472     0.401013988879    12.000000000000
         C           -1.178513043973    -1.275462147528    -0.061168511121    12.000000000000
         C           -1.170947443973     1.265750852472    -0.111399011121    12.000000000000
         H           -0.516109543973    -0.030929947528     1.492890388879     1.007825032230
         H           -0.674184443973    -2.151895147528     0.275117988879     1.007825032230
         H           -2.217194443973    -1.276074147528     0.208914988879     1.007825032230
         H           -1.139013443973    -1.290154147528    -1.202997011121     1.007825032230
         H           -0.674221443973     2.157449852472     0.274899988879     1.007825032230
         H           -2.217150443973     1.281618852472     0.208817988879     1.007825032230
         H           -1.139072443973     1.295573852472    -1.203109011121     1.007825032230

  Basis Set: AUG-CC-PVTZ
    Blend: AUG-CC-PVTZ
  Basis Set: (AUG-CC-PVTZ AUX)
    Blend: AUG-CC-PVTZ-JKFIT
	 Reference Energy          =    -577.2474813059338885 [Eh]
	 Singles Energy            =      -0.0000000000000000 [Eh]
	 Same-Spin Energy          =      -0.1864030131542443 [Eh]
	 Opposite-Spin Energy      =      -0.6451035439936560 [Eh]
	 Correlation Energy        =      -0.8315065571479002 [Eh]
	 Total Energy              =    -578.0789878630818066 [Eh]

	 ================> DF-SCS-MP2 Energies <==================
	-----------------------------------------------------------
	 SCS Same-Spin Scale       =       0.3333333333333333 [-]
	 SCS Opposite-Spin Scale   =       1.2000000000000000 [-]
	 SCS Same-Spin Energy      =      -0.0621343377180814 [Eh]
	 SCS Opposite-Spin Energy  =      -0.7741242527923872 [Eh]
	 SCS Correlation Energy    =      -0.8362585905104686 [Eh]
	 SCS Total Energy          =    -578.0837398964443992 [Eh]
	-----------------------------------------------------------

  Dipole Moment: [D]
     X:    -2.0741      Y:     0.0049      Z:     0.4921     Total:     2.1317

*** Psi4 exiting successfully. Buy a developer a beer!
