                               Psi4 1.3.2 release

  ==> Input File <==

--------------------------------------------------------------------------
#psi4
#
memory 32 gb

molecule  {
0 1
 Cl        1.2258420     0.0000130    -0.0722650
  C       -0.4565489    -0.0456306     0.4485414
  C       -1.1723130    -1.2630170    -0.1035850
  C       -1.1723440     1.2629730    -0.1036980
  H       -0.4998300     0.0000750     1.5011250
  H       -0.6393387    -2.1205148     0.3108268
  H       -2.2185910    -1.2788520     0.2166160
  H       -1.1404100    -1.2929320    -1.1952960
  H       -0.6756180     2.1546720     0.2826010
  H       -2.2185470     1.2788410     0.2165190
  H       -1.1404690     1.2927960    -1.1954080
units angstrom
no_reorient  #important for SAPT in psi4, default
symmetry c1  #important for SAPT in psi4, default
}

set PROPERTIES_ORIGIN ["COM"]
properties('MP2/aug-cc-pvtz', properties = ['dipole'])
--------------------------------------------------------------------------

    Molecular point group: c1
  Charge       = 0
  Multiplicity = 1
  Basis Set: AUG-CC-PVTZ
    Blend: AUG-CC-PVTZ
  Basis Set: (AUG-CC-PVTZ AUX)
    Blend: AUG-CC-PVTZ-JKFIT

    Orbital Energies [Eh]
    ---------------------

    Doubly Occupied:

       1A   -104.820025     2A    -11.293967     3A    -11.230059
       4A    -11.229237     5A    -10.545095     6A     -8.011945
       7A     -8.010139     8A     -8.010131     9A     -1.152013
      10A     -1.012462    11A     -0.942929    12A     -0.804501
      13A     -0.646448    14A     -0.609298    15A     -0.589611
      16A     -0.551674    17A     -0.525385    18A     -0.504820
      19A     -0.495261    20A     -0.432037    21A     -0.421157

  @DF-RHF Final Energy:  -577.24442747218563

   => Energetics <=

    Nuclear Repulsion Energy =            166.6737678086878987
    One-Electron Energy =               -1124.1600039735205883
    Two-Electron Energy =                 380.2418086926470551
    Total Energy =                       -577.2444274721856345
  Basis Set: (AUG-CC-PVTZ AUX)
    Blend: AUG-CC-PVTZ-RI
    Molecular point group: c1

    Geometry (in Angstrom), charge = 0, multiplicity = 1:

       Center              X                  Y                   Z               Mass
    ------------   -----------------  -----------------  -----------------  -----------------
         CL           1.217482425305     0.006591631382    -0.078751911429    34.968852682000
         C           -0.464908474695    -0.039051968618     0.442054488571    12.000000000000
         C           -1.180672574695    -1.256438368618    -0.110071911429    12.000000000000
         C           -1.180703574695     1.269551631382    -0.110184911429    12.000000000000
         H           -0.508189574695     0.006653631382     1.494638088571     1.007825032230
         H           -0.647698274695    -2.113936168618     0.304339888571     1.007825032230
         H           -2.226950574695    -1.272273368618     0.210129088571     1.007825032230
         H           -1.148769574695    -1.286353368618    -1.201782911429     1.007825032230
         H           -0.683977574695     2.161250631382     0.276114088571     1.007825032230
         H           -2.226906574695     1.285419631382     0.210032088571     1.007825032230
         H           -1.148828574695     1.299374631382    -1.201894911429     1.007825032230

  Basis Set: AUG-CC-PVTZ
    Blend: AUG-CC-PVTZ
  Basis Set: (AUG-CC-PVTZ AUX)
    Blend: AUG-CC-PVTZ-JKFIT
	 Reference Energy          =    -577.2444274721856345 [Eh]
	 Singles Energy            =      -0.0000000000000000 [Eh]
	 Same-Spin Energy          =      -0.1863949716034354 [Eh]
	 Opposite-Spin Energy      =      -0.6453337066843750 [Eh]
	 Correlation Energy        =      -0.8317286782878104 [Eh]
	 Total Energy              =    -578.0761561504734800 [Eh]

	 ================> DF-SCS-MP2 Energies <==================
	-----------------------------------------------------------
	 SCS Same-Spin Scale       =       0.3333333333333333 [-]
	 SCS Opposite-Spin Scale   =       1.2000000000000000 [-]
	 SCS Same-Spin Energy      =      -0.0621316572011451 [Eh]
	 SCS Opposite-Spin Energy  =      -0.7744004480212500 [Eh]
	 SCS Correlation Energy    =      -0.8365321052223951 [Eh]
	 SCS Total Energy          =    -578.0809595774080663 [Eh]
	-----------------------------------------------------------

  Dipole Moment: [D]
     X:    -1.9097      Y:    -0.0403      Z:     0.4767     Total:     1.9687

*** Psi4 exiting successfully. Buy a developer a beer!
