                               Psi4 1.3.2 release

  ==> Input File <==

--------------------------------------------------------------------------
#psi4
#
memory 32 gb

molecule  {
0 1
 Cl        1.2258420     0.0000130    -0.0722650
  C       -0.5430848     0.0285228     0.3813771
  C       -1.1723130    -1.2630170    -0.1035850
  C       -1.1723440     1.2629730    -0.1036980
  H       -0.4998300     0.0000750     1.5011250
  H       -0.7005052    -2.1760929     0.2635539
  H       -2.2185910    -1.2788520     0.2166160
  H       -1.1404100    -1.2929320    -1.1952960
  H       -0.6756180     2.1546720     0.2826010
  H       -2.2185470     1.2788410     0.2165190
  H       -1.1404690     1.2927960    -1.1954080
units angstrom
no_reorient  #important for SAPT in psi4, default
symmetry c1  #important for SAPT in psi4, default
}

set PROPERTIES_ORIGIN ["COM"]
properties('MP2/aug-cc-pvtz', properties = ['dipole'])
--------------------------------------------------------------------------

    Molecular point group: c1
  Charge       = 0
  Multiplicity = 1
  Basis Set: AUG-CC-PVTZ
    Blend: AUG-CC-PVTZ
  Basis Set: (AUG-CC-PVTZ AUX)
    Blend: AUG-CC-PVTZ-JKFIT

    Orbital Energies [Eh]
    ---------------------

    Doubly Occupied:

       1A   -104.812073     2A    -11.301225     3A    -11.231416
       4A    -11.230163     5A    -10.536654     6A     -8.003364
       7A     -8.001728     8A     -8.001719     9A     -1.145911
      10A     -1.019670    11A     -0.957321    12A     -0.793669
      13A     -0.652651    14A     -0.619412    15A     -0.591632
      16A     -0.556664    17A     -0.523301    18A     -0.509701
      19A     -0.481715    20A     -0.428337    21A     -0.423738

  @DF-RHF Final Energy:  -577.24775751683865

   => Energetics <=

    Nuclear Repulsion Energy =            166.4940376147752374
    One-Electron Energy =               -1123.8394648421271995
    Two-Electron Energy =                 380.0976697105133439
    Total Energy =                       -577.2477575168386466
  Basis Set: (AUG-CC-PVTZ AUX)
    Blend: AUG-CC-PVTZ-RI
    Molecular point group: c1

    Geometry (in Angstrom), charge = 0, multiplicity = 1:

       Center              X                  Y                   Z               Mass
    ------------   -----------------  -----------------  -----------------  -----------------
         CL           1.231581691891    -0.004095231327    -0.067811451021    34.968852682000
         C           -0.537345108109     0.024414568673     0.385830648979    12.000000000000
         C           -1.166573308109    -1.267125231327    -0.099131451021    12.000000000000
         C           -1.166604308109     1.258864768673    -0.099244451021    12.000000000000
         H           -0.494090308109    -0.004033231327     1.505578548979     1.007825032230
         H           -0.694765508109    -2.180201131327     0.268007448979     1.007825032230
         H           -2.212851308109    -1.282960231327     0.221069548979     1.007825032230
         H           -1.134670308109    -1.297040231327    -1.190842451021     1.007825032230
         H           -0.669878308109     2.150563768673     0.287054548979     1.007825032230
         H           -2.212807308109     1.274732768673     0.220972548979     1.007825032230
         H           -1.134729308109     1.288687768673    -1.190954451021     1.007825032230

  Basis Set: AUG-CC-PVTZ
    Blend: AUG-CC-PVTZ
  Basis Set: (AUG-CC-PVTZ AUX)
    Blend: AUG-CC-PVTZ-JKFIT
	 Reference Energy          =    -577.2477575168386466 [Eh]
	 Singles Energy            =      -0.0000000000000000 [Eh]
	 Same-Spin Energy          =      -0.1865961429520072 [Eh]
	 Opposite-Spin Energy      =      -0.6451217554044071 [Eh]
	 Correlation Energy        =      -0.8317178983564143 [Eh]
	 Total Energy              =    -578.0794754151950201 [Eh]

	 ================> DF-SCS-MP2 Energies <==================
	-----------------------------------------------------------
	 SCS Same-Spin Scale       =       0.3333333333333333 [-]
	 SCS Opposite-Spin Scale   =       1.2000000000000000 [-]
	 SCS Same-Spin Energy      =      -0.0621987143173357 [Eh]
	 SCS Opposite-Spin Energy  =      -0.7741461064852885 [Eh]
	 SCS Correlation Energy    =      -0.8363448208026242 [Eh]
	 SCS Total Energy          =    -578.0841023376412977 [Eh]
	-----------------------------------------------------------

  Dipole Moment: [D]
     X:    -2.2197      Y:     0.0310      Z:     0.4640     Total:     2.2679

*** Psi4 exiting successfully. Buy a developer a beer!
