                               Psi4 1.3.2 release

  ==> Input File <==

--------------------------------------------------------------------------
#psi4
#
memory 32 gb

molecule  {
0 1
 Cl        1.2258420     0.0000130    -0.0722650
  C       -0.4734408    -0.0300396     0.4354288
  C       -1.1723130    -1.2630170    -0.1035850
  C       -1.1723440     1.2629730    -0.1036980
  H       -0.4998300     0.0000750     1.5011250
  H       -0.6512620    -2.1321668     0.3016133
  H       -2.2185910    -1.2788520     0.2166160
  H       -1.1404100    -1.2929320    -1.1952960
  H       -0.6756180     2.1546720     0.2826010
  H       -2.2185470     1.2788410     0.2165190
  H       -1.1404690     1.2927960    -1.1954080
units angstrom
no_reorient  #important for SAPT in psi4, default
symmetry c1  #important for SAPT in psi4, default
}

set PROPERTIES_ORIGIN ["COM"]
properties('MP2/aug-cc-pvtz', properties = ['dipole'])
--------------------------------------------------------------------------

    Molecular point group: c1
  Charge       = 0
  Multiplicity = 1
  Basis Set: AUG-CC-PVTZ
    Blend: AUG-CC-PVTZ
  Basis Set: (AUG-CC-PVTZ AUX)
    Blend: AUG-CC-PVTZ-JKFIT

    Orbital Energies [Eh]
    ---------------------

    Doubly Occupied:

       1A   -104.818522     2A    -11.295024     3A    -11.230159
       4A    -11.229464     5A    -10.543491     6A     -8.010312
       7A     -8.008541     8A     -8.008535     9A     -1.150232
      10A     -1.013634    11A     -0.945732    12A     -0.802291
      13A     -0.647186    14A     -0.610985    15A     -0.589553
      16A     -0.552517    17A     -0.522971    18A     -0.501740
      19A     -0.498867    20A     -0.430592    21A     -0.424024

  @DF-RHF Final Energy:  -577.24798723744641

   => Energetics <=

    Nuclear Repulsion Energy =            166.6365479950606243
    One-Electron Energy =               -1124.1003234524612253
    Two-Electron Energy =                 380.2157882199543337
    Total Energy =                       -577.2479872374462957
  Basis Set: (AUG-CC-PVTZ AUX)
    Blend: AUG-CC-PVTZ-RI
    Molecular point group: c1

    Geometry (in Angstrom), charge = 0, multiplicity = 1:

       Center              X                  Y                   Z               Mass
    ------------   -----------------  -----------------  -----------------  -----------------
         CL           1.220234404494     0.004344250334    -0.076616189207    34.968852682000
         C           -0.479048395506    -0.025708349666     0.431077610793    12.000000000000
         C           -1.177920595506    -1.258685749666    -0.107936189207    12.000000000000
         C           -1.177951595506     1.267304250334    -0.108049189207    12.000000000000
         H           -0.505437595506     0.004406250334     1.496773810793     1.007825032230
         H           -0.656869595506    -2.127835549666     0.297262110793     1.007825032230
         H           -2.224198595506    -1.274520749666     0.212264810793     1.007825032230
         H           -1.146017595506    -1.288600749666    -1.199647189207     1.007825032230
         H           -0.681225595506     2.159003250334     0.278249810793     1.007825032230
         H           -2.224154595506     1.283172250334     0.212167810793     1.007825032230
         H           -1.146076595506     1.297127250334    -1.199759189207     1.007825032230

  Basis Set: AUG-CC-PVTZ
    Blend: AUG-CC-PVTZ
  Basis Set: (AUG-CC-PVTZ AUX)
    Blend: AUG-CC-PVTZ-JKFIT
	 Reference Energy          =    -577.2479872374464094 [Eh]
	 Singles Energy            =      -0.0000000000000000 [Eh]
	 Same-Spin Energy          =      -0.1863212788763207 [Eh]
	 Opposite-Spin Energy      =      -0.6450853028028336 [Eh]
	 Correlation Energy        =      -0.8314065816791543 [Eh]
	 Total Energy              =    -578.0793938191255847 [Eh]

	 ================> DF-SCS-MP2 Energies <==================
	-----------------------------------------------------------
	 SCS Same-Spin Scale       =       0.3333333333333333 [-]
	 SCS Opposite-Spin Scale   =       1.2000000000000000 [-]
	 SCS Same-Spin Energy      =      -0.0621070929587736 [Eh]
	 SCS Opposite-Spin Energy  =      -0.7741023633634003 [Eh]
	 SCS Correlation Energy    =      -0.8362094563221739 [Eh]
	 SCS Total Energy          =    -578.0841966937686038 [Eh]
	-----------------------------------------------------------

  Dipole Moment: [D]
     X:    -1.9672      Y:    -0.0274      Z:     0.4755     Total:     2.0241

*** Psi4 exiting successfully. Buy a developer a beer!
