                               Psi4 1.3.2 release

  ==> Input File <==

--------------------------------------------------------------------------
#psi4
#
memory 32 gb

molecule  {
0 1
 Cl        1.2258420     0.0000130    -0.0722650
  C       -0.5078580     0.0000110     0.4087150
  C       -1.1762131    -1.2708220    -0.0786005
  C       -1.1723440     1.2629730    -0.1036980
  H       -0.5086682    -0.0168189     1.5010246
  H       -0.6755810    -2.1546730     0.2828190
  H       -2.2185910    -1.2788520     0.2166160
  H       -1.1404100    -1.2929320    -1.1952960
  H       -0.6756180     2.1546720     0.2826010
  H       -2.2185470     1.2788410     0.2165190
  H       -1.1404690     1.2927960    -1.1954080
units angstrom
no_reorient  #important for SAPT in psi4, default
symmetry c1  #important for SAPT in psi4, default
}

set PROPERTIES_ORIGIN ["COM"]
properties('MP2/aug-cc-pvtz', properties = ['dipole'])
--------------------------------------------------------------------------

    Molecular point group: c1
  Charge       = 0
  Multiplicity = 1
  Basis Set: AUG-CC-PVTZ
    Blend: AUG-CC-PVTZ
  Basis Set: (AUG-CC-PVTZ AUX)
    Blend: AUG-CC-PVTZ-JKFIT

    Orbital Energies [Eh]
    ---------------------

    Doubly Occupied:

       1A   -104.816019     2A    -11.297665     3A    -11.230615
       4A    -11.230044     5A    -10.540727     6A     -8.007494
       7A     -8.005792     8A     -8.005783     9A     -1.147259
      10A     -1.016713    11A     -0.951948    12A     -0.797350
      13A     -0.648932    14A     -0.617488    15A     -0.590914
      16A     -0.551261    17A     -0.515347    18A     -0.512196
      19A     -0.491997    20A     -0.428195    21A     -0.427207

  @DF-RHF Final Energy:  -577.25001200089002

   => Energetics <=

    Nuclear Repulsion Energy =            166.4824638895147757
    One-Electron Energy =               -1123.8030591361527968
    Two-Electron Energy =                 380.0705832457480255
    Total Energy =                       -577.2500120008900240
  Basis Set: (AUG-CC-PVTZ AUX)
    Blend: AUG-CC-PVTZ-RI
    Molecular point group: c1

    Geometry (in Angstrom), charge = 0, multiplicity = 1:

       Center              X                  Y                   Z               Mass
    ------------   -----------------  -----------------  -----------------  -----------------
         CL           1.226555877481     0.001431814716    -0.076106162274    34.968852682000
         C           -0.507144122519     0.001429814716     0.404873837726    12.000000000000
         C           -1.175499222519    -1.269403185284    -0.082441662274    12.000000000000
         C           -1.171630122519     1.264391814716    -0.107539162274    12.000000000000
         H           -0.507954322519    -0.015400085284     1.497183437726     1.007825032230
         H           -0.674867122519    -2.153254185284     0.278977837726     1.007825032230
         H           -2.217877122519    -1.277433185284     0.212774837726     1.007825032230
         H           -1.139696122519    -1.291513185284    -1.199137162274     1.007825032230
         H           -0.674904122519     2.156090814716     0.278759837726     1.007825032230
         H           -2.217833122519     1.280259814716     0.212677837726     1.007825032230
         H           -1.139755122519     1.294214814716    -1.199249162274     1.007825032230

  Basis Set: AUG-CC-PVTZ
    Blend: AUG-CC-PVTZ
  Basis Set: (AUG-CC-PVTZ AUX)
    Blend: AUG-CC-PVTZ-JKFIT
	 Reference Energy          =    -577.2500120008900240 [Eh]
	 Singles Energy            =      -0.0000000000000000 [Eh]
	 Same-Spin Energy          =      -0.1863564020671961 [Eh]
	 Opposite-Spin Energy      =      -0.6449582770123314 [Eh]
	 Correlation Energy        =      -0.8313146790795275 [Eh]
	 Total Energy              =    -578.0813266799696066 [Eh]

	 ================> DF-SCS-MP2 Energies <==================
	-----------------------------------------------------------
	 SCS Same-Spin Scale       =       0.3333333333333333 [-]
	 SCS Opposite-Spin Scale   =       1.2000000000000000 [-]
	 SCS Same-Spin Energy      =      -0.0621188006890653 [Eh]
	 SCS Opposite-Spin Energy  =      -0.7739499324147977 [Eh]
	 SCS Correlation Energy    =      -0.8360687331038631 [Eh]
	 SCS Total Energy          =    -578.0860807339938674 [Eh]
	-----------------------------------------------------------

  Dipole Moment: [D]
     X:    -2.0817      Y:     0.0017      Z:     0.4807     Total:     2.1364

*** Psi4 exiting successfully. Buy a developer a beer!
