                               Psi4 1.3.2 release

  ==> Input File <==

--------------------------------------------------------------------------
#psi4
#
memory 32 gb

molecule  {
0 1
 Cl        1.2258420     0.0000130    -0.0722650
  C       -0.5078580     0.0000110     0.4087150
  C       -1.1547559    -1.2774675    -0.0900467
  C       -1.1547873     1.2774252    -0.0901610
  H       -0.4998300     0.0000750     1.5011250
  H       -0.6755810    -2.1546730     0.2828190
  H       -2.2185910    -1.2788520     0.2166160
  H       -1.1404100    -1.2929320    -1.1952960
  H       -0.6756180     2.1546720     0.2826010
  H       -2.2185470     1.2788410     0.2165190
  H       -1.1404690     1.2927960    -1.1954080
units angstrom
no_reorient  #important for SAPT in psi4, default
symmetry c1  #important for SAPT in psi4, default
}

set PROPERTIES_ORIGIN ["COM"]
properties('MP2/aug-cc-pvtz', properties = ['dipole'])
--------------------------------------------------------------------------

    Molecular point group: c1
  Charge       = 0
  Multiplicity = 1
  Basis Set: AUG-CC-PVTZ
    Blend: AUG-CC-PVTZ
  Basis Set: (AUG-CC-PVTZ AUX)
    Blend: AUG-CC-PVTZ-JKFIT

    Orbital Energies [Eh]
    ---------------------

    Doubly Occupied:

       1A   -104.814485     2A    -11.298057     3A    -11.231127
       4A    -11.231109     5A    -10.539335     6A     -8.006097
       7A     -8.004398     8A     -8.004388     9A     -1.147468
      10A     -1.015123    11A     -0.953544    12A     -0.797539
      13A     -0.650307    14A     -0.617708    15A     -0.589543
      16A     -0.547753    17A     -0.523507    18A     -0.514360
      19A     -0.487504    20A     -0.426840    21A     -0.426269

  @DF-RHF Final Energy:  -577.24929522494301

   => Energetics <=

    Nuclear Repulsion Energy =            166.5806637561670698
    One-Electron Energy =               -1124.0069951863142705
    Two-Electron Energy =                 380.1770362052042174
    Total Energy =                       -577.2492952249430118
  Basis Set: (AUG-CC-PVTZ AUX)
    Blend: AUG-CC-PVTZ-RI
    Molecular point group: c1

    Geometry (in Angstrom), charge = 0, multiplicity = 1:

       Center              X                  Y                   Z               Mass
    ------------   -----------------  -----------------  -----------------  -----------------
         CL           1.220441394317     0.000012930484    -0.076429023263    34.968852682000
         C           -0.513258605683     0.000010930484     0.404550976737    12.000000000000
         C           -1.160156505683    -1.277467569516    -0.094210723263    12.000000000000
         C           -1.160187905683     1.277425130484    -0.094325023263    12.000000000000
         H           -0.505230605683     0.000074930484     1.496960976737     1.007825032230
         H           -0.680981605683    -2.154673069516     0.278654976737     1.007825032230
         H           -2.223991605683    -1.278852069516     0.212451976737     1.007825032230
         H           -1.145810605683    -1.292932069516    -1.199460023263     1.007825032230
         H           -0.681018605683     2.154671930484     0.278436976737     1.007825032230
         H           -2.223947605683     1.278840930484     0.212354976737     1.007825032230
         H           -1.145869605683     1.292795930484    -1.199572023263     1.007825032230

  Basis Set: AUG-CC-PVTZ
    Blend: AUG-CC-PVTZ
  Basis Set: (AUG-CC-PVTZ AUX)
    Blend: AUG-CC-PVTZ-JKFIT
	 Reference Energy          =    -577.2492952249430118 [Eh]
	 Singles Energy            =      -0.0000000000000000 [Eh]
	 Same-Spin Energy          =      -0.1863635944132321 [Eh]
	 Opposite-Spin Energy      =      -0.6449169677558835 [Eh]
	 Correlation Energy        =      -0.8312805621691156 [Eh]
	 Total Energy              =    -578.0805757871121386 [Eh]

	 ================> DF-SCS-MP2 Energies <==================
	-----------------------------------------------------------
	 SCS Same-Spin Scale       =       0.3333333333333333 [-]
	 SCS Opposite-Spin Scale   =       1.2000000000000000 [-]
	 SCS Same-Spin Energy      =      -0.0621211981377440 [Eh]
	 SCS Opposite-Spin Energy  =      -0.7739003613070602 [Eh]
	 SCS Correlation Energy    =      -0.8360215594448043 [Eh]
	 SCS Total Energy          =    -578.0853167843878282 [Eh]
	-----------------------------------------------------------

  Dipole Moment: [D]
     X:    -2.0930      Y:     0.0000      Z:     0.4807     Total:     2.1475

*** Psi4 exiting successfully. Buy a developer a beer!
