                               Psi4 1.3.2 release

  ==> Input File <==

--------------------------------------------------------------------------
#psi4
#
memory 32 gb

molecule  {
0 1
 Cl        1.2258420     0.0000130    -0.0722650
  C       -0.5253728     0.0144615     0.3951220
  C       -1.1723130    -1.2630170    -0.1035850
  C       -1.1723440     1.2629730    -0.1036980
  H       -0.4998300     0.0000750     1.5011250
  H       -0.6879693    -2.1655204     0.2732438
  H       -2.2185910    -1.2788520     0.2166160
  H       -1.1404100    -1.2929320    -1.1952960
  H       -0.6756180     2.1546720     0.2826010
  H       -2.2185470     1.2788410     0.2165190
  H       -1.1404690     1.2927960    -1.1954080
units angstrom
no_reorient  #important for SAPT in psi4, default
symmetry c1  #important for SAPT in psi4, default
}

set PROPERTIES_ORIGIN ["COM"]
properties('MP2/aug-cc-pvtz', properties = ['dipole'])
--------------------------------------------------------------------------

    Molecular point group: c1
  Charge       = 0
  Multiplicity = 1
  Basis Set: AUG-CC-PVTZ
    Blend: AUG-CC-PVTZ
  Basis Set: (AUG-CC-PVTZ AUX)
    Blend: AUG-CC-PVTZ-JKFIT

    Orbital Energies [Eh]
    ---------------------

    Doubly Occupied:

       1A   -104.813775     2A    -11.299404     3A    -11.230767
       4A    -11.230197     5A    -10.538447     6A     -8.005185
       7A     -8.003516     8A     -8.003508     9A     -1.146469
      10A     -1.018020    11A     -0.954399    12A     -0.795759
      13A     -0.650946    14A     -0.617106    15A     -0.590608
      16A     -0.555511    17A     -0.517804    18A     -0.513107
      19A     -0.486488    20A     -0.428141    21A     -0.425635

  @DF-RHF Final Energy:  -577.25011860247002

   => Energetics <=

    Nuclear Repulsion Energy =            166.5275870338051334
    One-Electron Energy =               -1123.9058301189595568
    Two-Electron Energy =                 380.1281244826843135
    Total Energy =                       -577.2501186024701383
  Basis Set: (AUG-CC-PVTZ AUX)
    Blend: AUG-CC-PVTZ-RI
    Molecular point group: c1

    Geometry (in Angstrom), charge = 0, multiplicity = 1:

       Center              X                  Y                   Z               Mass
    ------------   -----------------  -----------------  -----------------  -----------------
         CL           1.228695668774    -0.002069173656    -0.070050574329    34.968852682000
         C           -0.522519131226     0.012379326344     0.397336425671    12.000000000000
         C           -1.169459331226    -1.265099173656    -0.101370574329    12.000000000000
         C           -1.169490331226     1.260890826344    -0.101483574329    12.000000000000
         H           -0.496976331226    -0.002007173656     1.503339425671     1.007825032230
         H           -0.685115631226    -2.167602573656     0.275458225671     1.007825032230
         H           -2.215737331226    -1.280934173656     0.218830425671     1.007825032230
         H           -1.137556331226    -1.295014173656    -1.193081574329     1.007825032230
         H           -0.672764331226     2.152589826344     0.284815425671     1.007825032230
         H           -2.215693331226     1.276758826344     0.218733425671     1.007825032230
         H           -1.137615331226     1.290713826344    -1.193193574329     1.007825032230

  Basis Set: AUG-CC-PVTZ
    Blend: AUG-CC-PVTZ
  Basis Set: (AUG-CC-PVTZ AUX)
    Blend: AUG-CC-PVTZ-JKFIT
	 Reference Energy          =    -577.2501186024700246 [Eh]
	 Singles Energy            =      -0.0000000000000000 [Eh]
	 Same-Spin Energy          =      -0.1864408732480522 [Eh]
	 Opposite-Spin Energy      =      -0.6449593993546430 [Eh]
	 Correlation Energy        =      -0.8314002726026952 [Eh]
	 Total Energy              =    -578.0815188750726747 [Eh]

	 ================> DF-SCS-MP2 Energies <==================
	-----------------------------------------------------------
	 SCS Same-Spin Scale       =       0.3333333333333333 [-]
	 SCS Opposite-Spin Scale   =       1.2000000000000000 [-]
	 SCS Same-Spin Energy      =      -0.0621469577493507 [Eh]
	 SCS Opposite-Spin Energy  =      -0.7739512792255715 [Eh]
	 SCS Correlation Energy    =      -0.8360982369749222 [Eh]
	 SCS Total Energy          =    -578.0862168394450009 [Eh]
	-----------------------------------------------------------

  Dipole Moment: [D]
     X:    -2.1525      Y:     0.0150      Z:     0.4682     Total:     2.2029

*** Psi4 exiting successfully. Buy a developer a beer!
