                               Psi4 1.4a3.dev225

  ==> Input File <==

--------------------------------------------------------------------------
#psi4
#
memory 32 gb

molecule  {
0 1
 Cl        1.3436760     0.0000000    -0.0570310
  C       -0.3804408     0.0000000     0.3971591
  C       -1.0564130    -1.2654060    -0.1197220
  C       -1.0564130     1.2654060    -0.1197220
  H       -0.4039850     0.0000000     1.4949590
  H       -0.5598110    -2.1568730     0.2689710
  H       -2.1057750    -1.2863280     0.1915640
  H       -1.0158470    -1.2927240    -1.2116860
  H       -0.5598100     2.1568730     0.2689710
  H       -2.1057740     1.2863280     0.1915650
  H       -1.0158470     1.2927230    -1.2116860
units angstrom
no_reorient  #important for SAPT in psi4, default
symmetry c1  #important for SAPT in psi4, default
}

set PROPERTIES_ORIGIN ["COM"]
properties('MP2/aug-cc-pvtz', properties = ['dipole'])
--------------------------------------------------------------------------

    Molecular point group: c1
  Charge       = 0
  Multiplicity = 1
  Basis Set: AUG-CC-PVTZ
    Blend: AUG-CC-PVTZ
  Basis Set: (AUG-CC-PVTZ AUX)
    Blend: AUG-CC-PVTZ-JKFIT

    Orbital Energies [Eh]
    ---------------------

    Doubly Occupied:

       1A   -104.817568     2A    -11.297598     3A    -11.230253
       4A    -11.230238     5A    -10.542448     6A     -8.009250
       7A     -8.007502     8A     -8.007494     9A     -1.149200
      10A     -1.015490    11A     -0.949412    12A     -0.796673
      13A     -0.648030    14A     -0.612994    15A     -0.589620
      16A     -0.553201    17A     -0.516889    18A     -0.508667
      19A     -0.495715    20A     -0.427779    21A     -0.427430

  @DF-RHF Final Energy:  -577.25029250649743

   => Energetics <=

    Nuclear Repulsion Energy =            166.5303433226293635
    One-Electron Energy =               -1123.8943716907706403
    Two-Electron Energy =                 380.1137358616439315
    Total Energy =                       -577.2502925064973169
  Basis Set: (AUG-CC-PVTZ AUX)
    Blend: AUG-CC-PVTZ-RI
    Molecular point group: c1

    Geometry (in Angstrom), charge = 0, multiplicity = 1:

       Center              X                  Y                   Z               Mass
    ------------   -----------------  -----------------  -----------------  -----------------
         CL           1.225250570417     0.000000012917    -0.055632361003    34.968852682000
         C           -0.498866229583     0.000000012917     0.398557738997    12.000000000000
         C           -1.174838429583    -1.265405987083    -0.118323361003    12.000000000000
         C           -1.174838429583     1.265406012917    -0.118323361003    12.000000000000
         H           -0.522410429583     0.000000012917     1.496357638997     1.007825032230
         H           -0.678236429583    -2.156872987083     0.270369638997     1.007825032230
         H           -2.224200429583    -1.286327987083     0.192962638997     1.007825032230
         H           -1.134272429583    -1.292723987083    -1.210287361003     1.007825032230
         H           -0.678235429583     2.156873012917     0.270369638997     1.007825032230
         H           -2.224199429583     1.286328012917     0.192963638997     1.007825032230
         H           -1.134272429583     1.292723012917    -1.210287361003     1.007825032230

  Basis Set: AUG-CC-PVTZ
    Blend: AUG-CC-PVTZ
  Basis Set: (AUG-CC-PVTZ AUX)
    Blend: AUG-CC-PVTZ-JKFIT
	 Reference Energy          =    -577.2502925064974306 [Eh]
	 Singles Energy            =      -0.0000000000000000 [Eh]
	 Same-Spin Energy          =      -0.1863604533075279 [Eh]
	 Opposite-Spin Energy      =      -0.6450399677271201 [Eh]
	 Correlation Energy        =      -0.8314004210346481 [Eh]
	 Total Energy              =    -578.0816929275321172 [Eh]

	 ================> DF-SCS-MP2 Energies <==================
	-----------------------------------------------------------
	 SCS Same-Spin Scale       =       0.3333333333333333 [-]
	 SCS Opposite-Spin Scale   =       1.2000000000000000 [-]
	 SCS Same-Spin Energy      =      -0.0621201511025093 [Eh]
	 SCS Opposite-Spin Energy  =      -0.7740479612725442 [Eh]
	 SCS Correlation Energy    =      -0.8361681123750535 [Eh]
	 SCS Total Energy          =    -578.0864606188724792 [Eh]
	-----------------------------------------------------------

  Dipole Moment: [D]
     X:    -2.0256      Y:    -0.0000      Z:     0.4363     Total:     2.0721

*** Psi4 exiting successfully. Buy a developer a beer!
