                               Psi4 1.4a3.dev225

  ==> Input File <==

--------------------------------------------------------------------------
#psi4
#
memory 32 gb

molecule  {
0 1
 Cl        1.3436760     0.0000000    -0.0570310
  C       -0.3997810     0.0000000     0.4022540
  C       -1.0564130    -1.2654060    -0.1197220
  C       -1.0564130     1.2654060    -0.1197220
  H       -0.4040619     0.0000000     1.5149589
  H       -0.5598110    -2.1568730     0.2689710
  H       -2.1057750    -1.2863280     0.1915640
  H       -1.0158470    -1.2927240    -1.2116860
  H       -0.5598100     2.1568730     0.2689710
  H       -2.1057740     1.2863280     0.1915650
  H       -1.0158470     1.2927230    -1.2116860
units angstrom
no_reorient  #important for SAPT in psi4, default
symmetry c1  #important for SAPT in psi4, default
}

set PROPERTIES_ORIGIN ["COM"]
properties('MP2/aug-cc-pvtz', properties = ['dipole'])
--------------------------------------------------------------------------

    Molecular point group: c1
  Charge       = 0
  Multiplicity = 1
  Basis Set: AUG-CC-PVTZ
    Blend: AUG-CC-PVTZ
  Basis Set: (AUG-CC-PVTZ AUX)
    Blend: AUG-CC-PVTZ-JKFIT

    Orbital Energies [Eh]
    ---------------------

    Doubly Occupied:

       1A   -104.815410     2A    -11.300911     3A    -11.230911
       4A    -11.230897     5A    -10.540113     6A     -8.006871
       7A     -8.005176     8A     -8.005170     9A     -1.145695
      10A     -1.015862    11A     -0.951426    12A     -0.794882
      13A     -0.647718    14A     -0.614350    15A     -0.589803
      16A     -0.554471    17A     -0.516346    18A     -0.511334
      19A     -0.490092    20A     -0.427482    21A     -0.426796

  @DF-RHF Final Energy:  -577.25030496071213

   => Energetics <=

    Nuclear Repulsion Energy =            166.2438739061456943
    One-Electron Energy =               -1123.3449260402730943
    Two-Electron Energy =                 379.8507471734153569
    Total Energy =                       -577.2503049607120147
  Basis Set: (AUG-CC-PVTZ AUX)
    Blend: AUG-CC-PVTZ-RI
    Molecular point group: c1

    Geometry (in Angstrom), charge = 0, multiplicity = 1:

       Center              X                  Y                   Z               Mass
    ------------   -----------------  -----------------  -----------------  -----------------
         CL           1.228226078067     0.000000012917    -0.056674291531    34.968852682000
         C           -0.515230921933     0.000000012917     0.402610708469    12.000000000000
         C           -1.171862921933    -1.265405987083    -0.119365291531    12.000000000000
         C           -1.171862921933     1.265406012917    -0.119365291531    12.000000000000
         H           -0.519511821933     0.000000012917     1.515315608469     1.007825032230
         H           -0.675260921933    -2.156872987083     0.269327708469     1.007825032230
         H           -2.221224921933    -1.286327987083     0.191920708469     1.007825032230
         H           -1.131296921933    -1.292723987083    -1.211329291531     1.007825032230
         H           -0.675259921933     2.156873012917     0.269327708469     1.007825032230
         H           -2.221223921933     1.286328012917     0.191921708469     1.007825032230
         H           -1.131296921933     1.292723012917    -1.211329291531     1.007825032230

  Basis Set: AUG-CC-PVTZ
    Blend: AUG-CC-PVTZ
  Basis Set: (AUG-CC-PVTZ AUX)
    Blend: AUG-CC-PVTZ-JKFIT
	 Reference Energy          =    -577.2503049607121284 [Eh]
	 Singles Energy            =      -0.0000000000000000 [Eh]
	 Same-Spin Energy          =      -0.1863003723313384 [Eh]
	 Opposite-Spin Energy      =      -0.6450353801896194 [Eh]
	 Correlation Energy        =      -0.8313357525209577 [Eh]
	 Total Energy              =    -578.0816407132331278 [Eh]

	 ================> DF-SCS-MP2 Energies <==================
	-----------------------------------------------------------
	 SCS Same-Spin Scale       =       0.3333333333333333 [-]
	 SCS Opposite-Spin Scale   =       1.2000000000000000 [-]
	 SCS Same-Spin Energy      =      -0.0621001241104461 [Eh]
	 SCS Opposite-Spin Energy  =      -0.7740424562275432 [Eh]
	 SCS Correlation Energy    =      -0.8361425803379893 [Eh]
	 SCS Total Energy          =    -578.0864475410501200 [Eh]
	-----------------------------------------------------------

  Dipole Moment: [D]
     X:    -2.1024      Y:    -0.0000      Z:     0.4363     Total:     2.1472

*** Psi4 exiting successfully. Buy a developer a beer!
