                               Psi4 1.3.2 release

  ==> Input File <==

--------------------------------------------------------------------------
#psi4
#
memory 32 gb

molecule  {
0 1
 Cl        1.2258420     0.0000130    -0.0722650
  C       -0.5165905     0.0072846     0.4019377
  C       -1.1723130    -1.2630170    -0.1035850
  C       -1.1723440     1.2629730    -0.1036980
  H       -0.4998300     0.0000750     1.5011250
  H       -0.6817565    -2.1601309     0.2780459
  H       -2.2185910    -1.2788520     0.2166160
  H       -1.1404100    -1.2929320    -1.1952960
  H       -0.6756180     2.1546720     0.2826010
  H       -2.2185470     1.2788410     0.2165190
  H       -1.1404690     1.2927960    -1.1954080
units angstrom
no_reorient  #important for SAPT in psi4, default
symmetry c1  #important for SAPT in psi4, default
}

set PROPERTIES_ORIGIN ["COM"]
properties('MP2/aug-cc-pvtz', properties = ['dipole'])
--------------------------------------------------------------------------

    Molecular point group: c1
  Charge       = 0
  Multiplicity = 1
  Basis Set: AUG-CC-PVTZ
    Blend: AUG-CC-PVTZ
  Basis Set: (AUG-CC-PVTZ AUX)
    Blend: AUG-CC-PVTZ-JKFIT

    Orbital Energies [Eh]
    ---------------------

    Doubly Occupied:

       1A   -104.814600     2A    -11.298557     3A    -11.230484
       4A    -11.230210     5A    -10.539319     6A     -8.006071
       7A     -8.004385     8A     -8.004378     9A     -1.146896
      10A     -1.017218    11A     -0.952939    12A     -0.796825
      13A     -0.650173    14A     -0.616001    15A     -0.590243
      16A     -0.554965    17A     -0.516318    18A     -0.513427
      19A     -0.488834    20A     -0.427852    21A     -0.426533

  @DF-RHF Final Energy:  -577.25070354373588

   => Energetics <=

    Nuclear Repulsion Energy =            166.5450438862744136
    One-Electron Energy =               -1123.9390419691803800
    Two-Electron Energy =                 380.1432945391700287
    Total Energy =                       -577.2507035437358809
  Basis Set: (AUG-CC-PVTZ AUX)
    Blend: AUG-CC-PVTZ-RI
    Molecular point group: c1

    Geometry (in Angstrom), charge = 0, multiplicity = 1:

       Center              X                  Y                   Z               Mass
    ------------   -----------------  -----------------  -----------------  -----------------
         CL           1.227264704611    -0.001034985307    -0.071160854367    34.968852682000
         C           -0.515167795389     0.006236614693     0.403041845633    12.000000000000
         C           -1.170890295389    -1.264064985307    -0.102480854367    12.000000000000
         C           -1.170921295389     1.261925014693    -0.102593854367    12.000000000000
         H           -0.498407295389    -0.000972985307     1.502229145633     1.007825032230
         H           -0.680333795389    -2.161178885307     0.279150045633     1.007825032230
         H           -2.217168295389    -1.279899985307     0.217720145633     1.007825032230
         H           -1.138987295389    -1.293979985307    -1.194191854367     1.007825032230
         H           -0.674195295389     2.153624014693     0.283705145633     1.007825032230
         H           -2.217124295389     1.277793014693     0.217623145633     1.007825032230
         H           -1.139046295389     1.291748014693    -1.194303854367     1.007825032230

  Basis Set: AUG-CC-PVTZ
    Blend: AUG-CC-PVTZ
  Basis Set: (AUG-CC-PVTZ AUX)
    Blend: AUG-CC-PVTZ-JKFIT
	 Reference Energy          =    -577.2507035437358809 [Eh]
	 Singles Energy            =      -0.0000000000000000 [Eh]
	 Same-Spin Energy          =      -0.1863850316513589 [Eh]
	 Opposite-Spin Energy      =      -0.6449163196411364 [Eh]
	 Correlation Energy        =      -0.8313013512924953 [Eh]
	 Total Energy              =    -578.0820048950283763 [Eh]

	 ================> DF-SCS-MP2 Energies <==================
	-----------------------------------------------------------
	 SCS Same-Spin Scale       =       0.3333333333333333 [-]
	 SCS Opposite-Spin Scale   =       1.2000000000000000 [-]
	 SCS Same-Spin Energy      =      -0.0621283438837863 [Eh]
	 SCS Opposite-Spin Energy  =      -0.7738995835693636 [Eh]
	 SCS Correlation Energy    =      -0.8360279274531499 [Eh]
	 SCS Total Energy          =    -578.0867314711890685 [Eh]
	-----------------------------------------------------------

  Dipole Moment: [D]
     X:    -2.1201      Y:     0.0074      Z:     0.4699     Total:     2.1716

*** Psi4 exiting successfully. Buy a developer a beer!
