                               Psi4 1.3.2 release

  ==> Input File <==

--------------------------------------------------------------------------
#psi4
#
memory 32 gb

molecule  {
0 1
 Cl        1.2258420     0.0000130    -0.0722650
  C       -0.5078580     0.0000110     0.4087150
  C       -1.2161336    -1.3463132    -0.1373710
  C       -1.1723440     1.2629730    -0.1036980
  H       -0.4998300     0.0000750     1.5011250
  H       -0.6755810    -2.1546730     0.2828190
  H       -2.2185910    -1.2788520     0.2166160
  H       -1.1404100    -1.2929320    -1.1952960
  H       -0.6756180     2.1546720     0.2826010
  H       -2.2185470     1.2788410     0.2165190
  H       -1.1404690     1.2927960    -1.1954080
units angstrom
no_reorient  #important for SAPT in psi4, default
symmetry c1  #important for SAPT in psi4, default
}

set PROPERTIES_ORIGIN ["COM"]
properties('MP2/aug-cc-pvtz', properties = ['dipole'])
--------------------------------------------------------------------------

    Molecular point group: c1
  Charge       = 0
  Multiplicity = 1
  Basis Set: AUG-CC-PVTZ
    Blend: AUG-CC-PVTZ
  Basis Set: (AUG-CC-PVTZ AUX)
    Blend: AUG-CC-PVTZ-JKFIT

    Orbital Energies [Eh]
    ---------------------

    Doubly Occupied:

       1A   -104.815242     2A    -11.300668     3A    -11.230144
       4A    -11.228559     5A    -10.539894     6A     -8.006662
       7A     -8.004978     8A     -8.004970     9A     -1.139745
      10A     -1.011169    11A     -0.952497    12A     -0.797279
      13A     -0.645019    14A     -0.616150    15A     -0.585252
      16A     -0.565560    17A     -0.527651    18A     -0.504813
      19A     -0.489489    20A     -0.426908    21A     -0.419760

  @DF-RHF Final Energy:  -577.24367017154441

   => Energetics <=

    Nuclear Repulsion Energy =            165.0980899230670218
    One-Electron Energy =               -1121.0587047331691792
    Two-Electron Energy =                 378.7169446385577203
    Total Energy =                       -577.2436701715444087
  Basis Set: (AUG-CC-PVTZ AUX)
    Blend: AUG-CC-PVTZ-RI
    Molecular point group: c1

    Geometry (in Angstrom), charge = 0, multiplicity = 1:

       Center              X                  Y                   Z               Mass
    ------------   -----------------  -----------------  -----------------  -----------------
         CL           1.232581470668     0.012824111236    -0.067068581822    34.968852682000
         C           -0.501118529332     0.012822111236     0.413911418178    12.000000000000
         C           -1.209394129332    -1.333502088764    -0.132174581822    12.000000000000
         C           -1.165604529332     1.275784111236    -0.098501581822    12.000000000000
         H           -0.493090529332     0.012886111236     1.506321418178     1.007825032230
         H           -0.668841529332    -2.141861888764     0.288015418178     1.007825032230
         H           -2.211851529332    -1.266040888764     0.221812418178     1.007825032230
         H           -1.133670529332    -1.280120888764    -1.190099581822     1.007825032230
         H           -0.668878529332     2.167483111236     0.287797418178     1.007825032230
         H           -2.211807529332     1.291652111236     0.221715418178     1.007825032230
         H           -1.133729529332     1.305607111236    -1.190211581822     1.007825032230

  Basis Set: AUG-CC-PVTZ
    Blend: AUG-CC-PVTZ
  Basis Set: (AUG-CC-PVTZ AUX)
    Blend: AUG-CC-PVTZ-JKFIT
	 Reference Energy          =    -577.2436701715444087 [Eh]
	 Singles Energy            =      -0.0000000000000000 [Eh]
	 Same-Spin Energy          =      -0.1859633341017496 [Eh]
	 Opposite-Spin Energy      =      -0.6448818353166762 [Eh]
	 Correlation Energy        =      -0.8308451694184258 [Eh]
	 Total Energy              =    -578.0745153409628756 [Eh]

	 ================> DF-SCS-MP2 Energies <==================
	-----------------------------------------------------------
	 SCS Same-Spin Scale       =       0.3333333333333333 [-]
	 SCS Opposite-Spin Scale   =       1.2000000000000000 [-]
	 SCS Same-Spin Energy      =      -0.0619877780339165 [Eh]
	 SCS Opposite-Spin Energy  =      -0.7738582023800115 [Eh]
	 SCS Correlation Energy    =      -0.8358459804139280 [Eh]
	 SCS Total Energy          =    -578.0795161519583871 [Eh]
	-----------------------------------------------------------

  Dipole Moment: [D]
     X:    -2.0720      Y:     0.0343      Z:     0.4800     Total:     2.1272

*** Psi4 exiting successfully. Buy a developer a beer!
