                               Psi4 1.3.2 release

  ==> Input File <==

--------------------------------------------------------------------------
#psi4
#
memory 32 gb

molecule  {
0 1
 Cl        1.2258420     0.0000130    -0.0722650
  C       -0.5078580     0.0000110     0.4087150
  C       -1.1723130    -1.2630170    -0.1035850
  C       -1.1723440     1.2629730    -0.1036980
  H       -0.4998300     0.0000750     1.5011250
  H       -0.6755810    -2.1546730     0.2828190
  H       -2.2185910    -1.2788520     0.2166160
  H       -1.1404100    -1.2929320    -1.1952960
  H       -0.6756180     2.1546720     0.2826010
  H       -2.2185470     1.2788410     0.2165190
  H       -1.1404690     1.2927960    -1.1954080
units angstrom
no_reorient  #important for SAPT in psi4, default
symmetry c1  #important for SAPT in psi4, default
}

set PROPERTIES_ORIGIN ["COM"]
properties('MP2/aug-cc-pvtz', properties = ['dipole'])
--------------------------------------------------------------------------

    Molecular point group: c1
  Charge       = 0
  Multiplicity = 1
  Basis Set: AUG-CC-PVTZ
    Blend: AUG-CC-PVTZ
  Basis Set: (AUG-CC-PVTZ AUX)
    Blend: AUG-CC-PVTZ-JKFIT

    Orbital Energies [Eh]
    ---------------------

    Doubly Occupied:

       1A   -104.815409     2A    -11.297755     3A    -11.230231
       4A    -11.230213     5A    -10.540177     6A     -8.006942
       7A     -8.005240     8A     -8.005233     9A     -1.147412
      10A     -1.016439    11A     -0.951482    12A     -0.797903
      13A     -0.649454    14A     -0.614927    15A     -0.589966
      16A     -0.554437    17A     -0.517312    18A     -0.511217
      19A     -0.491147    20A     -0.427425    21A     -0.427397

  @DF-RHF Final Energy:  -577.25090155720113

   => Energetics <=

    Nuclear Repulsion Energy =            166.5628734906882755
    One-Electron Energy =               -1123.9721125819473855
    Two-Electron Energy =                 380.1583375340580346
    Total Energy =                       -577.2509015572011322
  Basis Set: (AUG-CC-PVTZ AUX)
    Blend: AUG-CC-PVTZ-RI
    Molecular point group: c1

    Geometry (in Angstrom), charge = 0, multiplicity = 1:

       Center              X                  Y                   Z               Mass
    ------------   -----------------  -----------------  -----------------  -----------------
         CL           1.225841881468     0.000013191944    -0.072264853912    34.968852682000
         C           -0.507858118532     0.000011191944     0.408715146088    12.000000000000
         C           -1.172313118532    -1.263016808056    -0.103584853912    12.000000000000
         C           -1.172344118532     1.262973191944    -0.103697853912    12.000000000000
         H           -0.499830118532     0.000075191944     1.501125146088     1.007825032230
         H           -0.675581118532    -2.154672808056     0.282819146088     1.007825032230
         H           -2.218591118532    -1.278851808056     0.216616146088     1.007825032230
         H           -1.140410118532    -1.292931808056    -1.195295853912     1.007825032230
         H           -0.675618118532     2.154672191944     0.282601146088     1.007825032230
         H           -2.218547118532     1.278841191944     0.216519146088     1.007825032230
         H           -1.140469118532     1.292796191944    -1.195407853912     1.007825032230

  Basis Set: AUG-CC-PVTZ
    Blend: AUG-CC-PVTZ
  Basis Set: (AUG-CC-PVTZ AUX)
    Blend: AUG-CC-PVTZ-JKFIT
	 Reference Energy          =    -577.2509015572011322 [Eh]
	 Singles Energy            =      -0.0000000000000000 [Eh]
	 Same-Spin Energy          =      -0.1863436428648311 [Eh]
	 Opposite-Spin Energy      =      -0.6448987595317746 [Eh]
	 Correlation Energy        =      -0.8312424023966056 [Eh]
	 Total Energy              =    -578.0821439595977154 [Eh]

	 ================> DF-SCS-MP2 Energies <==================
	-----------------------------------------------------------
	 SCS Same-Spin Scale       =       0.3333333333333333 [-]
	 SCS Opposite-Spin Scale   =       1.2000000000000000 [-]
	 SCS Same-Spin Energy      =      -0.0621145476216104 [Eh]
	 SCS Opposite-Spin Energy  =      -0.7738785114381295 [Eh]
	 SCS Correlation Energy    =      -0.8359930590597399 [Eh]
	 SCS Total Energy          =    -578.0868946162609063 [Eh]
	-----------------------------------------------------------

  Dipole Moment: [D]
     X:    -2.0883      Y:     0.0000      Z:     0.4714     Total:     2.1409

*** Psi4 exiting successfully. Buy a developer a beer!
