                               Psi4 1.4a3.dev225

  ==> Input File <==

--------------------------------------------------------------------------
#psi4
#
memory 32 gb

molecule  {
0 1
 Cl        1.3436760     0.0000000    -0.0570310
  C       -0.3514306     0.0000000     0.3895169
  C       -1.0564130    -1.2654060    -0.1197220
  C       -1.0564130     1.2654060    -0.1197220
  H       -0.4039850     0.0000000     1.4949590
  H       -0.5598110    -2.1568730     0.2689710
  H       -2.1057750    -1.2863280     0.1915640
  H       -1.0158470    -1.2927240    -1.2116860
  H       -0.5598100     2.1568730     0.2689710
  H       -2.1057740     1.2863280     0.1915650
  H       -1.0158470     1.2927230    -1.2116860
units angstrom
no_reorient  #important for SAPT in psi4, default
symmetry c1  #important for SAPT in psi4, default
}

set PROPERTIES_ORIGIN ["COM"]
properties('MP2/aug-cc-pvtz', properties = ['dipole'])
--------------------------------------------------------------------------

    Molecular point group: c1
  Charge       = 0
  Multiplicity = 1
  Basis Set: AUG-CC-PVTZ
    Blend: AUG-CC-PVTZ
  Basis Set: (AUG-CC-PVTZ AUX)
    Blend: AUG-CC-PVTZ-JKFIT

    Orbital Energies [Eh]
    ---------------------

    Doubly Occupied:

       1A   -104.820840     2A    -11.296354     3A    -11.229609
       4A    -11.229596     5A    -10.546029     6A     -8.012902
       7A     -8.011061     8A     -8.011052     9A     -1.154420
      10A     -1.014418    11A     -0.946640    12A     -0.794771
      13A     -0.647001    14A     -0.611119    15A     -0.589718
      16A     -0.551503    17A     -0.517148    18A     -0.505203
      19A     -0.502690    20A     -0.427779    21A     -0.426932

  @DF-RHF Final Energy:  -577.24827091692487

   => Energetics <=

    Nuclear Repulsion Energy =            166.8172275953631640
    One-Electron Energy =               -1124.4374257819820286
    Two-Electron Energy =                 380.3719272696940266
    Total Energy =                       -577.2482709169248665
  Basis Set: (AUG-CC-PVTZ AUX)
    Blend: AUG-CC-PVTZ-RI
    Molecular point group: c1

    Geometry (in Angstrom), charge = 0, multiplicity = 1:

       Center              X                  Y                   Z               Mass
    ------------   -----------------  -----------------  -----------------  -----------------
         CL           1.220788814288     0.000000012917    -0.054456993970    34.968852682000
         C           -0.474317785712     0.000000012917     0.392090906030    12.000000000000
         C           -1.179300185712    -1.265405987083    -0.117147993970    12.000000000000
         C           -1.179300185712     1.265406012917    -0.117147993970    12.000000000000
         H           -0.526872185712     0.000000012917     1.497533006030     1.007825032230
         H           -0.682698185712    -2.156872987083     0.271545006030     1.007825032230
         H           -2.228662185712    -1.286327987083     0.194138006030     1.007825032230
         H           -1.138734185712    -1.292723987083    -1.209111993970     1.007825032230
         H           -0.682697185712     2.156873012917     0.271545006030     1.007825032230
         H           -2.228661185712     1.286328012917     0.194139006030     1.007825032230
         H           -1.138734185712     1.292723012917    -1.209111993970     1.007825032230

  Basis Set: AUG-CC-PVTZ
    Blend: AUG-CC-PVTZ
  Basis Set: (AUG-CC-PVTZ AUX)
    Blend: AUG-CC-PVTZ-JKFIT
	 Reference Energy          =    -577.2482709169248665 [Eh]
	 Singles Energy            =      -0.0000000000000000 [Eh]
	 Same-Spin Energy          =      -0.1865429462582296 [Eh]
	 Opposite-Spin Energy      =      -0.6453367730949038 [Eh]
	 Correlation Energy        =      -0.8318797193531334 [Eh]
	 Total Energy              =    -578.0801506362779492 [Eh]

	 ================> DF-SCS-MP2 Energies <==================
	-----------------------------------------------------------
	 SCS Same-Spin Scale       =       0.3333333333333333 [-]
	 SCS Opposite-Spin Scale   =       1.2000000000000000 [-]
	 SCS Same-Spin Energy      =      -0.0621809820860765 [Eh]
	 SCS Opposite-Spin Energy  =      -0.7744041277138846 [Eh]
	 SCS Correlation Energy    =      -0.8365851097999611 [Eh]
	 SCS Total Energy          =    -578.0848560267248786 [Eh]
	-----------------------------------------------------------

  Dipole Moment: [D]
     X:    -1.9093      Y:    -0.0000      Z:     0.4229     Total:     1.9556

*** Psi4 exiting successfully. Buy a developer a beer!
