                               Psi4 1.3.2 release

  ==> Input File <==

--------------------------------------------------------------------------
#psi4
#
memory 32 gb

molecule  {
0 1
 Cl        1.2258420     0.0000130    -0.0722650
  C       -0.5078580     0.0000110     0.4087150
  C       -1.0846719    -1.0964245    -0.0360130
  C       -1.1723440     1.2629730    -0.1036980
  H       -0.4998300     0.0000750     1.5011250
  H       -0.6755810    -2.1546730     0.2828190
  H       -2.2185910    -1.2788520     0.2166160
  H       -1.1404100    -1.2929320    -1.1952960
  H       -0.6756180     2.1546720     0.2826010
  H       -2.2185470     1.2788410     0.2165190
  H       -1.1404690     1.2927960    -1.1954080
units angstrom
no_reorient  #important for SAPT in psi4, default
symmetry c1  #important for SAPT in psi4, default
}

set PROPERTIES_ORIGIN ["COM"]
properties('MP2/aug-cc-pvtz', properties = ['dipole'])
--------------------------------------------------------------------------

    Molecular point group: c1
  Charge       = 0
  Multiplicity = 1
  Basis Set: AUG-CC-PVTZ
    Blend: AUG-CC-PVTZ
  Basis Set: (AUG-CC-PVTZ AUX)
    Blend: AUG-CC-PVTZ-JKFIT

    Orbital Energies [Eh]
    ---------------------

    Doubly Occupied:

       1A   -104.816189     2A    -11.288070     3A    -11.241560
       4A    -11.231254     5A    -10.541206     6A     -8.007956
       7A     -8.006196     8A     -8.006182     9A     -1.175146
      10A     -1.032083    11A     -0.953904    12A     -0.794998
      13A     -0.669410    14A     -0.623414    15A     -0.606687
      16A     -0.543501    17A     -0.534044    18A     -0.474624
      19A     -0.467368    20A     -0.432779    21A     -0.427217

  @DF-RHF Final Energy:  -577.19924966711744

   => Energetics <=

    Nuclear Repulsion Energy =            169.8470573370080956
    One-Electron Energy =               -1130.3450404660695767
    Two-Electron Energy =                 383.2987334619440389
    Total Energy =                       -577.1992496671174422
  Basis Set: (AUG-CC-PVTZ AUX)
    Blend: AUG-CC-PVTZ-RI
    Molecular point group: c1

    Geometry (in Angstrom), charge = 0, multiplicity = 1:

       Center              X                  Y                   Z               Mass
    ------------   -----------------  -----------------  -----------------  -----------------
         CL           1.212362718448    -0.025608662020    -0.082657398090    34.968852682000
         C           -0.521337281552    -0.025610662020     0.398322601910    12.000000000000
         C           -1.098151181552    -1.122046162020    -0.046405398090    12.000000000000
         C           -1.185823281552     1.237351337980    -0.114090398090    12.000000000000
         H           -0.513309281552    -0.025546662020     1.490732601910     1.007825032230
         H           -0.689060281552    -2.180294662020     0.272426601910     1.007825032230
         H           -2.232070281552    -1.304473662020     0.206223601910     1.007825032230
         H           -1.153889281552    -1.318553662020    -1.205688398090     1.007825032230
         H           -0.689097281552     2.129050337980     0.272208601910     1.007825032230
         H           -2.232026281552     1.253219337980     0.206126601910     1.007825032230
         H           -1.153948281552     1.267174337980    -1.205800398090     1.007825032230

  Basis Set: AUG-CC-PVTZ
    Blend: AUG-CC-PVTZ
  Basis Set: (AUG-CC-PVTZ AUX)
    Blend: AUG-CC-PVTZ-JKFIT
	 Reference Energy          =    -577.1992496671174422 [Eh]
	 Singles Energy            =      -0.0000000000000000 [Eh]
	 Same-Spin Energy          =      -0.1895925699504608 [Eh]
	 Opposite-Spin Energy      =      -0.6492132967315081 [Eh]
	 Correlation Energy        =      -0.8388058666819689 [Eh]
	 Total Energy              =    -578.0380555337993655 [Eh]

	 ================> DF-SCS-MP2 Energies <==================
	-----------------------------------------------------------
	 SCS Same-Spin Scale       =       0.3333333333333333 [-]
	 SCS Opposite-Spin Scale   =       1.2000000000000000 [-]
	 SCS Same-Spin Energy      =      -0.0631975233168202 [Eh]
	 SCS Opposite-Spin Energy  =      -0.7790559560778096 [Eh]
	 SCS Correlation Energy    =      -0.8422534793946299 [Eh]
	 SCS Total Energy          =    -578.0415031465121274 [Eh]
	-----------------------------------------------------------

  Dipole Moment: [D]
     X:    -2.1112      Y:    -0.0321      Z:     0.4705     Total:     2.1633

*** Psi4 exiting successfully. Buy a developer a beer!
