                               Psi4 1.4a3.dev225

  ==> Input File <==

--------------------------------------------------------------------------
#psi4
#
memory 32 gb

molecule  {
0 1
 Cl        1.3436760     0.0000000    -0.0570310
  C       -0.4191212     0.0000000     0.4073489
  C       -1.0564130    -1.2654060    -0.1197220
  C       -1.0564130     1.2654060    -0.1197220
  H       -0.4039850     0.0000000     1.4949590
  H       -0.5598110    -2.1568730     0.2689710
  H       -2.1057750    -1.2863280     0.1915640
  H       -1.0158470    -1.2927240    -1.2116860
  H       -0.5598100     2.1568730     0.2689710
  H       -2.1057740     1.2863280     0.1915650
  H       -1.0158470     1.2927230    -1.2116860
units angstrom
no_reorient  #important for SAPT in psi4, default
symmetry c1  #important for SAPT in psi4, default
}

set PROPERTIES_ORIGIN ["COM"]
properties('MP2/aug-cc-pvtz', properties = ['dipole'])
--------------------------------------------------------------------------

    Molecular point group: c1
  Charge       = 0
  Multiplicity = 1
  Basis Set: AUG-CC-PVTZ
    Blend: AUG-CC-PVTZ
  Basis Set: (AUG-CC-PVTZ AUX)
    Blend: AUG-CC-PVTZ-JKFIT

    Orbital Energies [Eh]
    ---------------------

    Doubly Occupied:

       1A   -104.812759     2A    -11.299727     3A    -11.231327
       4A    -11.231312     5A    -10.537331     6A     -8.004049
       7A     -8.002408     8A     -8.002402     9A     -1.143572
      10A     -1.016219    11A     -0.953285    12A     -0.799334
      13A     -0.649893    14A     -0.615567    15A     -0.589931
      16A     -0.555665    17A     -0.518189    18A     -0.513842
      19A     -0.485101    20A     -0.426970    21A     -0.426623

  @DF-RHF Final Energy:  -577.25096114031351

   => Energetics <=

    Nuclear Repulsion Energy =            166.1607766638429382
    One-Electron Energy =               -1123.1924684763969253
    Two-Electron Energy =                 379.7807306722404519
    Total Energy =                       -577.2509611403135068
  Basis Set: (AUG-CC-PVTZ AUX)
    Blend: AUG-CC-PVTZ-RI
    Molecular point group: c1

    Geometry (in Angstrom), charge = 0, multiplicity = 1:

       Center              X                  Y                   Z               Mass
    ------------   -----------------  -----------------  -----------------  -----------------
         CL           1.231199599095     0.000000012917    -0.057199547806    34.968852682000
         C           -0.531597600905     0.000000012917     0.407180352194    12.000000000000
         C           -1.168889400905    -1.265405987083    -0.119890547806    12.000000000000
         C           -1.168889400905     1.265406012917    -0.119890547806    12.000000000000
         H           -0.516461400905     0.000000012917     1.494790452194     1.007825032230
         H           -0.672287400905    -2.156872987083     0.268802452194     1.007825032230
         H           -2.218251400905    -1.286327987083     0.191395452194     1.007825032230
         H           -1.128323400905    -1.292723987083    -1.211854547806     1.007825032230
         H           -0.672286400905     2.156873012917     0.268802452194     1.007825032230
         H           -2.218250400905     1.286328012917     0.191396452194     1.007825032230
         H           -1.128323400905     1.292723012917    -1.211854547806     1.007825032230

  Basis Set: AUG-CC-PVTZ
    Blend: AUG-CC-PVTZ
  Basis Set: (AUG-CC-PVTZ AUX)
    Blend: AUG-CC-PVTZ-JKFIT
	 Reference Energy          =    -577.2509611403135068 [Eh]
	 Singles Energy            =      -0.0000000000000000 [Eh]
	 Same-Spin Energy          =      -0.1861942039698012 [Eh]
	 Opposite-Spin Energy      =      -0.6447438232588302 [Eh]
	 Correlation Energy        =      -0.8309380272286313 [Eh]
	 Total Energy              =    -578.0818991675421330 [Eh]

	 ================> DF-SCS-MP2 Energies <==================
	-----------------------------------------------------------
	 SCS Same-Spin Scale       =       0.3333333333333333 [-]
	 SCS Opposite-Spin Scale   =       1.2000000000000000 [-]
	 SCS Same-Spin Energy      =      -0.0620647346566004 [Eh]
	 SCS Opposite-Spin Energy  =      -0.7736925879105961 [Eh]
	 SCS Correlation Energy    =      -0.8357573225671965 [Eh]
	 SCS Total Energy          =    -578.0867184628807536 [Eh]
	-----------------------------------------------------------

  Dipole Moment: [D]
     X:    -2.1878      Y:    -0.0000      Z:     0.4540     Total:     2.2344

*** Psi4 exiting successfully. Buy a developer a beer!
