                               Psi4 1.3.2 release

  ==> Input File <==

--------------------------------------------------------------------------
#psi4
#
memory 32 gb

molecule  {
0 1
 Cl        1.2258420     0.0000130    -0.0722650
  C       -0.5078580     0.0000110     0.4087150
  C       -1.1723130    -1.2630170    -0.1035850
  C       -1.1723440     1.2629730    -0.1036980
  H       -0.4990951     0.0000809     1.6011223
  H       -0.6755810    -2.1546730     0.2828190
  H       -2.2185910    -1.2788520     0.2166160
  H       -1.1404100    -1.2929320    -1.1952960
  H       -0.6756180     2.1546720     0.2826010
  H       -2.2185470     1.2788410     0.2165190
  H       -1.1404690     1.2927960    -1.1954080
units angstrom
no_reorient  #important for SAPT in psi4, default
symmetry c1  #important for SAPT in psi4, default
}

set PROPERTIES_ORIGIN ["COM"]
properties('MP2/aug-cc-pvtz', properties = ['dipole'])
--------------------------------------------------------------------------

    Molecular point group: c1
  Charge       = 0
  Multiplicity = 1
  Basis Set: AUG-CC-PVTZ
    Blend: AUG-CC-PVTZ
  Basis Set: (AUG-CC-PVTZ AUX)
    Blend: AUG-CC-PVTZ-JKFIT

    Orbital Energies [Eh]
    ---------------------

    Doubly Occupied:

       1A   -104.816480     2A    -11.309063     3A    -11.231100
       4A    -11.231082     5A    -10.541191     6A     -8.007954
       7A     -8.006243     8A     -8.006239     9A     -1.145443
      10A     -1.016200    11A     -0.952088    12A     -0.784167
      13A     -0.643536    14A     -0.615399    15A     -0.590560
      16A     -0.554848    17A     -0.512650    18A     -0.512011
      19A     -0.488550    20A     -0.428191    21A     -0.424238

  @DF-RHF Final Energy:  -577.24406783001837

   => Energetics <=

    Nuclear Repulsion Energy =            166.0823762888964836
    One-Electron Energy =               -1123.0184222785849215
    Two-Electron Energy =                 379.6919781596700432
    Total Energy =                       -577.2440678300183663
  Basis Set: (AUG-CC-PVTZ AUX)
    Blend: AUG-CC-PVTZ-RI
    Molecular point group: c1

    Geometry (in Angstrom), charge = 0, multiplicity = 1:

       Center              X                  Y                   Z               Mass
    ------------   -----------------  -----------------  -----------------  -----------------
         CL           1.225832388823     0.000013115734    -0.073556511129    34.968852682000
         C           -0.507867611177     0.000011115734     0.407423488871    12.000000000000
         C           -1.172322611177    -1.263016884266    -0.104876511129    12.000000000000
         C           -1.172353611177     1.262973115734    -0.104989511129    12.000000000000
         H           -0.499104711177     0.000081015734     1.599830788871     1.007825032230
         H           -0.675590611177    -2.154672884266     0.281527488871     1.007825032230
         H           -2.218600611177    -1.278851884266     0.215324488871     1.007825032230
         H           -1.140419611177    -1.292931884266    -1.196587511129     1.007825032230
         H           -0.675627611177     2.154672115734     0.281309488871     1.007825032230
         H           -2.218556611177     1.278841115734     0.215227488871     1.007825032230
         H           -1.140478611177     1.292796115734    -1.196699511129     1.007825032230

  Basis Set: AUG-CC-PVTZ
    Blend: AUG-CC-PVTZ
  Basis Set: (AUG-CC-PVTZ AUX)
    Blend: AUG-CC-PVTZ-JKFIT
	 Reference Energy          =    -577.2440678300183663 [Eh]
	 Singles Energy            =      -0.0000000000000000 [Eh]
	 Same-Spin Energy          =      -0.1865209046032533 [Eh]
	 Opposite-Spin Energy      =      -0.6457865548409762 [Eh]
	 Correlation Energy        =      -0.8323074594442295 [Eh]
	 Total Energy              =    -578.0763752894625895 [Eh]

	 ================> DF-SCS-MP2 Energies <==================
	-----------------------------------------------------------
	 SCS Same-Spin Scale       =       0.3333333333333333 [-]
	 SCS Opposite-Spin Scale   =       1.2000000000000000 [-]
	 SCS Same-Spin Energy      =      -0.0621736348677511 [Eh]
	 SCS Opposite-Spin Energy  =      -0.7749438658091715 [Eh]
	 SCS Correlation Energy    =      -0.8371175006769226 [Eh]
	 SCS Total Energy          =    -578.0811853306952344 [Eh]
	-----------------------------------------------------------

  Dipole Moment: [D]
     X:    -2.0711      Y:     0.0000      Z:     0.4168     Total:     2.1126

*** Psi4 exiting successfully. Buy a developer a beer!
