                               Psi4 1.3.2 release

  ==> Input File <==

--------------------------------------------------------------------------
#psi4
#
memory 32 gb

molecule  {
0 1
 Cl        1.2339722     0.0000149    -0.0419345
  C       -0.5078580     0.0000110     0.4087150
  C       -1.1723130    -1.2630170    -0.1035850
  C       -1.1723440     1.2629730    -0.1036980
  H       -0.4807660     0.0000753     1.5008185
  H       -0.6755810    -2.1546730     0.2828190
  H       -2.2185910    -1.2788520     0.2166160
  H       -1.1404100    -1.2929320    -1.1952960
  H       -0.6756180     2.1546720     0.2826010
  H       -2.2185470     1.2788410     0.2165190
  H       -1.1404690     1.2927960    -1.1954080
units angstrom
no_reorient  #important for SAPT in psi4, default
symmetry c1  #important for SAPT in psi4, default
}

set PROPERTIES_ORIGIN ["COM"]
properties('MP2/aug-cc-pvtz', properties = ['dipole'])
--------------------------------------------------------------------------

    Molecular point group: c1
  Charge       = 0
  Multiplicity = 1
  Basis Set: AUG-CC-PVTZ
    Blend: AUG-CC-PVTZ
  Basis Set: (AUG-CC-PVTZ AUX)
    Blend: AUG-CC-PVTZ-JKFIT

    Orbital Energies [Eh]
    ---------------------

    Doubly Occupied:

       1A   -104.814914     2A    -11.297716     3A    -11.230586
       4A    -11.230569     5A    -10.539717     6A     -8.006484
       7A     -8.004781     8A     -8.004771     9A     -1.147213
      10A     -1.016578    11A     -0.951637    12A     -0.797994
      13A     -0.649112    14A     -0.615217    15A     -0.590091
      16A     -0.554506    17A     -0.519018    18A     -0.511355
      19A     -0.490148    20A     -0.427424    21A     -0.426545

  @DF-RHF Final Energy:  -577.25085111540045

   => Energetics <=

    Nuclear Repulsion Energy =            166.4375325239612096
    One-Electron Energy =               -1123.7240144226020675
    Two-Electron Energy =                 380.0356307832404923
    Total Energy =                       -577.2508511154003372
  Basis Set: (AUG-CC-PVTZ AUX)
    Blend: AUG-CC-PVTZ-RI
    Molecular point group: c1

    Geometry (in Angstrom), charge = 0, multiplicity = 1:

       Center              X                  Y                   Z               Mass
    ------------   -----------------  -----------------  -----------------  -----------------
         CL           1.230082017001     0.000014236521    -0.055524005102    34.968852682000
         C           -0.511748182999     0.000010336521     0.395125494898    12.000000000000
         C           -1.176203182999    -1.263017663479    -0.117174505102    12.000000000000
         C           -1.176234182999     1.262972336521    -0.117287505102    12.000000000000
         H           -0.484656182999     0.000074636521     1.487228994898     1.007825032230
         H           -0.679471182999    -2.154673663479     0.269229494898     1.007825032230
         H           -2.222481182999    -1.278852663479     0.203026494898     1.007825032230
         H           -1.144300182999    -1.292932663479    -1.208885505102     1.007825032230
         H           -0.679508182999     2.154671336521     0.269011494898     1.007825032230
         H           -2.222437182999     1.278840336521     0.202929494898     1.007825032230
         H           -1.144359182999     1.292795336521    -1.208997505102     1.007825032230

  Basis Set: AUG-CC-PVTZ
    Blend: AUG-CC-PVTZ
  Basis Set: (AUG-CC-PVTZ AUX)
    Blend: AUG-CC-PVTZ-JKFIT
	 Reference Energy          =    -577.2508511154004509 [Eh]
	 Singles Energy            =      -0.0000000000000000 [Eh]
	 Same-Spin Energy          =      -0.1863206493034158 [Eh]
	 Opposite-Spin Energy      =      -0.6448381237710833 [Eh]
	 Correlation Energy        =      -0.8311587730744991 [Eh]
	 Total Energy              =    -578.0820098884749996 [Eh]

	 ================> DF-SCS-MP2 Energies <==================
	-----------------------------------------------------------
	 SCS Same-Spin Scale       =       0.3333333333333333 [-]
	 SCS Opposite-Spin Scale   =       1.2000000000000000 [-]
	 SCS Same-Spin Energy      =      -0.0621068831011386 [Eh]
	 SCS Opposite-Spin Energy  =      -0.7738057485252999 [Eh]
	 SCS Correlation Energy    =      -0.8359126316264385 [Eh]
	 SCS Total Energy          =    -578.0867637470269074 [Eh]
	-----------------------------------------------------------

  Dipole Moment: [D]
     X:    -2.1065      Y:     0.0000      Z:     0.4471     Total:     2.1535

*** Psi4 exiting successfully. Buy a developer a beer!
