                               Psi4 1.4a3.dev225

  ==> Input File <==

--------------------------------------------------------------------------
#psi4
#
memory 32 gb

molecule  {
0 1
 Cl        1.3436760     0.0000000    -0.0570310
  C       -0.4481314     0.0000000     0.4149911
  C       -1.0564130    -1.2654060    -0.1197220
  C       -1.0564130     1.2654060    -0.1197220
  H       -0.4039850     0.0000000     1.4949590
  H       -0.5598110    -2.1568730     0.2689710
  H       -2.1057750    -1.2863280     0.1915640
  H       -1.0158470    -1.2927240    -1.2116860
  H       -0.5598100     2.1568730     0.2689710
  H       -2.1057740     1.2863280     0.1915650
  H       -1.0158470     1.2927230    -1.2116860
units angstrom
no_reorient  #important for SAPT in psi4, default
symmetry c1  #important for SAPT in psi4, default
}

set PROPERTIES_ORIGIN ["COM"]
properties('MP2/aug-cc-pvtz', properties = ['dipole'])
--------------------------------------------------------------------------

    Molecular point group: c1
  Charge       = 0
  Multiplicity = 1
  Basis Set: AUG-CC-PVTZ
    Blend: AUG-CC-PVTZ
  Basis Set: (AUG-CC-PVTZ AUX)
    Blend: AUG-CC-PVTZ-JKFIT

    Orbital Energies [Eh]
    ---------------------

    Doubly Occupied:

       1A   -104.808814     2A    -11.301684     3A    -11.232303
       4A    -11.232288     5A    -10.533226     6A     -7.999888
       7A     -7.998318     8A     -7.998313     9A     -1.140341
      10A     -1.016186    11A     -0.956321    12A     -0.801407
      13A     -0.651656    14A     -0.617513    15A     -0.590532
      16A     -0.557662    17A     -0.519802    18A     -0.517922
      19A     -0.476739    20A     -0.425861    21A     -0.425031

  @DF-RHF Final Energy:  -577.25009392972174

   => Energetics <=

    Nuclear Repulsion Energy =            165.8914519054887933
    One-Electron Energy =               -1122.6794779636347812
    Two-Electron Energy =                 379.5379321284242451
    Total Energy =                       -577.2500939297217428
  Basis Set: (AUG-CC-PVTZ AUX)
    Blend: AUG-CC-PVTZ-RI
    Molecular point group: c1

    Geometry (in Angstrom), charge = 0, multiplicity = 1:

       Center              X                  Y                   Z               Mass
    ------------   -----------------  -----------------  -----------------  -----------------
         CL           1.235661355224     0.000000012917    -0.058374914839    34.968852682000
         C           -0.556146044776     0.000000012917     0.413647185161    12.000000000000
         C           -1.164427644776    -1.265405987083    -0.121065914839    12.000000000000
         C           -1.164427644776     1.265406012917    -0.121065914839    12.000000000000
         H           -0.511999644776     0.000000012917     1.493615085161     1.007825032230
         H           -0.667825644776    -2.156872987083     0.267627085161     1.007825032230
         H           -2.213789644776    -1.286327987083     0.190220085161     1.007825032230
         H           -1.123861644776    -1.292723987083    -1.213029914839     1.007825032230
         H           -0.667824644776     2.156873012917     0.267627085161     1.007825032230
         H           -2.213788644776     1.286328012917     0.190221085161     1.007825032230
         H           -1.123861644776     1.292723012917    -1.213029914839     1.007825032230

  Basis Set: AUG-CC-PVTZ
    Blend: AUG-CC-PVTZ
  Basis Set: (AUG-CC-PVTZ AUX)
    Blend: AUG-CC-PVTZ-JKFIT
	 Reference Energy          =    -577.2500939297217428 [Eh]
	 Singles Energy            =      -0.0000000000000000 [Eh]
	 Same-Spin Energy          =      -0.1861204127118803 [Eh]
	 Opposite-Spin Energy      =      -0.6445835163299812 [Eh]
	 Correlation Energy        =      -0.8307039290418615 [Eh]
	 Total Energy              =    -578.0807978587636171 [Eh]

	 ================> DF-SCS-MP2 Energies <==================
	-----------------------------------------------------------
	 SCS Same-Spin Scale       =       0.3333333333333333 [-]
	 SCS Opposite-Spin Scale   =       1.2000000000000000 [-]
	 SCS Same-Spin Energy      =      -0.0620401375706268 [Eh]
	 SCS Opposite-Spin Energy  =      -0.7735002195959775 [Eh]
	 SCS Correlation Energy    =      -0.8355403571666042 [Eh]
	 SCS Total Energy          =    -578.0856342868883075 [Eh]
	-----------------------------------------------------------

  Dipole Moment: [D]
     X:    -2.3152      Y:    -0.0000      Z:     0.4672     Total:     2.3618

*** Psi4 exiting successfully. Buy a developer a beer!
