                               Psi4 1.3.2 release

  ==> Input File <==

--------------------------------------------------------------------------
#psi4
#
memory 32 gb

molecule  {
0 1
 Cl        1.2258420     0.0000130    -0.0722650
  C       -0.4114976     0.0000111     0.3819817
  C       -1.1723130    -1.2630170    -0.1035850
  C       -1.1723440     1.2629730    -0.1036980
  H       -0.4998300     0.0000750     1.5011250
  H       -0.6755810    -2.1546730     0.2828190
  H       -2.2185910    -1.2788520     0.2166160
  H       -1.1404100    -1.2929320    -1.1952960
  H       -0.6756180     2.1546720     0.2826010
  H       -2.2185470     1.2788410     0.2165190
  H       -1.1404690     1.2927960    -1.1954080
units angstrom
no_reorient  #important for SAPT in psi4, default
symmetry c1  #important for SAPT in psi4, default
}

set PROPERTIES_ORIGIN ["COM"]
properties('MP2/aug-cc-pvtz', properties = ['dipole'])
--------------------------------------------------------------------------

    Molecular point group: c1
  Charge       = 0
  Multiplicity = 1
  Basis Set: AUG-CC-PVTZ
    Blend: AUG-CC-PVTZ
  Basis Set: (AUG-CC-PVTZ AUX)
    Blend: AUG-CC-PVTZ-JKFIT

    Orbital Energies [Eh]
    ---------------------

    Doubly Occupied:

       1A   -104.825764     2A    -11.294161     3A    -11.228345
       4A    -11.228329     5A    -10.551718     6A     -8.018737
       7A     -8.016699     8A     -8.016689     9A     -1.166344
      10A     -1.012269    11A     -0.942426    12A     -0.791742
      13A     -0.646630    14A     -0.608816    15A     -0.590779
      16A     -0.549003    17A     -0.523436    18A     -0.509585
      19A     -0.500781    20A     -0.425725    21A     -0.424223

  @DF-RHF Final Energy:  -577.24138486502704

   => Energetics <=

    Nuclear Repulsion Energy =            167.5403050420630962
    One-Electron Energy =               -1125.8189811948448096
    Two-Electron Energy =                 381.0372912877546696
    Total Energy =                       -577.2413848650270438
  Basis Set: (AUG-CC-PVTZ AUX)
    Blend: AUG-CC-PVTZ-RI
    Molecular point group: c1

    Geometry (in Angstrom), charge = 0, multiplicity = 1:

       Center              X                  Y                   Z               Mass
    ------------   -----------------  -----------------  -----------------  -----------------
         CL           1.211021693904     0.000013176564    -0.068153284011    34.968852682000
         C           -0.426317906096     0.000011276564     0.386093415989    12.000000000000
         C           -1.187133306096    -1.263016823436    -0.099473284011    12.000000000000
         C           -1.187164306096     1.262973176564    -0.099586284011    12.000000000000
         H           -0.514650306096     0.000075176564     1.505236715989     1.007825032230
         H           -0.690401306096    -2.154672823436     0.286930715989     1.007825032230
         H           -2.233411306096    -1.278851823436     0.220727715989     1.007825032230
         H           -1.155230306096    -1.292931823436    -1.191184284011     1.007825032230
         H           -0.690438306096     2.154672176564     0.286712715989     1.007825032230
         H           -2.233367306096     1.278841176564     0.220630715989     1.007825032230
         H           -1.155289306096     1.292796176564    -1.191296284011     1.007825032230

  Basis Set: AUG-CC-PVTZ
    Blend: AUG-CC-PVTZ
  Basis Set: (AUG-CC-PVTZ AUX)
    Blend: AUG-CC-PVTZ-JKFIT
	 Reference Energy          =    -577.2413848650270438 [Eh]
	 Singles Energy            =      -0.0000000000000000 [Eh]
	 Same-Spin Energy          =      -0.1870575206211830 [Eh]
	 Opposite-Spin Energy      =      -0.6460329576339849 [Eh]
	 Correlation Energy        =      -0.8330904782551680 [Eh]
	 Total Energy              =    -578.0744753432821881 [Eh]

	 ================> DF-SCS-MP2 Energies <==================
	-----------------------------------------------------------
	 SCS Same-Spin Scale       =       0.3333333333333333 [-]
	 SCS Opposite-Spin Scale   =       1.2000000000000000 [-]
	 SCS Same-Spin Energy      =      -0.0623525068737277 [Eh]
	 SCS Opposite-Spin Energy  =      -0.7752395491607819 [Eh]
	 SCS Correlation Energy    =      -0.8375920560345096 [Eh]
	 SCS Total Energy          =    -578.0789769210615532 [Eh]
	-----------------------------------------------------------

  Dipole Moment: [D]
     X:    -1.7093      Y:     0.0000      Z:     0.4212     Total:     1.7604

*** Psi4 exiting successfully. Buy a developer a beer!
