                               Psi4 1.3.2 release

  ==> Input File <==

--------------------------------------------------------------------------
#psi4
#
memory 32 gb

molecule  {
0 1
 Cl        1.2258420     0.0000130    -0.0722650
  C       -0.5078580     0.0000110     0.4087150
  C       -1.1723130    -1.2630170    -0.1035850
  C       -1.1723440     1.2629730    -0.1036980
  H       -0.5012997     0.0000633     1.3011304
  H       -0.6755810    -2.1546730     0.2828190
  H       -2.2185910    -1.2788520     0.2166160
  H       -1.1404100    -1.2929320    -1.1952960
  H       -0.6756180     2.1546720     0.2826010
  H       -2.2185470     1.2788410     0.2165190
  H       -1.1404690     1.2927960    -1.1954080
units angstrom
no_reorient  #important for SAPT in psi4, default
symmetry c1  #important for SAPT in psi4, default
}

set PROPERTIES_ORIGIN ["COM"]
properties('MP2/aug-cc-pvtz', properties = ['dipole'])
--------------------------------------------------------------------------

    Molecular point group: c1
  Charge       = 0
  Multiplicity = 1
  Basis Set: AUG-CC-PVTZ
    Blend: AUG-CC-PVTZ
  Basis Set: (AUG-CC-PVTZ AUX)
    Blend: AUG-CC-PVTZ-JKFIT

    Orbital Energies [Eh]
    ---------------------

    Doubly Occupied:

       1A   -104.814360     2A    -11.273948     3A    -11.229241
       4A    -11.229222     5A    -10.539164     6A     -8.005933
       7A     -8.004247     8A     -8.004238     9A     -1.156121
      10A     -1.018969    11A     -0.950893    12A     -0.838498
      13A     -0.659798    14A     -0.614624    15A     -0.589623
      16A     -0.554098    17A     -0.527980    18A     -0.510412
      19A     -0.494295    20A     -0.431803    21A     -0.426697

  @DF-RHF Final Energy:  -577.21744896185589

   => Energetics <=

    Nuclear Repulsion Energy =            167.7076031242277452
    One-Electron Energy =               -1126.1017754041006356
    Two-Electron Energy =                 381.1767233180170820
    Total Energy =                       -577.2174489618557800
  Basis Set: (AUG-CC-PVTZ AUX)
    Blend: AUG-CC-PVTZ-RI
    Molecular point group: c1

    Geometry (in Angstrom), charge = 0, multiplicity = 1:

       Center              X                  Y                   Z               Mass
    ------------   -----------------  -----------------  -----------------  -----------------
         CL           1.225860865467     0.000013343072    -0.069681539477    34.968852682000
         C           -0.507839134533     0.000011343072     0.411298460523    12.000000000000
         C           -1.172294134533    -1.263016656928    -0.101001539477    12.000000000000
         C           -1.172325134533     1.262973343072    -0.101114539477    12.000000000000
         H           -0.501280834533     0.000063643072     1.303713860523     1.007825032230
         H           -0.675562134533    -2.154672656928     0.285402460523     1.007825032230
         H           -2.218572134533    -1.278851656928     0.219199460523     1.007825032230
         H           -1.140391134533    -1.292931656928    -1.192712539477     1.007825032230
         H           -0.675599134533     2.154672343072     0.285184460523     1.007825032230
         H           -2.218528134533     1.278841343072     0.219102460523     1.007825032230
         H           -1.140450134533     1.292796343072    -1.192824539477     1.007825032230

  Basis Set: AUG-CC-PVTZ
    Blend: AUG-CC-PVTZ
  Basis Set: (AUG-CC-PVTZ AUX)
    Blend: AUG-CC-PVTZ-JKFIT
	 Reference Energy          =    -577.2174489618558937 [Eh]
	 Singles Energy            =      -0.0000000000000000 [Eh]
	 Same-Spin Energy          =      -0.1861572539883284 [Eh]
	 Opposite-Spin Energy      =      -0.6441688818622704 [Eh]
	 Correlation Energy        =      -0.8303261358505989 [Eh]
	 Total Energy              =    -578.0477750977064488 [Eh]

	 ================> DF-SCS-MP2 Energies <==================
	-----------------------------------------------------------
	 SCS Same-Spin Scale       =       0.3333333333333333 [-]
	 SCS Opposite-Spin Scale   =       1.2000000000000000 [-]
	 SCS Same-Spin Energy      =      -0.0620524179961095 [Eh]
	 SCS Opposite-Spin Energy  =      -0.7730026582347245 [Eh]
	 SCS Correlation Energy    =      -0.8350550762308340 [Eh]
	 SCS Total Energy          =    -578.0525040380866812 [Eh]
	-----------------------------------------------------------

  Dipole Moment: [D]
     X:    -2.1095      Y:     0.0000      Z:     0.5106     Total:     2.1704

*** Psi4 exiting successfully. Buy a developer a beer!
