                               Psi4 1.3.2 release

  ==> Input File <==

--------------------------------------------------------------------------
#psi4
#
memory 32 gb

molecule  {
0 1
  O       -1.4891210     1.1679660    -0.0005210
  O       -1.4891280    -1.1679560    -0.0004790
  C       -0.1944510     0.6951560    -0.0000890
  C       -0.1944370    -0.6951450    -0.0000610
  C       -2.4445371    -0.1624672     0.0006420
  C        0.9772920     1.4300230    -0.0000060
  C        0.9772900    -1.4300260     0.0000640
  C        2.1768970     0.6987030     0.0001890
  C        2.1768990    -0.6987090     0.0002190
  H       -2.9446710     0.0000210     0.9046330
  H       -2.9467630    -0.0000130    -0.9021640
  H        0.9615330     2.5156070    -0.0000720
  H        0.9615200    -2.5156090     0.0000480
  H        3.1223520     1.2342420     0.0003040
  H        3.1223530    -1.2342490     0.0003630
units angstrom
no_reorient  #important for SAPT in psi4, default
symmetry c1  #important for SAPT in psi4, default
}

set PROPERTIES_ORIGIN ["COM"]
properties('MP2/aug-cc-pvtz', properties = ['dipole'])
--------------------------------------------------------------------------

    Molecular point group: c1
  Charge       = 0
  Multiplicity = 1
  Basis Set: AUG-CC-PVTZ
    Blend: AUG-CC-PVTZ
  Basis Set: (AUG-CC-PVTZ AUX)
    Blend: AUG-CC-PVTZ-JKFIT

    Orbital Energies [Eh]
    ---------------------

    Doubly Occupied:

       1A    -20.609543     2A    -20.577196     3A    -11.370971
       4A    -11.299837     5A    -11.292583     6A    -11.244501
       7A    -11.237846     8A    -11.236667     9A    -11.234607
      10A     -1.461402    11A     -1.341344    12A     -1.150210
      13A     -1.028868    14A     -1.014275    15A     -0.925754
      16A     -0.844470    17A     -0.824101    18A     -0.729091
      19A     -0.711578    20A     -0.702353    21A     -0.670621
      22A     -0.615854    23A     -0.595936    24A     -0.581256
      25A     -0.568179    26A     -0.551024    27A     -0.529450
      28A     -0.511101    29A     -0.493395    30A     -0.462283
      31A     -0.337869    32A     -0.300482

  @DF-RHF Final Energy:  -418.39058106969270

   => Energetics <=

    Nuclear Repulsion Energy =            423.8998348438472021
    One-Electron Energy =               -1410.4715405644412840
    Two-Electron Energy =                 568.1811246509014381
    Total Energy =                       -418.3905810696926437
  Basis Set: (AUG-CC-PVTZ AUX)
    Blend: AUG-CC-PVTZ-RI
    Molecular point group: c1

    Geometry (in Angstrom), charge = 0, multiplicity = 1:

       Center              X                  Y                   Z               Mass
    ------------   -----------------  -----------------  -----------------  -----------------
         O           -1.459267152831     1.183940065095    -0.000509834816    15.994914619570
         O           -1.459274152831    -1.151981934905    -0.000467834816    15.994914619570
         C           -0.164597152831     0.711130065095    -0.000077834816    12.000000000000
         C           -0.164583152831    -0.679170934905    -0.000049834816    12.000000000000
         C           -2.414683252831    -0.146493134905     0.000653165184    12.000000000000
         C            1.007145847169     1.445997065095     0.000005165184    12.000000000000
         C            1.007143847169    -1.414051934905     0.000075165184    12.000000000000
         C            2.206750847169     0.714677065095     0.000200165184    12.000000000000
         C            2.206752847169    -0.682734934905     0.000230165184    12.000000000000
         H           -2.914817152831     0.015995065095     0.904644165184     1.007825032230
         H           -2.916909152831     0.015961065095    -0.902152834816     1.007825032230
         H            0.991386847169     2.531581065095    -0.000060834816     1.007825032230
         H            0.991373847169    -2.499634934905     0.000059165184     1.007825032230
         H            3.152205847169     1.250216065095     0.000315165184     1.007825032230
         H            3.152206847169    -1.218274934905     0.000374165184     1.007825032230

  Basis Set: AUG-CC-PVTZ
    Blend: AUG-CC-PVTZ
  Basis Set: (AUG-CC-PVTZ AUX)
    Blend: AUG-CC-PVTZ-JKFIT
	 Reference Energy          =    -418.3905810696927006 [Eh]
	 Singles Energy            =      -0.0000000000000000 [Eh]
	 Same-Spin Energy          =      -0.4354721041569544 [Eh]
	 Opposite-Spin Energy      =      -1.3200573341446040 [Eh]
	 Correlation Energy        =      -1.7555294383015583 [Eh]
	 Total Energy              =    -420.1461105079942513 [Eh]

	 ================> DF-SCS-MP2 Energies <==================
	-----------------------------------------------------------
	 SCS Same-Spin Scale       =       0.3333333333333333 [-]
	 SCS Opposite-Spin Scale   =       1.2000000000000000 [-]
	 SCS Same-Spin Energy      =      -0.1451573680523181 [Eh]
	 SCS Opposite-Spin Energy  =      -1.5840688009735249 [Eh]
	 SCS Correlation Energy    =      -1.7292261690258430 [Eh]
	 SCS Total Energy          =    -420.1198072387185221 [Eh]
	-----------------------------------------------------------

  Dipole Moment: [D]
     X:    -0.9695      Y:    -0.5009      Z:     0.0024     Total:     1.0913

*** Psi4 exiting successfully. Buy a developer a beer!
