                               Psi4 1.4a3.dev225

  ==> Input File <==

--------------------------------------------------------------------------
#psi4
#
memory 32 gb

molecule  {
0 1
  O        1.4992630    -1.1582390    -0.1232700
  O        1.4992620     1.1582430    -0.1232540
  C        0.1999370    -0.6965330    -0.0341950
  C        0.1999390     0.7165360    -0.0341757
  C        2.2874770    -0.0000040     0.1828560
  C       -0.9710250    -1.4315640    -0.0051560
  C       -0.9710280     1.4315630    -0.0051810
  C       -2.1692490    -0.6989180     0.0348340
  C       -2.1692490     0.6989160     0.0348440
  H        2.5314460    -0.0000080     1.2545630
  H        3.1831710     0.0000030    -0.4375930
  H       -0.9573450    -2.5171950    -0.0133180
  H       -0.9573500     2.5171940    -0.0133180
  H       -3.1144710    -1.2338350     0.0694590
  H       -3.1144730     1.2338310     0.0694330
units angstrom
no_reorient  #important for SAPT in psi4, default
symmetry c1  #important for SAPT in psi4, default
}

set PROPERTIES_ORIGIN ["COM"]
properties('MP2/aug-cc-pvtz', properties = ['dipole'])
--------------------------------------------------------------------------

    Molecular point group: c1
  Charge       = 0
  Multiplicity = 1
  Basis Set: AUG-CC-PVTZ
    Blend: AUG-CC-PVTZ
  Basis Set: (AUG-CC-PVTZ AUX)
    Blend: AUG-CC-PVTZ-JKFIT

    Orbital Energies [Eh]
    ---------------------

    Doubly Occupied:

       1A    -20.603108     2A    -20.602991     3A    -11.358483
       4A    -11.303043     5A    -11.301759     6A    -11.245614
       7A    -11.244705     8A    -11.241817     9A    -11.240633
      10A     -1.474800    11A     -1.373408    12A     -1.154501
      13A     -1.026458    14A     -1.020420    15A     -0.913159
      16A     -0.850363    17A     -0.832609    18A     -0.723882
      19A     -0.710911    20A     -0.705765    21A     -0.671546
      22A     -0.620445    23A     -0.596443    24A     -0.585444
      25A     -0.581099    26A     -0.546141    27A     -0.544128
      28A     -0.528053    29A     -0.503753    30A     -0.461647
      31A     -0.344646    32A     -0.307000

  @DF-RHF Final Energy:  -418.41773356834079

   => Energetics <=

    Nuclear Repulsion Energy =            427.0487177394780360
    One-Electron Energy =               -1416.4953624498912177
    Two-Electron Energy =                 571.0289111420725021
    Total Energy =                       -418.4177335683407364
  Basis Set: (AUG-CC-PVTZ AUX)
    Blend: AUG-CC-PVTZ-RI
    Molecular point group: c1

    Geometry (in Angstrom), charge = 0, multiplicity = 1:

       Center              X                  Y                   Z               Mass
    ------------   -----------------  -----------------  -----------------  -----------------
         O            1.479639848723    -1.160205668594    -0.115725409651    15.994914619570
         O            1.479638848723     1.156276331406    -0.115709409651    15.994914619570
         C            0.180313848723    -0.698499668594    -0.026650409651    12.000000000000
         C            0.180315848723     0.714569331406    -0.026631109651    12.000000000000
         C            2.267853848723    -0.001970668594     0.190400590349    12.000000000000
         C           -0.990648151277    -1.433530668594     0.002388590349    12.000000000000
         C           -0.990651151277     1.429596331406     0.002363590349    12.000000000000
         C           -2.188872151277    -0.700884668594     0.042378590349    12.000000000000
         C           -2.188872151277     0.696949331406     0.042388590349    12.000000000000
         H            2.511822848723    -0.001974668594     1.262107590349     1.007825032230
         H            3.163547848723    -0.001963668594    -0.430048409651     1.007825032230
         H           -0.976968151277    -2.519161668594    -0.005773409651     1.007825032230
         H           -0.976973151277     2.515227331406    -0.005773409651     1.007825032230
         H           -3.134094151277    -1.235801668594     0.077003590349     1.007825032230
         H           -3.134096151277     1.231864331406     0.076977590349     1.007825032230

  Basis Set: AUG-CC-PVTZ
    Blend: AUG-CC-PVTZ
  Basis Set: (AUG-CC-PVTZ AUX)
    Blend: AUG-CC-PVTZ-JKFIT
	 Reference Energy          =    -418.4177335683407932 [Eh]
	 Singles Energy            =      -0.0000000000000000 [Eh]
	 Same-Spin Energy          =      -0.4348135726221093 [Eh]
	 Opposite-Spin Energy      =      -1.3175549524870860 [Eh]
	 Correlation Energy        =      -1.7523685251091954 [Eh]
	 Total Energy              =    -420.1701020934499979 [Eh]

	 ================> DF-SCS-MP2 Energies <==================
	-----------------------------------------------------------
	 SCS Same-Spin Scale       =       0.3333333333333333 [-]
	 SCS Opposite-Spin Scale   =       1.2000000000000000 [-]
	 SCS Same-Spin Energy      =      -0.1449378575407031 [Eh]
	 SCS Opposite-Spin Energy  =      -1.5810659429845031 [Eh]
	 SCS Correlation Energy    =      -1.7260038005252061 [Eh]
	 SCS Total Energy          =    -420.1437373688660273 [Eh]
	-----------------------------------------------------------

  Dipole Moment: [D]
     X:     0.2492      Y:     0.0072      Z:     0.5440     Total:     0.5984

*** Psi4 exiting successfully. Buy a developer a beer!
