                               Psi4 1.3.2 release

  ==> Input File <==

--------------------------------------------------------------------------
#psi4
#
memory 32 gb

molecule  {
0 1
  O       -1.5096328     1.1824264    -0.0004968
  O       -1.4891280    -1.1679560    -0.0004790
  C       -0.1944510     0.6951560    -0.0000890
  C       -0.1944370    -0.6951450    -0.0000610
  C       -2.3278770    -0.0000160     0.0005000
  C        0.9772920     1.4300230    -0.0000060
  C        0.9772900    -1.4300260     0.0000640
  C        2.1768970     0.6987030     0.0001890
  C        2.1768990    -0.6987090     0.0002190
  H       -2.9446710     0.0000210     0.9046330
  H       -2.9467630    -0.0000130    -0.9021640
  H        0.9615330     2.5156070    -0.0000720
  H        0.9615200    -2.5156090     0.0000480
  H        3.1223520     1.2342420     0.0003040
  H        3.1223530    -1.2342490     0.0003630
units angstrom
no_reorient  #important for SAPT in psi4, default
symmetry c1  #important for SAPT in psi4, default
}

set PROPERTIES_ORIGIN ["COM"]
properties('MP2/aug-cc-pvtz', properties = ['dipole'])
--------------------------------------------------------------------------

    Molecular point group: c1
  Charge       = 0
  Multiplicity = 1
  Basis Set: AUG-CC-PVTZ
    Blend: AUG-CC-PVTZ
  Basis Set: (AUG-CC-PVTZ AUX)
    Blend: AUG-CC-PVTZ-JKFIT

    Orbital Energies [Eh]
    ---------------------

    Doubly Occupied:

       1A    -20.602712     2A    -20.601866     3A    -11.356534
       4A    -11.303171     5A    -11.301681     6A    -11.246924
       7A    -11.245958     8A    -11.242248     9A    -11.240701
      10A     -1.466946    11A     -1.368614    12A     -1.156281
      13A     -1.025240    14A     -1.022847    15A     -0.911247
      16A     -0.852202    17A     -0.832047    18A     -0.712612
      19A     -0.712031    20A     -0.703120    21A     -0.674295
      22A     -0.619718    23A     -0.591562    24A     -0.588538
      25A     -0.564727    26A     -0.555237    27A     -0.547727
      28A     -0.530861    29A     -0.508456    30A     -0.458254
      31A     -0.343208    32A     -0.307530

  @DF-RHF Final Energy:  -418.41675384833712

   => Energetics <=

    Nuclear Repulsion Energy =            425.8136820119161143
    One-Electron Energy =               -1414.0706793554184060
    Two-Electron Energy =                 569.8402434951651685
    Total Energy =                       -418.4167538483370663
  Basis Set: (AUG-CC-PVTZ AUX)
    Blend: AUG-CC-PVTZ-RI
    Molecular point group: c1

    Geometry (in Angstrom), charge = 0, multiplicity = 1:

       Center              X                  Y                   Z               Mass
    ------------   -----------------  -----------------  -----------------  -----------------
         O           -1.488561851850     1.180531202456    -0.000474843618    15.994914619570
         O           -1.468057051850    -1.169851197544    -0.000457043618    15.994914619570
         C           -0.173380051850     0.693260802456    -0.000067043618    12.000000000000
         C           -0.173366051850    -0.697040197544    -0.000039043618    12.000000000000
         C           -2.306806051850    -0.001911197544     0.000521956382    12.000000000000
         C            0.998362948150     1.428127802456     0.000015956382    12.000000000000
         C            0.998360948150    -1.431921197544     0.000085956382    12.000000000000
         C            2.197967948150     0.696807802456     0.000210956382    12.000000000000
         C            2.197969948150    -0.700604197544     0.000240956382    12.000000000000
         H           -2.923600051850    -0.001874197544     0.904654956382     1.007825032230
         H           -2.925692051850    -0.001908197544    -0.902142043618     1.007825032230
         H            0.982603948150     2.513711802456    -0.000050043618     1.007825032230
         H            0.982590948150    -2.517504197544     0.000069956382     1.007825032230
         H            3.143422948150     1.232346802456     0.000325956382     1.007825032230
         H            3.143423948150    -1.236144197544     0.000384956382     1.007825032230

  Basis Set: AUG-CC-PVTZ
    Blend: AUG-CC-PVTZ
  Basis Set: (AUG-CC-PVTZ AUX)
    Blend: AUG-CC-PVTZ-JKFIT
	 Reference Energy          =    -418.4167538483371231 [Eh]
	 Singles Energy            =      -0.0000000000000000 [Eh]
	 Same-Spin Energy          =      -0.4344500578633471 [Eh]
	 Opposite-Spin Energy      =      -1.3175575038889180 [Eh]
	 Correlation Energy        =      -1.7520075617522650 [Eh]
	 Total Energy              =    -420.1687614100893597 [Eh]

	 ================> DF-SCS-MP2 Energies <==================
	-----------------------------------------------------------
	 SCS Same-Spin Scale       =       0.3333333333333333 [-]
	 SCS Opposite-Spin Scale   =       1.2000000000000000 [-]
	 SCS Same-Spin Energy      =      -0.1448166859544490 [Eh]
	 SCS Opposite-Spin Energy  =      -1.5810690046667015 [Eh]
	 SCS Correlation Energy    =      -1.7258856906211506 [Eh]
	 SCS Total Energy          =    -420.1426395389582922 [Eh]
	-----------------------------------------------------------

  Dipole Moment: [D]
     X:    -0.2532      Y:    -0.0445      Z:     0.0017     Total:     0.2571

*** Psi4 exiting successfully. Buy a developer a beer!
