                               Psi4 1.4a3.dev225

  ==> Input File <==

--------------------------------------------------------------------------
#psi4
#
memory 32 gb

molecule  {
0 1
  O        1.4992630    -1.1582390    -0.1232700
  O        1.4992620     1.1582430    -0.1232540
  C        0.2469529    -0.7132398    -0.0374182
  C        0.1999390     0.6965360    -0.0341760
  C        2.2874770    -0.0000040     0.1828560
  C       -0.9710250    -1.4315640    -0.0051560
  C       -0.9710280     1.4315630    -0.0051810
  C       -2.1692490    -0.6989180     0.0348340
  C       -2.1692490     0.6989160     0.0348440
  H        2.5314460    -0.0000080     1.2545630
  H        3.1831710     0.0000030    -0.4375930
  H       -0.9573450    -2.5171950    -0.0133180
  H       -0.9573500     2.5171940    -0.0133180
  H       -3.1144710    -1.2338350     0.0694590
  H       -3.1144730     1.2338310     0.0694330
units angstrom
no_reorient  #important for SAPT in psi4, default
symmetry c1  #important for SAPT in psi4, default
}

set PROPERTIES_ORIGIN ["COM"]
properties('MP2/aug-cc-pvtz', properties = ['dipole'])
--------------------------------------------------------------------------

    Molecular point group: c1
  Charge       = 0
  Multiplicity = 1
  Basis Set: AUG-CC-PVTZ
    Blend: AUG-CC-PVTZ
  Basis Set: (AUG-CC-PVTZ AUX)
    Blend: AUG-CC-PVTZ-JKFIT

    Orbital Energies [Eh]
    ---------------------

    Doubly Occupied:

       1A    -20.609792     2A    -20.601714     3A    -11.361491
       4A    -11.304977     5A    -11.299551     6A    -11.246598
       7A    -11.245368     8A    -11.240546     9A    -11.238853
      10A     -1.487403    11A     -1.383294    12A     -1.148514
      13A     -1.021577    14A     -1.019684    15A     -0.916346
      16A     -0.851248    17A     -0.832711    18A     -0.728295
      19A     -0.713298    20A     -0.710050    21A     -0.671885
      22A     -0.616192    23A     -0.599679    24A     -0.588416
      25A     -0.582503    26A     -0.552003    27A     -0.544485
      28A     -0.527187    29A     -0.500542    30A     -0.461423
      31A     -0.339589    32A     -0.303087

  @DF-RHF Final Energy:  -418.41511779445642

   => Energetics <=

    Nuclear Repulsion Energy =            427.2569064308328848
    One-Electron Energy =               -1416.8474430844664766
    Two-Electron Energy =                 571.1754188591771708
    Total Energy =                       -418.4151177944563642
  Basis Set: (AUG-CC-PVTZ AUX)
    Blend: AUG-CC-PVTZ-RI
    Molecular point group: c1

    Geometry (in Angstrom), charge = 0, multiplicity = 1:

       Center              X                  Y                   Z               Mass
    ------------   -----------------  -----------------  -----------------  -----------------
         O            1.475016727704    -1.156596251809    -0.115408439635    15.994914619570
         O            1.475015727704     1.159885748191    -0.115392439635    15.994914619570
         C            0.222706627704    -0.711597051809    -0.029556639635    12.000000000000
         C            0.175692727704     0.698178748191    -0.026314439635    12.000000000000
         C            2.263230727704     0.001638748191     0.190717560365    12.000000000000
         C           -0.995271272296    -1.429921251809     0.002705560365    12.000000000000
         C           -0.995274272296     1.433205748191     0.002680560365    12.000000000000
         C           -2.193495272296    -0.697275251809     0.042695560365    12.000000000000
         C           -2.193495272296     0.700558748191     0.042705560365    12.000000000000
         H            2.507199727704     0.001634748191     1.262424560365     1.007825032230
         H            3.158924727704     0.001645748191    -0.429731439635     1.007825032230
         H           -0.981591272296    -2.515552251809    -0.005456439635     1.007825032230
         H           -0.981596272296     2.518836748191    -0.005456439635     1.007825032230
         H           -3.138717272296    -1.232192251809     0.077320560365     1.007825032230
         H           -3.138719272296     1.235473748191     0.077294560365     1.007825032230

  Basis Set: AUG-CC-PVTZ
    Blend: AUG-CC-PVTZ
  Basis Set: (AUG-CC-PVTZ AUX)
    Blend: AUG-CC-PVTZ-JKFIT
	 Reference Energy          =    -418.4151177944564211 [Eh]
	 Singles Energy            =      -0.0000000000000000 [Eh]
	 Same-Spin Energy          =      -0.4351022830130166 [Eh]
	 Opposite-Spin Energy      =      -1.3174950405332106 [Eh]
	 Correlation Energy        =      -1.7525973235462273 [Eh]
	 Total Energy              =    -420.1677151180026613 [Eh]

	 ================> DF-SCS-MP2 Energies <==================
	-----------------------------------------------------------
	 SCS Same-Spin Scale       =       0.3333333333333333 [-]
	 SCS Opposite-Spin Scale   =       1.2000000000000000 [-]
	 SCS Same-Spin Energy      =      -0.1450340943376722 [Eh]
	 SCS Opposite-Spin Energy  =      -1.5809940486398528 [Eh]
	 SCS Correlation Energy    =      -1.7260281429775250 [Eh]
	 SCS Total Energy          =    -420.1411459374339188 [Eh]
	-----------------------------------------------------------

  Dipole Moment: [D]
     X:     0.4846      Y:    -0.0566      Z:     0.5305     Total:     0.7207

*** Psi4 exiting successfully. Buy a developer a beer!
