                               Psi4 1.3.2 release

  ==> Input File <==

--------------------------------------------------------------------------
#psi4
#
memory 32 gb

molecule  {
0 1
  O       -1.4488700     1.1379823    -0.0005685
  O       -1.4891280    -1.1679560    -0.0004790
  C       -0.1944510     0.6951560    -0.0000890
  C       -0.1944370    -0.6951450    -0.0000610
  C       -2.3278770    -0.0000160     0.0005000
  C        0.9772920     1.4300230    -0.0000060
  C        0.9772900    -1.4300260     0.0000640
  C        2.1768970     0.6987030     0.0001890
  C        2.1768990    -0.6987090     0.0002190
  H       -2.9446710     0.0000210     0.9046330
  H       -2.9467630    -0.0000130    -0.9021640
  H        0.9615330     2.5156070    -0.0000720
  H        0.9615200    -2.5156090     0.0000480
  H        3.1223520     1.2342420     0.0003040
  H        3.1223530    -1.2342490     0.0003630
units angstrom
no_reorient  #important for SAPT in psi4, default
symmetry c1  #important for SAPT in psi4, default
}

set PROPERTIES_ORIGIN ["COM"]
properties('MP2/aug-cc-pvtz', properties = ['dipole'])
--------------------------------------------------------------------------

    Molecular point group: c1
  Charge       = 0
  Multiplicity = 1
  Basis Set: AUG-CC-PVTZ
    Blend: AUG-CC-PVTZ
  Basis Set: (AUG-CC-PVTZ AUX)
    Blend: AUG-CC-PVTZ-JKFIT

    Orbital Energies [Eh]
    ---------------------

    Doubly Occupied:

       1A    -20.603474     2A    -20.601697     3A    -11.362858
       4A    -11.298528     5A    -11.296220     6A    -11.242937
       7A    -11.240863     8A    -11.238311     9A    -11.235855
      10A     -1.484056    11A     -1.379807    12A     -1.152661
      13A     -1.024734    14A     -1.021541    15A     -0.916065
      16A     -0.852079    17A     -0.834082    18A     -0.719781
      19A     -0.713308    20A     -0.710316    21A     -0.678240
      22A     -0.616427    23A     -0.599386    24A     -0.584361
      25A     -0.572207    26A     -0.556343    27A     -0.551498
      28A     -0.527173    29A     -0.503687    30A     -0.458579
      31A     -0.339190    32A     -0.300117

  @DF-RHF Final Energy:  -418.41863738817403

   => Energetics <=

    Nuclear Repulsion Energy =            428.0630039404616696
    One-Electron Energy =               -1418.5305178451396841
    Two-Electron Energy =                 572.0488765165040377
    Total Energy =                       -418.4186373881740337
  Basis Set: (AUG-CC-PVTZ AUX)
    Blend: AUG-CC-PVTZ-RI
    Molecular point group: c1

    Geometry (in Angstrom), charge = 0, multiplicity = 1:

       Center              X                  Y                   Z               Mass
    ------------   -----------------  -----------------  -----------------  -----------------
         O           -1.435763009950     1.141912228194    -0.000537146161    15.994914619570
         O           -1.476021009950    -1.164026071806    -0.000447646161    15.994914619570
         C           -0.181344009950     0.699085928194    -0.000057646161    12.000000000000
         C           -0.181330009950    -0.691215071806    -0.000029646161    12.000000000000
         C           -2.314770009950     0.003913928194     0.000531353839    12.000000000000
         C            0.990398990050     1.433952928194     0.000025353839    12.000000000000
         C            0.990396990050    -1.426096071806     0.000095353839    12.000000000000
         C            2.190003990050     0.702632928194     0.000220353839    12.000000000000
         C            2.190005990050    -0.694779071806     0.000250353839    12.000000000000
         H           -2.931564009950     0.003950928194     0.904664353839     1.007825032230
         H           -2.933656009950     0.003916928194    -0.902132646161     1.007825032230
         H            0.974639990050     2.519536928194    -0.000040646161     1.007825032230
         H            0.974626990050    -2.511679071806     0.000079353839     1.007825032230
         H            3.135458990050     1.238171928194     0.000335353839     1.007825032230
         H            3.135459990050    -1.230319071806     0.000394353839     1.007825032230

  Basis Set: AUG-CC-PVTZ
    Blend: AUG-CC-PVTZ
  Basis Set: (AUG-CC-PVTZ AUX)
    Blend: AUG-CC-PVTZ-JKFIT
	 Reference Energy          =    -418.4186373881740337 [Eh]
	 Singles Energy            =      -0.0000000000000000 [Eh]
	 Same-Spin Energy          =      -0.4341915334929750 [Eh]
	 Opposite-Spin Energy      =      -1.3156919570008696 [Eh]
	 Correlation Energy        =      -1.7498834904938447 [Eh]
	 Total Energy              =    -420.1685208786678913 [Eh]

	 ================> DF-SCS-MP2 Energies <==================
	-----------------------------------------------------------
	 SCS Same-Spin Scale       =       0.3333333333333333 [-]
	 SCS Opposite-Spin Scale   =       1.2000000000000000 [-]
	 SCS Same-Spin Energy      =      -0.1447305111643250 [Eh]
	 SCS Opposite-Spin Energy  =      -1.5788303484010435 [Eh]
	 SCS Correlation Energy    =      -1.7235608595653686 [Eh]
	 SCS Total Energy          =    -420.1421982477394295 [Eh]
	-----------------------------------------------------------

  Dipole Moment: [D]
     X:    -0.7445      Y:     0.0927      Z:     0.0017     Total:     0.7502

*** Psi4 exiting successfully. Buy a developer a beer!
