                               Psi4 1.3.2 release

  ==> Input File <==

--------------------------------------------------------------------------
#psi4
#
memory 32 gb

molecule  {
0 1
  O       -1.4891210     1.1679660    -0.0005210
  O       -1.4891280    -1.1679560    -0.0004790
  C       -0.1944510     0.6951560    -0.0000890
  C       -0.1944370    -0.6951450    -0.0000610
  C       -2.2695469     0.0812096     0.0004290
  C        0.9772920     1.4300230    -0.0000060
  C        0.9772900    -1.4300260     0.0000640
  C        2.1768970     0.6987030     0.0001890
  C        2.1768990    -0.6987090     0.0002190
  H       -2.9446710     0.0000210     0.9046330
  H       -2.9467630    -0.0000130    -0.9021640
  H        0.9615330     2.5156070    -0.0000720
  H        0.9615200    -2.5156090     0.0000480
  H        3.1223520     1.2342420     0.0003040
  H        3.1223530    -1.2342490     0.0003630
units angstrom
no_reorient  #important for SAPT in psi4, default
symmetry c1  #important for SAPT in psi4, default
}

set PROPERTIES_ORIGIN ["COM"]
properties('MP2/aug-cc-pvtz', properties = ['dipole'])
--------------------------------------------------------------------------

    Molecular point group: c1
  Charge       = 0
  Multiplicity = 1
  Basis Set: AUG-CC-PVTZ
    Blend: AUG-CC-PVTZ
  Basis Set: (AUG-CC-PVTZ AUX)
    Blend: AUG-CC-PVTZ-JKFIT

    Orbital Energies [Eh]
    ---------------------

    Doubly Occupied:

       1A    -20.612847     2A    -20.598537     3A    -11.358363
       4A    -11.305548     5A    -11.302031     6A    -11.249370
       7A    -11.245547     8A    -11.243328     9A    -11.241541
      10A     -1.494682    11A     -1.381389    12A     -1.158236
      13A     -1.030593    14A     -1.022081    15A     -0.907082
      16A     -0.857359    17A     -0.838800    18A     -0.719348
      19A     -0.716944    20A     -0.714556    21A     -0.672560
      22A     -0.622181    23A     -0.598056    24A     -0.592352
      25A     -0.571858    26A     -0.557625    27A     -0.537691
      28A     -0.532018    29A     -0.510157    30A     -0.450989
      31A     -0.344445    32A     -0.306761

  @DF-RHF Final Energy:  -418.40914855268926

   => Energetics <=

    Nuclear Repulsion Energy =            427.9734589919634686
    One-Electron Energy =               -1418.1754642032040010
    Two-Electron Energy =                 571.7928566585511589
    Total Energy =                       -418.4091485526893166
  Basis Set: (AUG-CC-PVTZ AUX)
    Blend: AUG-CC-PVTZ-RI
    Molecular point group: c1

    Geometry (in Angstrom), charge = 0, multiplicity = 1:

       Center              X                  Y                   Z               Mass
    ------------   -----------------  -----------------  -----------------  -----------------
         O           -1.476474116255     1.159979078796    -0.000488890310    15.994914619570
         O           -1.476481116255    -1.175942921204    -0.000446890310    15.994914619570
         C           -0.181804116255     0.687169078796    -0.000056890310    12.000000000000
         C           -0.181790116255    -0.703131921204    -0.000028890310    12.000000000000
         C           -2.256900016255     0.073222678796     0.000461109690    12.000000000000
         C            0.989938883745     1.422036078796     0.000026109690    12.000000000000
         C            0.989936883745    -1.438012921204     0.000096109690    12.000000000000
         C            2.189543883745     0.690716078796     0.000221109690    12.000000000000
         C            2.189545883745    -0.706695921204     0.000251109690    12.000000000000
         H           -2.932024116255    -0.007965921204     0.904665109690     1.007825032230
         H           -2.934116116255    -0.007999921204    -0.902131890310     1.007825032230
         H            0.974179883745     2.507620078796    -0.000039890310     1.007825032230
         H            0.974166883745    -2.523595921204     0.000080109690     1.007825032230
         H            3.134998883745     1.226255078796     0.000336109690     1.007825032230
         H            3.134999883745    -1.242235921204     0.000395109690     1.007825032230

  Basis Set: AUG-CC-PVTZ
    Blend: AUG-CC-PVTZ
  Basis Set: (AUG-CC-PVTZ AUX)
    Blend: AUG-CC-PVTZ-JKFIT
	 Reference Energy          =    -418.4091485526892598 [Eh]
	 Singles Energy            =      -0.0000000000000000 [Eh]
	 Same-Spin Energy          =      -0.4348376347517345 [Eh]
	 Opposite-Spin Energy      =      -1.3170117709178681 [Eh]
	 Correlation Energy        =      -1.7518494056696028 [Eh]
	 Total Energy              =    -420.1609979583588483 [Eh]

	 ================> DF-SCS-MP2 Energies <==================
	-----------------------------------------------------------
	 SCS Same-Spin Scale       =       0.3333333333333333 [-]
	 SCS Opposite-Spin Scale   =       1.2000000000000000 [-]
	 SCS Same-Spin Energy      =      -0.1449458782505782 [Eh]
	 SCS Opposite-Spin Energy  =      -1.5804141251014416 [Eh]
	 SCS Correlation Energy    =      -1.7253600033520198 [Eh]
	 SCS Total Energy          =    -420.1345085560412826 [Eh]
	-----------------------------------------------------------

  Dipole Moment: [D]
     X:    -0.0202      Y:     0.2683      Z:     0.0013     Total:     0.2691

*** Psi4 exiting successfully. Buy a developer a beer!
