                               Psi4 1.3.2 release

  ==> Input File <==

--------------------------------------------------------------------------
#psi4
#
memory 32 gb

molecule  {
0 1
  O       -1.4718315     1.2128613    -0.0005163
  O       -1.4891280    -1.1679560    -0.0004790
  C       -0.1944510     0.6951560    -0.0000890
  C       -0.1944370    -0.6951450    -0.0000610
  C       -2.3278770    -0.0000160     0.0005000
  C        0.9772920     1.4300230    -0.0000060
  C        0.9772900    -1.4300260     0.0000640
  C        2.1768970     0.6987030     0.0001890
  C        2.1768990    -0.6987090     0.0002190
  H       -2.9446710     0.0000210     0.9046330
  H       -2.9467630    -0.0000130    -0.9021640
  H        0.9615330     2.5156070    -0.0000720
  H        0.9615200    -2.5156090     0.0000480
  H        3.1223520     1.2342420     0.0003040
  H        3.1223530    -1.2342490     0.0003630
units angstrom
no_reorient  #important for SAPT in psi4, default
symmetry c1  #important for SAPT in psi4, default
}

set PROPERTIES_ORIGIN ["COM"]
properties('MP2/aug-cc-pvtz', properties = ['dipole'])
--------------------------------------------------------------------------

    Molecular point group: c1
  Charge       = 0
  Multiplicity = 1
  Basis Set: AUG-CC-PVTZ
    Blend: AUG-CC-PVTZ
  Basis Set: (AUG-CC-PVTZ AUX)
    Blend: AUG-CC-PVTZ-JKFIT

    Orbital Energies [Eh]
    ---------------------

    Doubly Occupied:

       1A    -20.605009     2A    -20.603480     3A    -11.362748
       4A    -11.301337     5A    -11.298865     6A    -11.245232
       7A    -11.242971     8A    -11.240051     9A    -11.238863
      10A     -1.464313    11A     -1.370281    12A     -1.153607
      13A     -1.023552    14A     -1.019879    15A     -0.914348
      16A     -0.851963    17A     -0.829915    18A     -0.710869
      19A     -0.710509    20A     -0.700563    21A     -0.674725
      22A     -0.617790    23A     -0.594199    24A     -0.584473
      25A     -0.566473    26A     -0.555909    27A     -0.551093
      28A     -0.528098    29A     -0.507164    30A     -0.459842
      31A     -0.340970    32A     -0.305471

  @DF-RHF Final Energy:  -418.41460936209887

   => Energetics <=

    Nuclear Repulsion Energy =            425.5920223543189422
    One-Electron Energy =               -1413.6641375414531012
    Two-Electron Energy =                 569.6575058250352868
    Total Energy =                       -418.4146093620988722
  Basis Set: (AUG-CC-PVTZ AUX)
    Blend: AUG-CC-PVTZ-RI
    Molecular point group: c1

    Geometry (in Angstrom), charge = 0, multiplicity = 1:

       Center              X                  Y                   Z               Mass
    ------------   -----------------  -----------------  -----------------  -----------------
         O           -1.455715030072     1.206977111356    -0.000491787824    15.994914619570
         O           -1.473011530072    -1.173840188644    -0.000454487824    15.994914619570
         C           -0.178334530072     0.689271811356    -0.000064487824    12.000000000000
         C           -0.178320530072    -0.701029188644    -0.000036487824    12.000000000000
         C           -2.311760530072    -0.005900188644     0.000524512176    12.000000000000
         C            0.993408469928     1.424138811356     0.000018512176    12.000000000000
         C            0.993406469928    -1.435910188644     0.000088512176    12.000000000000
         C            2.193013469928     0.692818811356     0.000213512176    12.000000000000
         C            2.193015469928    -0.704593188644     0.000243512176    12.000000000000
         H           -2.928554530072    -0.005863188644     0.904657512176     1.007825032230
         H           -2.930646530072    -0.005897188644    -0.902139487824     1.007825032230
         H            0.977649469928     2.509722811356    -0.000047487824     1.007825032230
         H            0.977636469928    -2.521493188644     0.000072512176     1.007825032230
         H            3.138468469928     1.228357811356     0.000328512176     1.007825032230
         H            3.138469469928    -1.240133188644     0.000387512176     1.007825032230

  Basis Set: AUG-CC-PVTZ
    Blend: AUG-CC-PVTZ
  Basis Set: (AUG-CC-PVTZ AUX)
    Blend: AUG-CC-PVTZ-JKFIT
	 Reference Energy          =    -418.4146093620988722 [Eh]
	 Singles Energy            =      -0.0000000000000000 [Eh]
	 Same-Spin Energy          =      -0.4347394238819031 [Eh]
	 Opposite-Spin Energy      =      -1.3184169252157716 [Eh]
	 Correlation Energy        =      -1.7531563490976747 [Eh]
	 Total Energy              =    -420.1677657111965232 [Eh]

	 ================> DF-SCS-MP2 Energies <==================
	-----------------------------------------------------------
	 SCS Same-Spin Scale       =       0.3333333333333333 [-]
	 SCS Opposite-Spin Scale   =       1.2000000000000000 [-]
	 SCS Same-Spin Energy      =      -0.1449131412939677 [Eh]
	 SCS Opposite-Spin Energy  =      -1.5821003102589259 [Eh]
	 SCS Correlation Energy    =      -1.7270134515528937 [Eh]
	 SCS Total Energy          =    -420.1416228136517930 [Eh]
	-----------------------------------------------------------

  Dipole Moment: [D]
     X:    -0.5007      Y:    -0.1033      Z:     0.0018     Total:     0.5112

*** Psi4 exiting successfully. Buy a developer a beer!
