                               Psi4 1.4a3.dev225

  ==> Input File <==

--------------------------------------------------------------------------
#psi4
#
memory 32 gb

molecule  {
0 1
  O        1.4992630    -1.1582390    -0.1232700
  O        1.4992620     1.1582430    -0.1232540
  C        0.1999370    -0.6965330    -0.0341950
  C        0.1999390     0.6765360    -0.0341763
  C        2.2874770    -0.0000040     0.1828560
  C       -0.9710250    -1.4315640    -0.0051560
  C       -0.9710280     1.4315630    -0.0051810
  C       -2.1692490    -0.6989180     0.0348340
  C       -2.1692490     0.6989160     0.0348440
  H        2.5314460    -0.0000080     1.2545630
  H        3.1831710     0.0000030    -0.4375930
  H       -0.9573450    -2.5171950    -0.0133180
  H       -0.9573500     2.5171940    -0.0133180
  H       -3.1144710    -1.2338350     0.0694590
  H       -3.1144730     1.2338310     0.0694330
units angstrom
no_reorient  #important for SAPT in psi4, default
symmetry c1  #important for SAPT in psi4, default
}

set PROPERTIES_ORIGIN ["COM"]
properties('MP2/aug-cc-pvtz', properties = ['dipole'])
--------------------------------------------------------------------------

    Molecular point group: c1
  Charge       = 0
  Multiplicity = 1
  Basis Set: AUG-CC-PVTZ
    Blend: AUG-CC-PVTZ
  Basis Set: (AUG-CC-PVTZ AUX)
    Blend: AUG-CC-PVTZ-JKFIT

    Orbital Energies [Eh]
    ---------------------

    Doubly Occupied:

       1A    -20.601085     2A    -20.600954     3A    -11.356139
       4A    -11.299673     5A    -11.298141     6A    -11.248361
       7A    -11.247426     8A    -11.242911     9A    -11.241720
      10A     -1.472794    11A     -1.369148    12A     -1.156854
      13A     -1.024814    14A     -1.022866    15A     -0.912244
      16A     -0.855807    17A     -0.829928    18A     -0.723337
      19A     -0.711094    20A     -0.700987    21A     -0.670534
      22A     -0.620461    23A     -0.593784    24A     -0.589448
      25A     -0.578176    26A     -0.544552    27A     -0.543178
      28A     -0.526523    29A     -0.510138    30A     -0.461332
      31A     -0.342358    32A     -0.311793

  @DF-RHF Final Energy:  -418.41768614309416

   => Energetics <=

    Nuclear Repulsion Energy =            427.4239863749374990
    One-Electron Energy =               -1417.2662226712545817
    Two-Electron Energy =                 571.4245501532229810
    Total Energy =                       -418.4176861430941017
  Basis Set: (AUG-CC-PVTZ AUX)
    Blend: AUG-CC-PVTZ-RI
    Molecular point group: c1

    Geometry (in Angstrom), charge = 0, multiplicity = 1:

       Center              X                  Y                   Z               Mass
    ------------   -----------------  -----------------  -----------------  -----------------
         O            1.479639848723    -1.156272428121    -0.115725350653    15.994914619570
         O            1.479638848723     1.160209571879    -0.115709350653    15.994914619570
         C            0.180313848723    -0.694566428121    -0.026650350653    12.000000000000
         C            0.180315848723     0.678502571879    -0.026631650653    12.000000000000
         C            2.267853848723     0.001962571879     0.190400649347    12.000000000000
         C           -0.990648151277    -1.429597428121     0.002388649347    12.000000000000
         C           -0.990651151277     1.433529571879     0.002363649347    12.000000000000
         C           -2.188872151277    -0.696951428121     0.042378649347    12.000000000000
         C           -2.188872151277     0.700882571879     0.042388649347    12.000000000000
         H            2.511822848723     0.001958571879     1.262107649347     1.007825032230
         H            3.163547848723     0.001969571879    -0.430048350653     1.007825032230
         H           -0.976968151277    -2.515228428121    -0.005773350653     1.007825032230
         H           -0.976973151277     2.519160571879    -0.005773350653     1.007825032230
         H           -3.134094151277    -1.231868428121     0.077003649347     1.007825032230
         H           -3.134096151277     1.235797571879     0.076977649347     1.007825032230

  Basis Set: AUG-CC-PVTZ
    Blend: AUG-CC-PVTZ
  Basis Set: (AUG-CC-PVTZ AUX)
    Blend: AUG-CC-PVTZ-JKFIT
	 Reference Energy          =    -418.4176861430941585 [Eh]
	 Singles Energy            =      -0.0000000000000000 [Eh]
	 Same-Spin Energy          =      -0.4349179117862575 [Eh]
	 Opposite-Spin Energy      =      -1.3175655662600114 [Eh]
	 Correlation Energy        =      -1.7524834780462690 [Eh]
	 Total Energy              =    -420.1701696211404169 [Eh]

	 ================> DF-SCS-MP2 Energies <==================
	-----------------------------------------------------------
	 SCS Same-Spin Scale       =       0.3333333333333333 [-]
	 SCS Opposite-Spin Scale   =       1.2000000000000000 [-]
	 SCS Same-Spin Energy      =      -0.1449726372620858 [Eh]
	 SCS Opposite-Spin Energy  =      -1.5810786795120138 [Eh]
	 SCS Correlation Energy    =      -1.7260513167740996 [Eh]
	 SCS Total Energy          =    -420.1437374598682482 [Eh]
	-----------------------------------------------------------

  Dipole Moment: [D]
     X:     0.1155      Y:    -0.0073      Z:     0.5460     Total:     0.5581

*** Psi4 exiting successfully. Buy a developer a beer!
