                               Psi4 1.3.2 release

  ==> Input File <==

--------------------------------------------------------------------------
#psi4
#
memory 32 gb

molecule  {
0 1
  O       -1.5314508     1.0300460    -0.0005320
  O       -1.4891280    -1.1679560    -0.0004790
  C       -0.1944510     0.6951560    -0.0000890
  C       -0.1944370    -0.6951450    -0.0000610
  C       -2.3278770    -0.0000160     0.0005000
  C        0.9772920     1.4300230    -0.0000060
  C        0.9772900    -1.4300260     0.0000640
  C        2.1768970     0.6987030     0.0001890
  C        2.1768990    -0.6987090     0.0002190
  H       -2.9446710     0.0000210     0.9046330
  H       -2.9467630    -0.0000130    -0.9021640
  H        0.9615330     2.5156070    -0.0000720
  H        0.9615200    -2.5156090     0.0000480
  H        3.1223520     1.2342420     0.0003040
  H        3.1223530    -1.2342490     0.0003630
units angstrom
no_reorient  #important for SAPT in psi4, default
symmetry c1  #important for SAPT in psi4, default
}

set PROPERTIES_ORIGIN ["COM"]
properties('MP2/aug-cc-pvtz', properties = ['dipole'])
--------------------------------------------------------------------------

    Molecular point group: c1
  Charge       = 0
  Multiplicity = 1
  Basis Set: AUG-CC-PVTZ
    Blend: AUG-CC-PVTZ
  Basis Set: (AUG-CC-PVTZ AUX)
    Blend: AUG-CC-PVTZ-JKFIT

    Orbital Energies [Eh]
    ---------------------

    Doubly Occupied:

       1A    -20.597198     2A    -20.593424     3A    -11.346206
       4A    -11.307361     5A    -11.299776     6A    -11.251656
       7A    -11.244295     8A    -11.242653     9A    -11.241483
      10A     -1.507143    11A     -1.375249    12A     -1.160656
      13A     -1.037059    14A     -1.025338    15A     -0.911863
      16A     -0.851639    17A     -0.840201    18A     -0.732880
      19A     -0.721601    20A     -0.720986    21A     -0.679240
      22A     -0.622209    23A     -0.606542    24A     -0.586426
      25A     -0.565532    26A     -0.544364    27A     -0.543373
      28A     -0.533261    29A     -0.505813    30A     -0.452980
      31A     -0.344705    32A     -0.303949

  @DF-RHF Final Energy:  -418.40858803563196

   => Energetics <=

    Nuclear Repulsion Energy =            429.7976825643593202
    One-Electron Energy =               -1421.8184186675230194
    Two-Electron Energy =                 573.6121480675317343
    Total Energy =                       -418.4085880356319649
  Basis Set: (AUG-CC-PVTZ AUX)
    Blend: AUG-CC-PVTZ-RI
    Molecular point group: c1

    Geometry (in Angstrom), charge = 0, multiplicity = 1:

       Center              X                  Y                   Z               Mass
    ------------   -----------------  -----------------  -----------------  -----------------
         O           -1.507520246337     1.048122744513    -0.000505430082    15.994914619570
         O           -1.465197446337    -1.149879255487    -0.000452430082    15.994914619570
         C           -0.170520446337     0.713232744513    -0.000062430082    12.000000000000
         C           -0.170506446337    -0.677068255487    -0.000034430082    12.000000000000
         C           -2.303946446337     0.018060744513     0.000526569918    12.000000000000
         C            1.001222553663     1.448099744513     0.000020569918    12.000000000000
         C            1.001220553663    -1.411949255487     0.000090569918    12.000000000000
         C            2.200827553663     0.716779744513     0.000215569918    12.000000000000
         C            2.200829553663    -0.680632255487     0.000245569918    12.000000000000
         H           -2.920740446337     0.018097744513     0.904659569918     1.007825032230
         H           -2.922832446337     0.018063744513    -0.902137430082     1.007825032230
         H            0.985463553663     2.533683744513    -0.000045430082     1.007825032230
         H            0.985450553663    -2.497532255487     0.000074569918     1.007825032230
         H            3.146282553663     1.252318744513     0.000330569918     1.007825032230
         H            3.146283553663    -1.216172255487     0.000389569918     1.007825032230

  Basis Set: AUG-CC-PVTZ
    Blend: AUG-CC-PVTZ
  Basis Set: (AUG-CC-PVTZ AUX)
    Blend: AUG-CC-PVTZ-JKFIT
	 Reference Energy          =    -418.4085880356319649 [Eh]
	 Singles Energy            =      -0.0000000000000000 [Eh]
	 Same-Spin Energy          =      -0.4339528246232981 [Eh]
	 Opposite-Spin Energy      =      -1.3137014733368164 [Eh]
	 Correlation Energy        =      -1.7476542979601146 [Eh]
	 Total Energy              =    -420.1562423335921039 [Eh]

	 ================> DF-SCS-MP2 Energies <==================
	-----------------------------------------------------------
	 SCS Same-Spin Scale       =       0.3333333333333333 [-]
	 SCS Opposite-Spin Scale   =       1.2000000000000000 [-]
	 SCS Same-Spin Energy      =      -0.1446509415410994 [Eh]
	 SCS Opposite-Spin Energy  =      -1.5764417680041796 [Eh]
	 SCS Correlation Energy    =      -1.7210927095452790 [Eh]
	 SCS Total Energy          =    -420.1296807451772679 [Eh]
	-----------------------------------------------------------

  Dipole Moment: [D]
     X:    -0.0941      Y:     0.3542      Z:     0.0014     Total:     0.3665

*** Psi4 exiting successfully. Buy a developer a beer!
