                               Psi4 1.3.2 release

  ==> Input File <==

--------------------------------------------------------------------------
#psi4
#
memory 32 gb

molecule  {
0 1
  O       -1.4688647     1.1531498    -0.0005449
  O       -1.4891280    -1.1679560    -0.0004790
  C       -0.1944510     0.6951560    -0.0000890
  C       -0.1944370    -0.6951450    -0.0000610
  C       -2.3278770    -0.0000160     0.0005000
  C        0.9772920     1.4300230    -0.0000060
  C        0.9772900    -1.4300260     0.0000640
  C        2.1768970     0.6987030     0.0001890
  C        2.1768990    -0.6987090     0.0002190
  H       -2.9446710     0.0000210     0.9046330
  H       -2.9467630    -0.0000130    -0.9021640
  H        0.9615330     2.5156070    -0.0000720
  H        0.9615200    -2.5156090     0.0000480
  H        3.1223520     1.2342420     0.0003040
  H        3.1223530    -1.2342490     0.0003630
units angstrom
no_reorient  #important for SAPT in psi4, default
symmetry c1  #important for SAPT in psi4, default
}

set PROPERTIES_ORIGIN ["COM"]
properties('MP2/aug-cc-pvtz', properties = ['dipole'])
--------------------------------------------------------------------------

    Molecular point group: c1
  Charge       = 0
  Multiplicity = 1
  Basis Set: AUG-CC-PVTZ
    Blend: AUG-CC-PVTZ
  Basis Set: (AUG-CC-PVTZ AUX)
    Blend: AUG-CC-PVTZ-JKFIT

    Orbital Energies [Eh]
    ---------------------

    Doubly Occupied:

       1A    -20.602891     2A    -20.602019     3A    -11.360632
       4A    -11.299840     5A    -11.298286     6A    -11.243961
       7A    -11.242943     8A    -11.239401     9A    -11.237812
      10A     -1.477574    11A     -1.376228    12A     -1.153883
      13A     -1.023937    14A     -1.022787    15A     -0.914409
      16A     -0.851951    17A     -0.833390    18A     -0.717180
      19A     -0.712681    20A     -0.707677    21A     -0.677044
      22A     -0.617520    23A     -0.597079    24A     -0.585872
      25A     -0.568930    26A     -0.556011    27A     -0.550715
      28A     -0.528539    29A     -0.505419    30A     -0.458578
      31A     -0.340516    32A     -0.302695

  @DF-RHF Final Energy:  -418.41911441869422

   => Energetics <=

    Nuclear Repulsion Energy =            427.2977959875385636
    One-Electron Energy =               -1417.0170247658388689
    Two-Electron Energy =                 571.3001143596060274
    Total Energy =                       -418.4191144186942211
  Basis Set: (AUG-CC-PVTZ AUX)
    Blend: AUG-CC-PVTZ-RI
    Molecular point group: c1

    Geometry (in Angstrom), charge = 0, multiplicity = 1:

       Center              X                  Y                   Z               Mass
    ------------   -----------------  -----------------  -----------------  -----------------
         O           -1.453137077704     1.155091779408    -0.000516639326    15.994914619570
         O           -1.473400377704    -1.166014020592    -0.000450739326    15.994914619570
         C           -0.178723377704     0.697097979408    -0.000060739326    12.000000000000
         C           -0.178709377704    -0.693203020592    -0.000032739326    12.000000000000
         C           -2.312149377704     0.001925979408     0.000528260674    12.000000000000
         C            0.993019622296     1.431964979408     0.000022260674    12.000000000000
         C            0.993017622296    -1.428084020592     0.000092260674    12.000000000000
         C            2.192624622296     0.700644979408     0.000217260674    12.000000000000
         C            2.192626622296    -0.696767020592     0.000247260674    12.000000000000
         H           -2.928943377704     0.001962979408     0.904661260674     1.007825032230
         H           -2.931035377704     0.001928979408    -0.902135739326     1.007825032230
         H            0.977260622296     2.517548979408    -0.000043739326     1.007825032230
         H            0.977247622296    -2.513667020592     0.000076260674     1.007825032230
         H            3.138079622296     1.236183979408     0.000332260674     1.007825032230
         H            3.138080622296    -1.232307020592     0.000391260674     1.007825032230

  Basis Set: AUG-CC-PVTZ
    Blend: AUG-CC-PVTZ
  Basis Set: (AUG-CC-PVTZ AUX)
    Blend: AUG-CC-PVTZ-JKFIT
	 Reference Energy          =    -418.4191144186942211 [Eh]
	 Singles Energy            =      -0.0000000000000000 [Eh]
	 Same-Spin Energy          =      -0.4342514446324691 [Eh]
	 Opposite-Spin Energy      =      -1.3162571993364522 [Eh]
	 Correlation Energy        =      -1.7505086439689213 [Eh]
	 Total Energy              =    -420.1696230626631632 [Eh]

	 ================> DF-SCS-MP2 Energies <==================
	-----------------------------------------------------------
	 SCS Same-Spin Scale       =       0.3333333333333333 [-]
	 SCS Opposite-Spin Scale   =       1.2000000000000000 [-]
	 SCS Same-Spin Energy      =      -0.1447504815441564 [Eh]
	 SCS Opposite-Spin Energy  =      -1.5795086392037427 [Eh]
	 SCS Correlation Energy    =      -1.7242591207478992 [Eh]
	 SCS Total Energy          =    -420.1433735394421092 [Eh]
	-----------------------------------------------------------

  Dipole Moment: [D]
     X:    -0.5756      Y:     0.0457      Z:     0.0017     Total:     0.5774

*** Psi4 exiting successfully. Buy a developer a beer!
