                               Psi4 1.4a3.dev225

  ==> Input File <==

--------------------------------------------------------------------------
#psi4
#
memory 32 gb

molecule  {
0 1
  O        1.4992630    -1.1582390    -0.1232700
  O        1.4992620     1.1582430    -0.1232540
  C        0.1529211    -0.6798262    -0.0309718
  C        0.1999390     0.6965360    -0.0341760
  C        2.2874770    -0.0000040     0.1828560
  C       -0.9710250    -1.4315640    -0.0051560
  C       -0.9710280     1.4315630    -0.0051810
  C       -2.1692490    -0.6989180     0.0348340
  C       -2.1692490     0.6989160     0.0348440
  H        2.5314460    -0.0000080     1.2545630
  H        3.1831710     0.0000030    -0.4375930
  H       -0.9573450    -2.5171950    -0.0133180
  H       -0.9573500     2.5171940    -0.0133180
  H       -3.1144710    -1.2338350     0.0694590
  H       -3.1144730     1.2338310     0.0694330
units angstrom
no_reorient  #important for SAPT in psi4, default
symmetry c1  #important for SAPT in psi4, default
}

set PROPERTIES_ORIGIN ["COM"]
properties('MP2/aug-cc-pvtz', properties = ['dipole'])
--------------------------------------------------------------------------

    Molecular point group: c1
  Charge       = 0
  Multiplicity = 1
  Basis Set: AUG-CC-PVTZ
    Blend: AUG-CC-PVTZ
  Basis Set: (AUG-CC-PVTZ AUX)
    Blend: AUG-CC-PVTZ-JKFIT

    Orbital Energies [Eh]
    ---------------------

    Doubly Occupied:

       1A    -20.602484     2A    -20.594676     3A    -11.353445
       4A    -11.301867     5A    -11.297432     6A    -11.247714
       7A    -11.246197     8A    -11.244268     9A    -11.242937
      10A     -1.464040    11A     -1.358662    12A     -1.163161
      13A     -1.030998    14A     -1.022765    15A     -0.909357
      16A     -0.855530    17A     -0.830260    18A     -0.721119
      19A     -0.708718    20A     -0.697058    21A     -0.670116
      22A     -0.625598    23A     -0.593080    24A     -0.588461
      25A     -0.572828    26A     -0.544635    27A     -0.537833
      28A     -0.526982    29A     -0.510553    30A     -0.460898
      31A     -0.347871    32A     -0.314499

  @DF-RHF Final Energy:  -418.41494926817342

   => Energetics <=

    Nuclear Repulsion Energy =            427.2640125781085771
    One-Electron Energy =               -1416.9858418084263576
    Two-Electron Energy =                 571.3068799621444214
    Total Energy =                       -418.4149492681733591
  Basis Set: (AUG-CC-PVTZ AUX)
    Blend: AUG-CC-PVTZ-RI
    Molecular point group: c1

    Geometry (in Angstrom), charge = 0, multiplicity = 1:

       Center              X                  Y                   Z               Mass
    ------------   -----------------  -----------------  -----------------  -----------------
         O            1.484262969741    -1.159881844906    -0.116042320669    15.994914619570
         O            1.484261969741     1.156600155094    -0.116026320669    15.994914619570
         C            0.137921069741    -0.681469044906    -0.023744120669    12.000000000000
         C            0.184938969741     0.694893155094    -0.026948320669    12.000000000000
         C            2.272476969741    -0.001646844906     0.190083679331    12.000000000000
         C           -0.986025030259    -1.433206844906     0.002071679331    12.000000000000
         C           -0.986028030259     1.429920155094     0.002046679331    12.000000000000
         C           -2.184249030259    -0.700560844906     0.042061679331    12.000000000000
         C           -2.184249030259     0.697273155094     0.042071679331    12.000000000000
         H            2.516445969741    -0.001650844906     1.261790679331     1.007825032230
         H            3.168170969741    -0.001639844906    -0.430365320669     1.007825032230
         H           -0.972345030259    -2.518837844906    -0.006090320669     1.007825032230
         H           -0.972350030259     2.515551155094    -0.006090320669     1.007825032230
         H           -3.129471030259    -1.235477844906     0.076686679331     1.007825032230
         H           -3.129473030259     1.232188155094     0.076660679331     1.007825032230

  Basis Set: AUG-CC-PVTZ
    Blend: AUG-CC-PVTZ
  Basis Set: (AUG-CC-PVTZ AUX)
    Blend: AUG-CC-PVTZ-JKFIT
	 Reference Energy          =    -418.4149492681734159 [Eh]
	 Singles Energy            =      -0.0000000000000000 [Eh]
	 Same-Spin Energy          =      -0.4348877275057470 [Eh]
	 Opposite-Spin Energy      =      -1.3179958763160264 [Eh]
	 Correlation Energy        =      -1.7528836038217734 [Eh]
	 Total Energy              =    -420.1678328719951878 [Eh]

	 ================> DF-SCS-MP2 Energies <==================
	-----------------------------------------------------------
	 SCS Same-Spin Scale       =       0.3333333333333333 [-]
	 SCS Opposite-Spin Scale   =       1.2000000000000000 [-]
	 SCS Same-Spin Energy      =      -0.1449625758352490 [Eh]
	 SCS Opposite-Spin Energy  =      -1.5815950515792316 [Eh]
	 SCS Correlation Energy    =      -1.7265576274144807 [Eh]
	 SCS Total Energy          =    -420.1415068955878951 [Eh]
	-----------------------------------------------------------

  Dipole Moment: [D]
     X:    -0.0958      Y:     0.0477      Z:     0.5580     Total:     0.5681

*** Psi4 exiting successfully. Buy a developer a beer!
