                               Psi4 1.3.2 release

  ==> Input File <==

--------------------------------------------------------------------------
#psi4
#
memory 32 gb

molecule  {
0 1
  O       -1.4891210     1.1679660    -0.0005210
  O       -1.4891280    -1.1679560    -0.0004790
  C       -0.3823153     0.7637635    -0.0001517
  C       -0.1944370    -0.6951450    -0.0000610
  C       -2.3278770    -0.0000160     0.0005000
  C        0.9772920     1.4300230    -0.0000060
  C        0.9772900    -1.4300260     0.0000640
  C        2.1768970     0.6987030     0.0001890
  C        2.1768990    -0.6987090     0.0002190
  H       -2.9446710     0.0000210     0.9046330
  H       -2.9467630    -0.0000130    -0.9021640
  H        0.9615330     2.5156070    -0.0000720
  H        0.9615200    -2.5156090     0.0000480
  H        3.1223520     1.2342420     0.0003040
  H        3.1223530    -1.2342490     0.0003630
units angstrom
no_reorient  #important for SAPT in psi4, default
symmetry c1  #important for SAPT in psi4, default
}

set PROPERTIES_ORIGIN ["COM"]
properties('MP2/aug-cc-pvtz', properties = ['dipole'])
--------------------------------------------------------------------------

    Molecular point group: c1
  Charge       = 0
  Multiplicity = 1
  Basis Set: AUG-CC-PVTZ
    Blend: AUG-CC-PVTZ
  Basis Set: (AUG-CC-PVTZ AUX)
    Blend: AUG-CC-PVTZ-JKFIT

    Orbital Energies [Eh]
    ---------------------

    Doubly Occupied:

       1A    -20.640909     2A    -20.601954     3A    -11.378720
       4A    -11.323298     5A    -11.294759     6A    -11.241050
       7A    -11.239744     8A    -11.233682     9A    -11.223920
      10A     -1.561622    11A     -1.410773    12A     -1.128217
      13A     -1.029823    14A     -1.003107    15A     -0.926524
      16A     -0.850058    17A     -0.843171    18A     -0.750695
      19A     -0.735060    20A     -0.720409    21A     -0.676617
      22A     -0.615625    23A     -0.613092    24A     -0.600925
      25A     -0.585094    26A     -0.562941    27A     -0.549709
      28A     -0.522696    29A     -0.468146    30A     -0.455031
      31A     -0.328554    32A     -0.274166

  @DF-RHF Final Energy:  -418.35756837542488

   => Energetics <=

    Nuclear Repulsion Energy =            427.0083527986458876
    One-Electron Energy =               -1415.9516578435529937
    Two-Electron Energy =                 570.5857366694822304
    Total Energy =                       -418.3575683754248757
  Basis Set: (AUG-CC-PVTZ AUX)
    Blend: AUG-CC-PVTZ-RI
    Molecular point group: c1

    Geometry (in Angstrom), charge = 0, multiplicity = 1:

       Center              X                  Y                   Z               Mass
    ------------   -----------------  -----------------  -----------------  -----------------
         O           -1.452265571800     1.161219829336    -0.000489706458    15.994914619570
         O           -1.452272571800    -1.174702170664    -0.000447706458    15.994914619570
         C           -0.345459871800     0.757017329336    -0.000120406458    12.000000000000
         C           -0.157581571800    -0.701891170664    -0.000029706458    12.000000000000
         C           -2.291021571800    -0.006762170664     0.000531293542    12.000000000000
         C            1.014147428200     1.423276829336     0.000025293542    12.000000000000
         C            1.014145428200    -1.436772170664     0.000095293542    12.000000000000
         C            2.213752428200     0.691956829336     0.000220293542    12.000000000000
         C            2.213754428200    -0.705455170664     0.000250293542    12.000000000000
         H           -2.907815571800    -0.006725170664     0.904664293542     1.007825032230
         H           -2.909907571800    -0.006759170664    -0.902132706458     1.007825032230
         H            0.998388428200     2.508860829336    -0.000040706458     1.007825032230
         H            0.998375428200    -2.522355170664     0.000079293542     1.007825032230
         H            3.159207428200     1.227495829336     0.000335293542     1.007825032230
         H            3.159208428200    -1.240995170664     0.000394293542     1.007825032230

  Basis Set: AUG-CC-PVTZ
    Blend: AUG-CC-PVTZ
  Basis Set: (AUG-CC-PVTZ AUX)
    Blend: AUG-CC-PVTZ-JKFIT
	 Reference Energy          =    -418.3575683754248757 [Eh]
	 Singles Energy            =      -0.0000000000000000 [Eh]
	 Same-Spin Energy          =      -0.4361581887354846 [Eh]
	 Opposite-Spin Energy      =      -1.3185416064845559 [Eh]
	 Correlation Energy        =      -1.7546997952200405 [Eh]
	 Total Energy              =    -420.1122681706449384 [Eh]

	 ================> DF-SCS-MP2 Energies <==================
	-----------------------------------------------------------
	 SCS Same-Spin Scale       =       0.3333333333333333 [-]
	 SCS Opposite-Spin Scale   =       1.2000000000000000 [-]
	 SCS Same-Spin Energy      =      -0.1453860629118282 [Eh]
	 SCS Opposite-Spin Energy  =      -1.5822499277814670 [Eh]
	 SCS Correlation Energy    =      -1.7276359906932952 [Eh]
	 SCS Total Energy          =    -420.0852043661181483 [Eh]
	-----------------------------------------------------------

  Dipole Moment: [D]
     X:    -1.8683      Y:     0.3059      Z:     0.0013     Total:     1.8932

*** Psi4 exiting successfully. Buy a developer a beer!
