                               Psi4 1.3.2 release

  ==> Input File <==

--------------------------------------------------------------------------
#psi4
#
memory 32 gb

molecule  {
0 1
  O       -1.4891210     1.1679660    -0.0005210
  O       -1.4891280    -1.1679560    -0.0004790
  C       -0.0065867     0.6265485    -0.0000263
  C       -0.1944370    -0.6951450    -0.0000610
  C       -2.3278770    -0.0000160     0.0005000
  C        0.9772920     1.4300230    -0.0000060
  C        0.9772900    -1.4300260     0.0000640
  C        2.1768970     0.6987030     0.0001890
  C        2.1768990    -0.6987090     0.0002190
  H       -2.9446710     0.0000210     0.9046330
  H       -2.9467630    -0.0000130    -0.9021640
  H        0.9615330     2.5156070    -0.0000720
  H        0.9615200    -2.5156090     0.0000480
  H        3.1223520     1.2342420     0.0003040
  H        3.1223530    -1.2342490     0.0003630
units angstrom
no_reorient  #important for SAPT in psi4, default
symmetry c1  #important for SAPT in psi4, default
}

set PROPERTIES_ORIGIN ["COM"]
properties('MP2/aug-cc-pvtz', properties = ['dipole'])
--------------------------------------------------------------------------

    Molecular point group: c1
  Charge       = 0
  Multiplicity = 1
  Basis Set: AUG-CC-PVTZ
    Blend: AUG-CC-PVTZ
  Basis Set: (AUG-CC-PVTZ AUX)
    Blend: AUG-CC-PVTZ-JKFIT

    Orbital Energies [Eh]
    ---------------------

    Doubly Occupied:

       1A    -20.604525     2A    -20.570903     3A    -11.343024
       4A    -11.306136     5A    -11.294489     6A    -11.250765
       7A    -11.248665     8A    -11.247451     9A    -11.244161
      10A     -1.445760    11A     -1.321715    12A     -1.188415
      13A     -1.050065    14A     -1.026795    15A     -0.901890
      16A     -0.863999    17A     -0.828778    18A     -0.717236
      19A     -0.697273    20A     -0.691190    21A     -0.668933
      22A     -0.643131    23A     -0.598404    24A     -0.572957
      25A     -0.562294    26A     -0.538109    27A     -0.536927
      28A     -0.531017    29A     -0.494242    30A     -0.451336
      31A     -0.361487    32A     -0.321843

  @DF-RHF Final Energy:  -418.37384035132442

   => Energetics <=

    Nuclear Repulsion Energy =            426.9253080484593283
    One-Electron Energy =               -1416.3504721189551674
    Two-Electron Energy =                 571.0513237191714779
    Total Energy =                       -418.3738403513243611
  Basis Set: (AUG-CC-PVTZ AUX)
    Blend: AUG-CC-PVTZ-RI
    Molecular point group: c1

    Geometry (in Angstrom), charge = 0, multiplicity = 1:

       Center              X                  Y                   Z               Mass
    ------------   -----------------  -----------------  -----------------  -----------------
         O           -1.489211345205     1.174712319122    -0.000502037167    15.994914619570
         O           -1.489218345205    -1.161209680878    -0.000460037167    15.994914619570
         C           -0.006677045205     0.633294819122    -0.000007337167    12.000000000000
         C           -0.194527345205    -0.688398680878    -0.000042037167    12.000000000000
         C           -2.327967345205     0.006730319122     0.000518962833    12.000000000000
         C            0.977201654795     1.436769319122     0.000012962833    12.000000000000
         C            0.977199654795    -1.423279680878     0.000082962833    12.000000000000
         C            2.176806654795     0.705449319122     0.000207962833    12.000000000000
         C            2.176808654795    -0.691962680878     0.000237962833    12.000000000000
         H           -2.944761345205     0.006767319122     0.904651962833     1.007825032230
         H           -2.946853345205     0.006733319122    -0.902145037167     1.007825032230
         H            0.961442654795     2.522353319122    -0.000053037167     1.007825032230
         H            0.961429654795    -2.508862680878     0.000066962833     1.007825032230
         H            3.122261654795     1.240988319122     0.000322962833     1.007825032230
         H            3.122262654795    -1.227502680878     0.000381962833     1.007825032230

  Basis Set: AUG-CC-PVTZ
    Blend: AUG-CC-PVTZ
  Basis Set: (AUG-CC-PVTZ AUX)
    Blend: AUG-CC-PVTZ-JKFIT
	 Reference Energy          =    -418.3738403513244180 [Eh]
	 Singles Energy            =      -0.0000000000000000 [Eh]
	 Same-Spin Energy          =      -0.4358702302692694 [Eh]
	 Opposite-Spin Energy      =      -1.3209805251474243 [Eh]
	 Correlation Energy        =      -1.7568507554166937 [Eh]
	 Total Energy              =    -420.1306911067410965 [Eh]

	 ================> DF-SCS-MP2 Energies <==================
	-----------------------------------------------------------
	 SCS Same-Spin Scale       =       0.3333333333333333 [-]
	 SCS Opposite-Spin Scale   =       1.2000000000000000 [-]
	 SCS Same-Spin Energy      =      -0.1452900767564231 [Eh]
	 SCS Opposite-Spin Energy  =      -1.5851766301769090 [Eh]
	 SCS Correlation Energy    =      -1.7304667069333322 [Eh]
	 SCS Total Energy          =    -420.1043070582577457 [Eh]
	-----------------------------------------------------------

  Dipole Moment: [D]
     X:     0.6984      Y:    -0.1687      Z:     0.0020     Total:     0.7185

*** Psi4 exiting successfully. Buy a developer a beer!
