                               Psi4 1.3.2 release

  ==> Input File <==

--------------------------------------------------------------------------
#psi4
#
memory 32 gb

molecule  {
0 1
  O       -1.4326066     1.3007058    -0.0005052
  O       -1.4891280    -1.1679560    -0.0004790
  C       -0.1944510     0.6951560    -0.0000890
  C       -0.1944370    -0.6951450    -0.0000610
  C       -2.3278770    -0.0000160     0.0005000
  C        0.9772920     1.4300230    -0.0000060
  C        0.9772900    -1.4300260     0.0000640
  C        2.1768970     0.6987030     0.0001890
  C        2.1768990    -0.6987090     0.0002190
  H       -2.9446710     0.0000210     0.9046330
  H       -2.9467630    -0.0000130    -0.9021640
  H        0.9615330     2.5156070    -0.0000720
  H        0.9615200    -2.5156090     0.0000480
  H        3.1223520     1.2342420     0.0003040
  H        3.1223530    -1.2342490     0.0003630
units angstrom
no_reorient  #important for SAPT in psi4, default
symmetry c1  #important for SAPT in psi4, default
}

set PROPERTIES_ORIGIN ["COM"]
properties('MP2/aug-cc-pvtz', properties = ['dipole'])
--------------------------------------------------------------------------

    Molecular point group: c1
  Charge       = 0
  Multiplicity = 1
  Basis Set: AUG-CC-PVTZ
    Blend: AUG-CC-PVTZ
  Basis Set: (AUG-CC-PVTZ AUX)
    Blend: AUG-CC-PVTZ-JKFIT

    Orbital Energies [Eh]
    ---------------------

    Doubly Occupied:

       1A    -20.610037     2A    -20.604652     3A    -11.371242
       4A    -11.302158     5A    -11.296122     6A    -11.245757
       7A    -11.239469     8A    -11.238706     9A    -11.237623
      10A     -1.454384    11A     -1.364404    12A     -1.151040
      13A     -1.022941    14A     -1.014030    15A     -0.918490
      16A     -0.851878    17A     -0.824511    18A     -0.708139
      19A     -0.705693    20A     -0.692866    21A     -0.673062
      22A     -0.616569    23A     -0.596163    24A     -0.580457
      25A     -0.566450    26A     -0.553605    27A     -0.549728
      28A     -0.523432    29A     -0.506822    30A     -0.461977
      31A     -0.339274    32A     -0.305902

  @DF-RHF Final Energy:  -418.39979328890411

   => Energetics <=

    Nuclear Repulsion Energy =            423.8620037189839422
    One-Electron Energy =               -1410.2684313234699403
    Two-Electron Energy =                 568.0066343155818913
    Total Energy =                       -418.3997932889041067
  Basis Set: (AUG-CC-PVTZ AUX)
    Blend: AUG-CC-PVTZ-RI
    Molecular point group: c1

    Geometry (in Angstrom), charge = 0, multiplicity = 1:

       Center              X                  Y                   Z               Mass
    ------------   -----------------  -----------------  -----------------  -----------------
         O           -1.421631194343     1.283308153825    -0.000482142660    15.994914619570
         O           -1.478152594343    -1.185353646175    -0.000455942660    15.994914619570
         C           -0.183475594343     0.677758353825    -0.000065942660    12.000000000000
         C           -0.183461594343    -0.712542646175    -0.000037942660    12.000000000000
         C           -2.316901594343    -0.017413646175     0.000523057340    12.000000000000
         C            0.988267405657     1.412625353825     0.000017057340    12.000000000000
         C            0.988265405657    -1.447423646175     0.000087057340    12.000000000000
         C            2.187872405657     0.681305353825     0.000212057340    12.000000000000
         C            2.187874405657    -0.716106646175     0.000242057340    12.000000000000
         H           -2.933695594343    -0.017376646175     0.904656057340     1.007825032230
         H           -2.935787594343    -0.017410646175    -0.902140942660     1.007825032230
         H            0.972508405657     2.498209353825    -0.000048942660     1.007825032230
         H            0.972495405657    -2.533006646175     0.000071057340     1.007825032230
         H            3.133327405657     1.216844353825     0.000327057340     1.007825032230
         H            3.133328405657    -1.251646646175     0.000386057340     1.007825032230

  Basis Set: AUG-CC-PVTZ
    Blend: AUG-CC-PVTZ
  Basis Set: (AUG-CC-PVTZ AUX)
    Blend: AUG-CC-PVTZ-JKFIT
	 Reference Energy          =    -418.3997932889041067 [Eh]
	 Singles Energy            =      -0.0000000000000000 [Eh]
	 Same-Spin Energy          =      -0.4358718358081248 [Eh]
	 Opposite-Spin Energy      =      -1.3221011258253668 [Eh]
	 Correlation Energy        =      -1.7579729616334916 [Eh]
	 Total Energy              =    -420.1577662505375770 [Eh]

	 ================> DF-SCS-MP2 Energies <==================
	-----------------------------------------------------------
	 SCS Same-Spin Scale       =       0.3333333333333333 [-]
	 SCS Opposite-Spin Scale   =       1.2000000000000000 [-]
	 SCS Same-Spin Energy      =      -0.1452906119360416 [Eh]
	 SCS Opposite-Spin Energy  =      -1.5865213509904401 [Eh]
	 SCS Correlation Energy    =      -1.7318119629264817 [Eh]
	 SCS Total Energy          =    -420.1316052518305924 [Eh]
	-----------------------------------------------------------

  Dipole Moment: [D]
     X:    -0.6574      Y:    -0.2917      Z:     0.0019     Total:     0.7192

*** Psi4 exiting successfully. Buy a developer a beer!
