                               Psi4 1.3.2 release

  ==> Input File <==

--------------------------------------------------------------------------
#psi4
#
memory 32 gb

molecule  {
0 1
  O       -1.4891210     1.1679660    -0.0005210
  O       -1.4891280    -1.1679560    -0.0004790
  C       -0.2509655     0.5624163     0.0000275
  C       -0.1944370    -0.6951450    -0.0000610
  C       -2.3278770    -0.0000160     0.0005000
  C        0.9772920     1.4300230    -0.0000060
  C        0.9772900    -1.4300260     0.0000640
  C        2.1768970     0.6987030     0.0001890
  C        2.1768990    -0.6987090     0.0002190
  H       -2.9446710     0.0000210     0.9046330
  H       -2.9467630    -0.0000130    -0.9021640
  H        0.9615330     2.5156070    -0.0000720
  H        0.9615200    -2.5156090     0.0000480
  H        3.1223520     1.2342420     0.0003040
  H        3.1223530    -1.2342490     0.0003630
units angstrom
no_reorient  #important for SAPT in psi4, default
symmetry c1  #important for SAPT in psi4, default
}

set PROPERTIES_ORIGIN ["COM"]
properties('MP2/aug-cc-pvtz', properties = ['dipole'])
--------------------------------------------------------------------------

    Molecular point group: c1
  Charge       = 0
  Multiplicity = 1
  Basis Set: AUG-CC-PVTZ
    Blend: AUG-CC-PVTZ
  Basis Set: (AUG-CC-PVTZ AUX)
    Blend: AUG-CC-PVTZ-JKFIT

    Orbital Energies [Eh]
    ---------------------

    Doubly Occupied:

       1A    -20.602295     2A    -20.593700     3A    -11.353478
       4A    -11.290898     5A    -11.280418     6A    -11.257909
       7A    -11.250234     8A    -11.243309     9A    -11.242040
      10A     -1.476572    11A     -1.368966    12A     -1.158511
      13A     -1.038015    14A     -1.009618    15A     -0.915336
      16A     -0.866503    17A     -0.821684    18A     -0.717358
      19A     -0.715789    20A     -0.695916    21A     -0.670893
      22A     -0.613460    23A     -0.606711    24A     -0.579975
      25A     -0.562299    26A     -0.553666    27A     -0.552660
      28A     -0.527094    29A     -0.510202    30A     -0.457613
      31A     -0.335476    32A     -0.315783

  @DF-RHF Final Energy:  -418.38730049578163

   => Energetics <=

    Nuclear Repulsion Energy =            428.0858640923566441
    One-Electron Energy =               -1418.5775636444416250
    Two-Electron Energy =                 572.1043990563033503
    Total Energy =                       -418.3873004957816875
  Basis Set: (AUG-CC-PVTZ AUX)
    Blend: AUG-CC-PVTZ-RI
    Molecular point group: c1

    Geometry (in Angstrom), charge = 0, multiplicity = 1:

       Center              X                  Y                   Z               Mass
    ------------   -----------------  -----------------  -----------------  -----------------
         O           -1.465181330535     1.181018503238    -0.000507327375    15.994914619570
         O           -1.465188330535    -1.154903496762    -0.000465327375    15.994914619570
         C           -0.227025830535     0.575468803238     0.000041172625    12.000000000000
         C           -0.170497330535    -0.682092496762    -0.000047327375    12.000000000000
         C           -2.303937330535     0.013036503238     0.000513672625    12.000000000000
         C            1.001231669465     1.443075503238     0.000007672625    12.000000000000
         C            1.001229669465    -1.416973496762     0.000077672625    12.000000000000
         C            2.200836669465     0.711755503238     0.000202672625    12.000000000000
         C            2.200838669465    -0.685656496762     0.000232672625    12.000000000000
         H           -2.920731330535     0.013073503238     0.904646672625     1.007825032230
         H           -2.922823330535     0.013039503238    -0.902150327375     1.007825032230
         H            0.985472669465     2.528659503238    -0.000058327375     1.007825032230
         H            0.985459669465    -2.502556496762     0.000061672625     1.007825032230
         H            3.146291669465     1.247294503238     0.000317672625     1.007825032230
         H            3.146292669465    -1.221196496762     0.000376672625     1.007825032230

  Basis Set: AUG-CC-PVTZ
    Blend: AUG-CC-PVTZ
  Basis Set: (AUG-CC-PVTZ AUX)
    Blend: AUG-CC-PVTZ-JKFIT
	 Reference Energy          =    -418.3873004957816306 [Eh]
	 Singles Energy            =      -0.0000000000000000 [Eh]
	 Same-Spin Energy          =      -0.4340019029852198 [Eh]
	 Opposite-Spin Energy      =      -1.3175186366654095 [Eh]
	 Correlation Energy        =      -1.7515205396506293 [Eh]
	 Total Energy              =    -420.1388210354322723 [Eh]

	 ================> DF-SCS-MP2 Energies <==================
	-----------------------------------------------------------
	 SCS Same-Spin Scale       =       0.3333333333333333 [-]
	 SCS Opposite-Spin Scale   =       1.2000000000000000 [-]
	 SCS Same-Spin Energy      =      -0.1446673009950732 [Eh]
	 SCS Opposite-Spin Energy  =      -1.5810223639984913 [Eh]
	 SCS Correlation Energy    =      -1.7256896649935645 [Eh]
	 SCS Total Energy          =    -420.1129901607752117 [Eh]
	-----------------------------------------------------------

  Dipole Moment: [D]
     X:    -0.1589      Y:     0.0068      Z:     0.0017     Total:     0.1590

*** Psi4 exiting successfully. Buy a developer a beer!
