                               Psi4 1.3.2 release

  ==> Input File <==

--------------------------------------------------------------------------
#psi4
#
memory 32 gb

molecule  {
0 1
  O       -1.4529857     1.2571259    -0.0005110
  O       -1.4891280    -1.1679560    -0.0004790
  C       -0.1944510     0.6951560    -0.0000890
  C       -0.1944370    -0.6951450    -0.0000610
  C       -2.3278770    -0.0000160     0.0005000
  C        0.9772920     1.4300230    -0.0000060
  C        0.9772900    -1.4300260     0.0000640
  C        2.1768970     0.6987030     0.0001890
  C        2.1768990    -0.6987090     0.0002190
  H       -2.9446710     0.0000210     0.9046330
  H       -2.9467630    -0.0000130    -0.9021640
  H        0.9615330     2.5156070    -0.0000720
  H        0.9615200    -2.5156090     0.0000480
  H        3.1223520     1.2342420     0.0003040
  H        3.1223530    -1.2342490     0.0003630
units angstrom
no_reorient  #important for SAPT in psi4, default
symmetry c1  #important for SAPT in psi4, default
}

set PROPERTIES_ORIGIN ["COM"]
properties('MP2/aug-cc-pvtz', properties = ['dipole'])
--------------------------------------------------------------------------

    Molecular point group: c1
  Charge       = 0
  Multiplicity = 1
  Basis Set: AUG-CC-PVTZ
    Blend: AUG-CC-PVTZ
  Basis Set: (AUG-CC-PVTZ AUX)
    Blend: AUG-CC-PVTZ-JKFIT

    Orbital Energies [Eh]
    ---------------------

    Doubly Occupied:

       1A    -20.607560     2A    -20.604249     3A    -11.366991
       4A    -11.301711     5A    -11.297432     6A    -11.245497
       7A    -11.241097     8A    -11.239434     9A    -11.238262
      10A     -1.458561    11A     -1.367544    12A     -1.152265
      13A     -1.023223    14A     -1.016772    15A     -0.916283
      16A     -0.851917    17A     -0.827156    18A     -0.709165
      19A     -0.707862    20A     -0.696390    21A     -0.673863
      22A     -0.617107    23A     -0.595119    24A     -0.581839
      25A     -0.566461    26A     -0.553798    27A     -0.552480
      28A     -0.526037    29A     -0.507148    30A     -0.461007
      31A     -0.340110    32A     -0.305717

  @DF-RHF Final Energy:  -418.40823137762089

   => Energetics <=

    Nuclear Repulsion Energy =            424.6972146613651375
    One-Electron Energy =               -1411.9107837277001636
    Two-Electron Energy =                 568.8053376887141894
    Total Energy =                       -418.4082313776208366
  Basis Set: (AUG-CC-PVTZ AUX)
    Blend: AUG-CC-PVTZ-RI
    Molecular point group: c1

    Geometry (in Angstrom), charge = 0, multiplicity = 1:

       Center              X                  Y                   Z               Mass
    ------------   -----------------  -----------------  -----------------  -----------------
         O           -1.439339280194     1.245440112027    -0.000487182476    15.994914619570
         O           -1.475481580194    -1.179641787973    -0.000455182476    15.994914619570
         C           -0.180804580194     0.683470212027    -0.000065182476    12.000000000000
         C           -0.180790580194    -0.706830787973    -0.000037182476    12.000000000000
         C           -2.314230580194    -0.011701787973     0.000523817524    12.000000000000
         C            0.990938419806     1.418337212027     0.000017817524    12.000000000000
         C            0.990936419806    -1.441711787973     0.000087817524    12.000000000000
         C            2.190543419806     0.687017212027     0.000212817524    12.000000000000
         C            2.190545419806    -0.710394787973     0.000242817524    12.000000000000
         H           -2.931024580194    -0.011664787973     0.904656817524     1.007825032230
         H           -2.933116580194    -0.011698787973    -0.902140182476     1.007825032230
         H            0.975179419806     2.503921212027    -0.000048182476     1.007825032230
         H            0.975166419806    -2.527294787973     0.000071817524     1.007825032230
         H            3.135998419806     1.222556212027     0.000327817524     1.007825032230
         H            3.135999419806    -1.245934787973     0.000386817524     1.007825032230

  Basis Set: AUG-CC-PVTZ
    Blend: AUG-CC-PVTZ
  Basis Set: (AUG-CC-PVTZ AUX)
    Blend: AUG-CC-PVTZ-JKFIT
	 Reference Energy          =    -418.4082313776208935 [Eh]
	 Singles Energy            =      -0.0000000000000000 [Eh]
	 Same-Spin Energy          =      -0.4352557991158357 [Eh]
	 Opposite-Spin Energy      =      -1.3201644356490598 [Eh]
	 Correlation Energy        =      -1.7554202347648955 [Eh]
	 Total Energy              =    -420.1636516123857632 [Eh]

	 ================> DF-SCS-MP2 Energies <==================
	-----------------------------------------------------------
	 SCS Same-Spin Scale       =       0.3333333333333333 [-]
	 SCS Opposite-Spin Scale   =       1.2000000000000000 [-]
	 SCS Same-Spin Energy      =      -0.1450852663719452 [Eh]
	 SCS Opposite-Spin Energy  =      -1.5841973227788717 [Eh]
	 SCS Correlation Energy    =      -1.7292825891508170 [Eh]
	 SCS Total Energy          =    -420.1375139667717349 [Eh]
	-----------------------------------------------------------

  Dipole Moment: [D]
     X:    -0.5824      Y:    -0.2003      Z:     0.0019     Total:     0.6159

*** Psi4 exiting successfully. Buy a developer a beer!
