                               Psi4 1.3.2 release

  ==> Input File <==

--------------------------------------------------------------------------
#psi4
#
memory 32 gb

molecule  {
0 1
  O       -1.4891210     1.1679660    -0.0005210
  O       -1.4891280    -1.1679560    -0.0004790
  C       -0.1787388     0.7406273    -0.0001289
  C       -0.1944370    -0.6951450    -0.0000610
  C       -2.3278770    -0.0000160     0.0005000
  C        0.9772920     1.4300230    -0.0000060
  C        0.9772900    -1.4300260     0.0000640
  C        2.1768970     0.6987030     0.0001890
  C        2.1768990    -0.6987090     0.0002190
  H       -2.9446710     0.0000210     0.9046330
  H       -2.9467630    -0.0000130    -0.9021640
  H        0.9615330     2.5156070    -0.0000720
  H        0.9615200    -2.5156090     0.0000480
  H        3.1223520     1.2342420     0.0003040
  H        3.1223530    -1.2342490     0.0003630
units angstrom
no_reorient  #important for SAPT in psi4, default
symmetry c1  #important for SAPT in psi4, default
}

set PROPERTIES_ORIGIN ["COM"]
properties('MP2/aug-cc-pvtz', properties = ['dipole'])
--------------------------------------------------------------------------

    Molecular point group: c1
  Charge       = 0
  Multiplicity = 1
  Basis Set: AUG-CC-PVTZ
    Blend: AUG-CC-PVTZ
  Basis Set: (AUG-CC-PVTZ AUX)
    Blend: AUG-CC-PVTZ-JKFIT

    Orbital Energies [Eh]
    ---------------------

    Doubly Occupied:

       1A    -20.605028     2A    -20.602412     3A    -11.360376
       4A    -11.306196     5A    -11.302884     6A    -11.242872
       7A    -11.240358     8A    -11.239769     9A    -11.238575
      10A     -1.470683    11A     -1.373663    12A     -1.154815
      13A     -1.029419    14A     -1.019626    15A     -0.913049
      16A     -0.845435    17A     -0.835150    18A     -0.714847
      19A     -0.711289    20A     -0.709000    21A     -0.677178
      22A     -0.620151    23A     -0.596527    24A     -0.583290
      25A     -0.568304    26A     -0.555877    27A     -0.548731
      28A     -0.531457    29A     -0.499830    30A     -0.458725
      31A     -0.346538    32A     -0.301328

  @DF-RHF Final Energy:  -418.41527523861180

   => Energetics <=

    Nuclear Repulsion Energy =            426.0921181142608702
    One-Electron Energy =               -1414.6080209827348426
    Two-Electron Energy =                 570.1006276298621742
    Total Energy =                       -418.4152752386117982
  Basis Set: (AUG-CC-PVTZ AUX)
    Blend: AUG-CC-PVTZ-RI
    Molecular point group: c1

    Geometry (in Angstrom), charge = 0, multiplicity = 1:

       Center              X                  Y                   Z               Mass
    ------------   -----------------  -----------------  -----------------  -----------------
         O           -1.472283455026     1.163494835292    -0.000491948405    15.994914619570
         O           -1.472290455026    -1.172427164708    -0.000449948405    15.994914619570
         C           -0.161901255026     0.736156135292    -0.000099848405    12.000000000000
         C           -0.177599455026    -0.699616164708    -0.000031948405    12.000000000000
         C           -2.311039455026    -0.004487164708     0.000529051595    12.000000000000
         C            0.994129544974     1.425551835292     0.000023051595    12.000000000000
         C            0.994127544974    -1.434497164708     0.000093051595    12.000000000000
         C            2.193734544974     0.694231835292     0.000218051595    12.000000000000
         C            2.193736544974    -0.703180164708     0.000248051595    12.000000000000
         H           -2.927833455026    -0.004450164708     0.904662051595     1.007825032230
         H           -2.929925455026    -0.004484164708    -0.902134948405     1.007825032230
         H            0.978370544974     2.511135835292    -0.000042948405     1.007825032230
         H            0.978357544974    -2.520080164708     0.000077051595     1.007825032230
         H            3.139189544974     1.229770835292     0.000333051595     1.007825032230
         H            3.139190544974    -1.238720164708     0.000392051595     1.007825032230

  Basis Set: AUG-CC-PVTZ
    Blend: AUG-CC-PVTZ
  Basis Set: (AUG-CC-PVTZ AUX)
    Blend: AUG-CC-PVTZ-JKFIT
	 Reference Energy          =    -418.4152752386117982 [Eh]
	 Singles Energy            =      -0.0000000000000000 [Eh]
	 Same-Spin Energy          =      -0.4340903372110630 [Eh]
	 Opposite-Spin Energy      =      -1.3170447460331332 [Eh]
	 Correlation Energy        =      -1.7511350832441961 [Eh]
	 Total Energy              =    -420.1664103218560058 [Eh]

	 ================> DF-SCS-MP2 Energies <==================
	-----------------------------------------------------------
	 SCS Same-Spin Scale       =       0.3333333333333333 [-]
	 SCS Opposite-Spin Scale   =       1.2000000000000000 [-]
	 SCS Same-Spin Energy      =      -0.1446967790703543 [Eh]
	 SCS Opposite-Spin Energy  =      -1.5804536952397596 [Eh]
	 SCS Correlation Energy    =      -1.7251504743101140 [Eh]
	 SCS Total Energy          =    -420.1404257129219104 [Eh]
	-----------------------------------------------------------

  Dipole Moment: [D]
     X:    -0.4865      Y:     0.0005      Z:     0.0017     Total:     0.4865

*** Psi4 exiting successfully. Buy a developer a beer!
