                               Psi4 1.3.2 release

  ==> Input File <==

--------------------------------------------------------------------------
#psi4
#
memory 32 gb

molecule  {
0 1
  O       -1.4891210     1.1679660    -0.0005210
  O       -1.4891280    -1.1679560    -0.0004790
  C       -0.1944510     0.6951560    -0.0000890
  C       -0.1944350    -0.8951450    -0.0000570
  C       -2.3278770    -0.0000160     0.0005000
  C        0.9772920     1.4300230    -0.0000060
  C        0.9772900    -1.4300260     0.0000640
  C        2.1768970     0.6987030     0.0001890
  C        2.1768990    -0.6987090     0.0002190
  H       -2.9446710     0.0000210     0.9046330
  H       -2.9467630    -0.0000130    -0.9021640
  H        0.9615330     2.5156070    -0.0000720
  H        0.9615200    -2.5156090     0.0000480
  H        3.1223520     1.2342420     0.0003040
  H        3.1223530    -1.2342490     0.0003630
units angstrom
no_reorient  #important for SAPT in psi4, default
symmetry c1  #important for SAPT in psi4, default
}

set PROPERTIES_ORIGIN ["COM"]
properties('MP2/aug-cc-pvtz', properties = ['dipole'])
--------------------------------------------------------------------------

    Molecular point group: c1
  Charge       = 0
  Multiplicity = 1
  Basis Set: AUG-CC-PVTZ
    Blend: AUG-CC-PVTZ
  Basis Set: (AUG-CC-PVTZ AUX)
    Blend: AUG-CC-PVTZ-JKFIT

    Orbital Energies [Eh]
    ---------------------

    Doubly Occupied:

       1A    -20.611835     2A    -20.611144     3A    -11.370611
       4A    -11.313781     5A    -11.313125     6A    -11.237166
       7A    -11.234755     8A    -11.234404     9A    -11.228062
      10A     -1.481861    11A     -1.390050    12A     -1.147269
      13A     -1.038240    14A     -1.014187    15A     -0.919452
      16A     -0.844270    17A     -0.820129    18A     -0.732356
      19A     -0.722102    20A     -0.706702    21A     -0.681157
      22A     -0.618612    23A     -0.605383    24A     -0.584509
      25A     -0.570102    26A     -0.561361    27A     -0.546586
      28A     -0.532858    29A     -0.461912    30A     -0.459209
      31A     -0.355082    32A     -0.287475

  @DF-RHF Final Energy:  -418.37552782382653

   => Energetics <=

    Nuclear Repulsion Energy =            424.7901461951403235
    One-Electron Energy =               -1411.8598584731771552
    Two-Electron Energy =                 568.6941844542103581
    Total Energy =                       -418.3755278238264737
  Basis Set: (AUG-CC-PVTZ AUX)
    Blend: AUG-CC-PVTZ-RI
    Molecular point group: c1

    Geometry (in Angstrom), charge = 0, multiplicity = 1:

       Center              X                  Y                   Z               Mass
    ------------   -----------------  -----------------  -----------------  -----------------
         O           -1.470738655164     1.187632276592    -0.000496265136    15.994914619570
         O           -1.470745655164    -1.148289723408    -0.000454265136    15.994914619570
         C           -0.176068655164     0.714822276592    -0.000064265136    12.000000000000
         C           -0.176052655164    -0.875478723408    -0.000032265136    12.000000000000
         C           -2.309494655164     0.019650276592     0.000524734864    12.000000000000
         C            0.995674344836     1.449689276592     0.000018734864    12.000000000000
         C            0.995672344836    -1.410359723408     0.000088734864    12.000000000000
         C            2.195279344836     0.718369276592     0.000213734864    12.000000000000
         C            2.195281344836    -0.679042723408     0.000243734864    12.000000000000
         H           -2.926288655164     0.019687276592     0.904657734864     1.007825032230
         H           -2.928380655164     0.019653276592    -0.902139265136     1.007825032230
         H            0.979915344836     2.535273276592    -0.000047265136     1.007825032230
         H            0.979902344836    -2.495942723408     0.000072734864     1.007825032230
         H            3.140734344836     1.253908276592     0.000328734864     1.007825032230
         H            3.140735344836    -1.214582723408     0.000387734864     1.007825032230

  Basis Set: AUG-CC-PVTZ
    Blend: AUG-CC-PVTZ
  Basis Set: (AUG-CC-PVTZ AUX)
    Blend: AUG-CC-PVTZ-JKFIT
	 Reference Energy          =    -418.3755278238265305 [Eh]
	 Singles Energy            =      -0.0000000000000000 [Eh]
	 Same-Spin Energy          =      -0.4335634879341780 [Eh]
	 Opposite-Spin Energy      =      -1.3186277540197779 [Eh]
	 Correlation Energy        =      -1.7521912419539558 [Eh]
	 Total Energy              =    -420.1277190657804681 [Eh]

	 ================> DF-SCS-MP2 Energies <==================
	-----------------------------------------------------------
	 SCS Same-Spin Scale       =       0.3333333333333333 [-]
	 SCS Opposite-Spin Scale   =       1.2000000000000000 [-]
	 SCS Same-Spin Energy      =      -0.1445211626447260 [Eh]
	 SCS Opposite-Spin Energy  =      -1.5823533048237335 [Eh]
	 SCS Correlation Energy    =      -1.7268744674684595 [Eh]
	 SCS Total Energy          =    -420.1024022912949931 [Eh]
	-----------------------------------------------------------

  Dipole Moment: [D]
     X:    -1.0456      Y:    -0.0864      Z:     0.0017     Total:     1.0491

*** Psi4 exiting successfully. Buy a developer a beer!
