                               Psi4 1.4a3.dev225

  ==> Input File <==

--------------------------------------------------------------------------
#psi4
#
memory 32 gb

molecule  {
0 1
  O        1.4992630    -1.1582390    -0.1232700
  O        1.4992620     1.1582430    -0.1232540
  C        0.1999370    -0.6965330    -0.0341950
  C        0.1999390     0.6965360    -0.0341760
  C        2.2599949    -0.0403873     0.1721825
  C       -0.9710250    -1.4315640    -0.0051560
  C       -0.9710280     1.4315630    -0.0051810
  C       -2.1692490    -0.6989180     0.0348340
  C       -2.1692490     0.6989160     0.0348440
  H        2.5314460    -0.0000080     1.2545630
  H        3.1831710     0.0000030    -0.4375930
  H       -0.9573450    -2.5171950    -0.0133180
  H       -0.9573500     2.5171940    -0.0133180
  H       -3.1144710    -1.2338350     0.0694590
  H       -3.1144730     1.2338310     0.0694330
units angstrom
no_reorient  #important for SAPT in psi4, default
symmetry c1  #important for SAPT in psi4, default
}

set PROPERTIES_ORIGIN ["COM"]
properties('MP2/aug-cc-pvtz', properties = ['dipole'])
--------------------------------------------------------------------------

    Molecular point group: c1
  Charge       = 0
  Multiplicity = 1
  Basis Set: AUG-CC-PVTZ
    Blend: AUG-CC-PVTZ
  Basis Set: (AUG-CC-PVTZ AUX)
    Blend: AUG-CC-PVTZ-JKFIT

    Orbital Energies [Eh]
    ---------------------

    Doubly Occupied:

       1A    -20.607499     2A    -20.599921     3A    -11.356770
       4A    -11.302998     5A    -11.301191     6A    -11.248670
       7A    -11.246677     8A    -11.243565     9A    -11.242148
      10A     -1.483192    11A     -1.376782    12A     -1.157070
      13A     -1.027472    14A     -1.021997    15A     -0.909321
      16A     -0.855595    17A     -0.834299    18A     -0.724278
      19A     -0.713925    20A     -0.707205    21A     -0.669567
      22A     -0.622132    23A     -0.595645    24A     -0.590450
      25A     -0.581504    26A     -0.548080    27A     -0.538075
      28A     -0.529126    29A     -0.508620    30A     -0.458417
      31A     -0.344626    32A     -0.310430

  @DF-RHF Final Energy:  -418.41619036600173

   => Energetics <=

    Nuclear Repulsion Energy =            427.9407070088248588
    One-Electron Energy =               -1418.1993039513863550
    Two-Electron Energy =                 571.8424065765598243
    Total Energy =                       -418.4161903660017288
  Basis Set: (AUG-CC-PVTZ AUX)
    Blend: AUG-CC-PVTZ-RI
    Molecular point group: c1

    Geometry (in Angstrom), charge = 0, multiplicity = 1:

       Center              X                  Y                   Z               Mass
    ------------   -----------------  -----------------  -----------------  -----------------
         O            1.482342191422    -1.154268117608    -0.114675844098    15.994914619570
         O            1.482341191422     1.162213882392    -0.114659844098    15.994914619570
         C            0.183016191422    -0.692562117608    -0.025600844098    12.000000000000
         C            0.183018191422     0.700506882392    -0.025581844098    12.000000000000
         C            2.243074091422    -0.036416417608     0.180776655902    12.000000000000
         C           -0.987945808578    -1.427593117608     0.003438155902    12.000000000000
         C           -0.987948808578     1.435533882392     0.003413155902    12.000000000000
         C           -2.186169808578    -0.694947117608     0.043428155902    12.000000000000
         C           -2.186169808578     0.702886882392     0.043438155902    12.000000000000
         H            2.514525191422     0.003962882392     1.263157155902     1.007825032230
         H            3.166250191422     0.003973882392    -0.428998844098     1.007825032230
         H           -0.974265808578    -2.513224117608    -0.004723844098     1.007825032230
         H           -0.974270808578     2.521164882392    -0.004723844098     1.007825032230
         H           -3.131391808578    -1.229864117608     0.078053155902     1.007825032230
         H           -3.131393808578     1.237801882392     0.078027155902     1.007825032230

  Basis Set: AUG-CC-PVTZ
    Blend: AUG-CC-PVTZ
  Basis Set: (AUG-CC-PVTZ AUX)
    Blend: AUG-CC-PVTZ-JKFIT
	 Reference Energy          =    -418.4161903660017288 [Eh]
	 Singles Energy            =      -0.0000000000000000 [Eh]
	 Same-Spin Energy          =      -0.4350419562376259 [Eh]
	 Opposite-Spin Energy      =      -1.3174177424460276 [Eh]
	 Correlation Energy        =      -1.7524596986836536 [Eh]
	 Total Energy              =    -420.1686500646853801 [Eh]

	 ================> DF-SCS-MP2 Energies <==================
	-----------------------------------------------------------
	 SCS Same-Spin Scale       =       0.3333333333333333 [-]
	 SCS Opposite-Spin Scale   =       1.2000000000000000 [-]
	 SCS Same-Spin Energy      =      -0.1450139854125420 [Eh]
	 SCS Opposite-Spin Energy  =      -1.5809012909352331 [Eh]
	 SCS Correlation Energy    =      -1.7259152763477750 [Eh]
	 SCS Total Energy          =    -420.1421056423495202 [Eh]
	-----------------------------------------------------------

  Dipole Moment: [D]
     X:     0.0133      Y:    -0.1334      Z:     0.4871     Total:     0.5052

*** Psi4 exiting successfully. Buy a developer a beer!
