                               Psi4 1.4a3.dev225

  ==> Input File <==

--------------------------------------------------------------------------
#psi4
#
memory 32 gb

molecule  {
0 1
  O        1.4992630    -1.1582390    -0.1232700
  O        1.4992620     1.1582430    -0.1232540
  C        0.1999370    -0.6965330    -0.0341950
  C        0.1999391     0.7465360    -0.0341753
  C        2.2874770    -0.0000040     0.1828560
  C       -0.9710250    -1.4315640    -0.0051560
  C       -0.9710280     1.4315630    -0.0051810
  C       -2.1692490    -0.6989180     0.0348340
  C       -2.1692490     0.6989160     0.0348440
  H        2.5314460    -0.0000080     1.2545630
  H        3.1831710     0.0000030    -0.4375930
  H       -0.9573450    -2.5171950    -0.0133180
  H       -0.9573500     2.5171940    -0.0133180
  H       -3.1144710    -1.2338350     0.0694590
  H       -3.1144730     1.2338310     0.0694330
units angstrom
no_reorient  #important for SAPT in psi4, default
symmetry c1  #important for SAPT in psi4, default
}

set PROPERTIES_ORIGIN ["COM"]
properties('MP2/aug-cc-pvtz', properties = ['dipole'])
--------------------------------------------------------------------------

    Molecular point group: c1
  Charge       = 0
  Multiplicity = 1
  Basis Set: AUG-CC-PVTZ
    Blend: AUG-CC-PVTZ
  Basis Set: (AUG-CC-PVTZ AUX)
    Blend: AUG-CC-PVTZ-JKFIT

    Orbital Energies [Eh]
    ---------------------

    Doubly Occupied:

       1A    -20.604652     2A    -20.604382     3A    -11.360225
       4A    -11.305561     5A    -11.303892     6A    -11.244238
       7A    -11.242106     8A    -11.240991     9A    -11.239839
      10A     -1.476299    11A     -1.376396    12A     -1.152983
      13A     -1.028523    14A     -1.018271    15A     -0.913980
      16A     -0.846145    17A     -0.834325    18A     -0.724487
      19A     -0.710961    20A     -0.709175    21A     -0.672249
      22A     -0.620416    23A     -0.598531    24A     -0.583692
      25A     -0.581758    26A     -0.548215    27A     -0.543917
      28A     -0.528933    29A     -0.498256    30A     -0.461830
      31A     -0.346526    32A     -0.303733

  @DF-RHF Final Energy:  -418.41521446907035

   => Energetics <=

    Nuclear Repulsion Energy =            426.7744657617496955
    One-Electron Energy =               -1415.9283846388414077
    Two-Electron Energy =                 570.7387044080212490
    Total Energy =                       -418.4152144690704063
  Basis Set: (AUG-CC-PVTZ AUX)
    Blend: AUG-CC-PVTZ-RI
    Molecular point group: c1

    Geometry (in Angstrom), charge = 0, multiplicity = 1:

       Center              X                  Y                   Z               Mass
    ------------   -----------------  -----------------  -----------------  -----------------
         O            1.479639838890    -1.163155598948    -0.115725448984    15.994914619570
         O            1.479638838890     1.153326401052    -0.115709448984    15.994914619570
         C            0.180313838890    -0.701449598948    -0.026650448984    12.000000000000
         C            0.180315938890     0.741619401052    -0.026630748984    12.000000000000
         C            2.267853838890    -0.004920598948     0.190400551016    12.000000000000
         C           -0.990648161110    -1.436480598948     0.002388551016    12.000000000000
         C           -0.990651161110     1.426646401052     0.002363551016    12.000000000000
         C           -2.188872161110    -0.703834598948     0.042378551016    12.000000000000
         C           -2.188872161110     0.693999401052     0.042388551016    12.000000000000
         H            2.511822838890    -0.004924598948     1.262107551016     1.007825032230
         H            3.163547838890    -0.004913598948    -0.430048448984     1.007825032230
         H           -0.976968161110    -2.522111598948    -0.005773448984     1.007825032230
         H           -0.976973161110     2.512277401052    -0.005773448984     1.007825032230
         H           -3.134094161110    -1.238751598948     0.077003551016     1.007825032230
         H           -3.134096161110     1.228914401052     0.076977551016     1.007825032230

  Basis Set: AUG-CC-PVTZ
    Blend: AUG-CC-PVTZ
  Basis Set: (AUG-CC-PVTZ AUX)
    Blend: AUG-CC-PVTZ-JKFIT
	 Reference Energy          =    -418.4152144690703494 [Eh]
	 Singles Energy            =      -0.0000000000000000 [Eh]
	 Same-Spin Energy          =      -0.4346911167478790 [Eh]
	 Opposite-Spin Energy      =      -1.3176413303676591 [Eh]
	 Correlation Energy        =      -1.7523324471155379 [Eh]
	 Total Energy              =    -420.1675469161858700 [Eh]

	 ================> DF-SCS-MP2 Energies <==================
	-----------------------------------------------------------
	 SCS Same-Spin Scale       =       0.3333333333333333 [-]
	 SCS Opposite-Spin Scale   =       1.2000000000000000 [-]
	 SCS Same-Spin Energy      =      -0.1448970389159596 [Eh]
	 SCS Opposite-Spin Energy  =      -1.5811695964411909 [Eh]
	 SCS Correlation Energy    =      -1.7260666353571505 [Eh]
	 SCS Total Energy          =    -420.1412811044274918 [Eh]
	-----------------------------------------------------------

  Dipole Moment: [D]
     X:     0.3455      Y:     0.0181      Z:     0.5429     Total:     0.6438

*** Psi4 exiting successfully. Buy a developer a beer!
