                               Psi4 1.3.2 release

  ==> Input File <==

--------------------------------------------------------------------------
#psi4
#
memory 32 gb

molecule  {
0 1
  O       -1.4971755     1.1452989    -0.0005232
  O       -1.4891280    -1.1679560    -0.0004790
  C       -0.1944510     0.6951560    -0.0000890
  C       -0.1944370    -0.6951450    -0.0000610
  C       -2.3278770    -0.0000160     0.0005000
  C        0.9772920     1.4300230    -0.0000060
  C        0.9772900    -1.4300260     0.0000640
  C        2.1768970     0.6987030     0.0001890
  C        2.1768990    -0.6987090     0.0002190
  H       -2.9446710     0.0000210     0.9046330
  H       -2.9467630    -0.0000130    -0.9021640
  H        0.9615330     2.5156070    -0.0000720
  H        0.9615200    -2.5156090     0.0000480
  H        3.1223520     1.2342420     0.0003040
  H        3.1223530    -1.2342490     0.0003630
units angstrom
no_reorient  #important for SAPT in psi4, default
symmetry c1  #important for SAPT in psi4, default
}

set PROPERTIES_ORIGIN ["COM"]
properties('MP2/aug-cc-pvtz', properties = ['dipole'])
--------------------------------------------------------------------------

    Molecular point group: c1
  Charge       = 0
  Multiplicity = 1
  Basis Set: AUG-CC-PVTZ
    Blend: AUG-CC-PVTZ
  Basis Set: (AUG-CC-PVTZ AUX)
    Blend: AUG-CC-PVTZ-JKFIT

    Orbital Energies [Eh]
    ---------------------

    Doubly Occupied:

       1A    -20.601670     2A    -20.600985     3A    -11.356427
       4A    -11.301968     5A    -11.300274     6A    -11.246005
       7A    -11.244838     8A    -11.240978     9A    -11.239784
      10A     -1.476426    11A     -1.373355    12A     -1.155893
      13A     -1.025443    14A     -1.024039    15A     -0.912209
      16A     -0.852010    17A     -0.834088    18A     -0.717133
      19A     -0.713336    20A     -0.707788    21A     -0.676253
      22A     -0.619095    23A     -0.595609    24A     -0.587961
      25A     -0.566365    26A     -0.554700    27A     -0.548572
      28A     -0.530511    29A     -0.506876    30A     -0.457700
      31A     -0.342309    32A     -0.304994

  @DF-RHF Final Energy:  -418.41923827918032

   => Energetics <=

    Nuclear Repulsion Energy =            427.0495524873037994
    One-Electron Energy =               -1416.5063927508431334
    Two-Electron Energy =                 571.0376019843590711
    Total Energy =                       -418.4192382791802629
  Basis Set: (AUG-CC-PVTZ AUX)
    Blend: AUG-CC-PVTZ-RI
    Molecular point group: c1

    Geometry (in Angstrom), charge = 0, multiplicity = 1:

       Center              X                  Y                   Z               Mass
    ------------   -----------------  -----------------  -----------------  -----------------
         O           -1.477737284628     1.148269868175    -0.000497783466    15.994914619570
         O           -1.469689784628    -1.164985031825    -0.000453583466    15.994914619570
         C           -0.175012784628     0.698126968175    -0.000063583466    12.000000000000
         C           -0.174998784628    -0.692174031825    -0.000035583466    12.000000000000
         C           -2.308438784628     0.002954968175     0.000525416534    12.000000000000
         C            0.996730215372     1.432993968175     0.000019416534    12.000000000000
         C            0.996728215372    -1.427055031825     0.000089416534    12.000000000000
         C            2.196335215372     0.701673968175     0.000214416534    12.000000000000
         C            2.196337215372    -0.695738031825     0.000244416534    12.000000000000
         H           -2.925232784628     0.002991968175     0.904658416534     1.007825032230
         H           -2.927324784628     0.002957968175    -0.902138583466     1.007825032230
         H            0.980971215372     2.518577968175    -0.000046583466     1.007825032230
         H            0.980958215372    -2.512638031825     0.000073416534     1.007825032230
         H            3.141790215372     1.237212968175     0.000329416534     1.007825032230
         H            3.141791215372    -1.231278031825     0.000388416534     1.007825032230

  Basis Set: AUG-CC-PVTZ
    Blend: AUG-CC-PVTZ
  Basis Set: (AUG-CC-PVTZ AUX)
    Blend: AUG-CC-PVTZ-JKFIT
	 Reference Energy          =    -418.4192382791803198 [Eh]
	 Singles Energy            =      -0.0000000000000000 [Eh]
	 Same-Spin Energy          =      -0.4341838808407777 [Eh]
	 Opposite-Spin Energy      =      -1.3161950770147641 [Eh]
	 Correlation Energy        =      -1.7503789578555420 [Eh]
	 Total Energy              =    -420.1696172370358795 [Eh]

	 ================> DF-SCS-MP2 Energies <==================
	-----------------------------------------------------------
	 SCS Same-Spin Scale       =       0.3333333333333333 [-]
	 SCS Opposite-Spin Scale   =       1.2000000000000000 [-]
	 SCS Same-Spin Energy      =      -0.1447279602802592 [Eh]
	 SCS Opposite-Spin Energy  =      -1.5794340924177168 [Eh]
	 SCS Correlation Energy    =      -1.7241620526979760 [Eh]
	 SCS Total Energy          =    -420.1434003318782970 [Eh]
	-----------------------------------------------------------

  Dipole Moment: [D]
     X:    -0.3645      Y:     0.0541      Z:     0.0017     Total:     0.3685

*** Psi4 exiting successfully. Buy a developer a beer!
