                               Psi4 1.3.2 release

  ==> Input File <==

--------------------------------------------------------------------------
#psi4
#
memory 32 gb

molecule  {
0 1
  O       -1.4891210     1.1679660    -0.0005210
  O       -1.4891280    -1.1679560    -0.0004790
  C       -0.1863965     0.7178231    -0.0001089
  C       -0.1944370    -0.6951450    -0.0000610
  C       -2.3278770    -0.0000160     0.0005000
  C        0.9772920     1.4300230    -0.0000060
  C        0.9772900    -1.4300260     0.0000640
  C        2.1768970     0.6987030     0.0001890
  C        2.1768990    -0.6987090     0.0002190
  H       -2.9446710     0.0000210     0.9046330
  H       -2.9467630    -0.0000130    -0.9021640
  H        0.9615330     2.5156070    -0.0000720
  H        0.9615200    -2.5156090     0.0000480
  H        3.1223520     1.2342420     0.0003040
  H        3.1223530    -1.2342490     0.0003630
units angstrom
no_reorient  #important for SAPT in psi4, default
symmetry c1  #important for SAPT in psi4, default
}

set PROPERTIES_ORIGIN ["COM"]
properties('MP2/aug-cc-pvtz', properties = ['dipole'])
--------------------------------------------------------------------------

    Molecular point group: c1
  Charge       = 0
  Multiplicity = 1
  Basis Set: AUG-CC-PVTZ
    Blend: AUG-CC-PVTZ
  Basis Set: (AUG-CC-PVTZ AUX)
    Blend: AUG-CC-PVTZ-JKFIT

    Orbital Energies [Eh]
    ---------------------

    Doubly Occupied:

       1A    -20.603723     2A    -20.602385     3A    -11.359449
       4A    -11.303721     5A    -11.301749     6A    -11.243928
       7A    -11.242533     8A    -11.240284     9A    -11.239073
      10A     -1.471277    11A     -1.373088    12A     -1.154894
      13A     -1.026683    14A     -1.021408    15A     -0.912852
      16A     -0.848748    17A     -0.834070    18A     -0.714810
      19A     -0.711537    20A     -0.707319    21A     -0.676455
      22A     -0.619420    23A     -0.595280    24A     -0.585478
      25A     -0.567354    26A     -0.555809    27A     -0.549075
      28A     -0.530664    29A     -0.503668    30A     -0.458598
      31A     -0.344109    32A     -0.303203

  @DF-RHF Final Energy:  -418.41764287949269

   => Energetics <=

    Nuclear Repulsion Energy =            426.3170155761694105
    One-Electron Energy =               -1415.0640258691248619
    Two-Electron Energy =                 570.3293674134627054
    Total Energy =                       -418.4176428794927460
  Basis Set: (AUG-CC-PVTZ AUX)
    Blend: AUG-CC-PVTZ-RI
    Molecular point group: c1

    Geometry (in Angstrom), charge = 0, multiplicity = 1:

       Center              X                  Y                   Z               Mass
    ------------   -----------------  -----------------  -----------------  -----------------
         O           -1.471530465637     1.165737195351    -0.000493915025    15.994914619570
         O           -1.471537465637    -1.170184804649    -0.000451915025    15.994914619570
         C           -0.168805965637     0.715594295351    -0.000081815025    12.000000000000
         C           -0.176846465637    -0.697373804649    -0.000033915025    12.000000000000
         C           -2.310286465637    -0.002244804649     0.000527084975    12.000000000000
         C            0.994882534363     1.427794195351     0.000021084975    12.000000000000
         C            0.994880534363    -1.432254804649     0.000091084975    12.000000000000
         C            2.194487534363     0.696474195351     0.000216084975    12.000000000000
         C            2.194489534363    -0.700937804649     0.000246084975    12.000000000000
         H           -2.927080465637    -0.002207804649     0.904660084975     1.007825032230
         H           -2.929172465637    -0.002241804649    -0.902136915025     1.007825032230
         H            0.979123534363     2.513378195351    -0.000044915025     1.007825032230
         H            0.979110534363    -2.517837804649     0.000075084975     1.007825032230
         H            3.139942534363     1.232013195351     0.000331084975     1.007825032230
         H            3.139943534363    -1.236477804649     0.000390084975     1.007825032230

  Basis Set: AUG-CC-PVTZ
    Blend: AUG-CC-PVTZ
  Basis Set: (AUG-CC-PVTZ AUX)
    Blend: AUG-CC-PVTZ-JKFIT
	 Reference Energy          =    -418.4176428794926892 [Eh]
	 Singles Energy            =      -0.0000000000000000 [Eh]
	 Same-Spin Energy          =      -0.4342328703423732 [Eh]
	 Opposite-Spin Energy      =      -1.3169399580693919 [Eh]
	 Correlation Energy        =      -1.7511728284117651 [Eh]
	 Total Energy              =    -420.1688157079044572 [Eh]

	 ================> DF-SCS-MP2 Energies <==================
	-----------------------------------------------------------
	 SCS Same-Spin Scale       =       0.3333333333333333 [-]
	 SCS Opposite-Spin Scale   =       1.2000000000000000 [-]
	 SCS Same-Spin Energy      =      -0.1447442901141244 [Eh]
	 SCS Opposite-Spin Energy  =      -1.5803279496832703 [Eh]
	 SCS Correlation Energy    =      -1.7250722397973948 [Eh]
	 SCS Total Energy          =    -420.1427151192900737 [Eh]
	-----------------------------------------------------------

  Dipole Moment: [D]
     X:    -0.4499      Y:    -0.0002      Z:     0.0017     Total:     0.4499

*** Psi4 exiting successfully. Buy a developer a beer!
