                               Psi4 1.3.2 release

  ==> Input File <==

--------------------------------------------------------------------------
#psi4
#
memory 32 gb

molecule  {
0 1
  O       -1.4891210     1.1679660    -0.0005210
  O       -1.4891280    -1.1679560    -0.0004790
  C       -0.2117405     0.6502607    -0.0000496
  C       -0.1944370    -0.6951450    -0.0000610
  C       -2.3278770    -0.0000160     0.0005000
  C        0.9772920     1.4300230    -0.0000060
  C        0.9772900    -1.4300260     0.0000640
  C        2.1768970     0.6987030     0.0001890
  C        2.1768990    -0.6987090     0.0002190
  H       -2.9446710     0.0000210     0.9046330
  H       -2.9467630    -0.0000130    -0.9021640
  H        0.9615330     2.5156070    -0.0000720
  H        0.9615200    -2.5156090     0.0000480
  H        3.1223520     1.2342420     0.0003040
  H        3.1223530    -1.2342490     0.0003630
units angstrom
no_reorient  #important for SAPT in psi4, default
symmetry c1  #important for SAPT in psi4, default
}

set PROPERTIES_ORIGIN ["COM"]
properties('MP2/aug-cc-pvtz', properties = ['dipole'])
--------------------------------------------------------------------------

    Molecular point group: c1
  Charge       = 0
  Multiplicity = 1
  Basis Set: AUG-CC-PVTZ
    Blend: AUG-CC-PVTZ
  Basis Set: (AUG-CC-PVTZ AUX)
    Blend: AUG-CC-PVTZ-JKFIT

    Orbital Energies [Eh]
    ---------------------

    Doubly Occupied:

       1A    -20.602297     2A    -20.599497     3A    -11.356712
       4A    -11.298107     5A    -11.294392     6A    -11.249714
       7A    -11.246946     8A    -11.241496     9A    -11.240278
      10A     -1.473208    11A     -1.371231    12A     -1.155824
      13A     -1.027684    14A     -1.018804    15A     -0.913131
      16A     -0.857904    17A     -0.829485    18A     -0.714878
      19A     -0.713924    20A     -0.701424    21A     -0.674160
      22A     -0.616872    23A     -0.596425    24A     -0.587209
      25A     -0.564684    26A     -0.555055    27A     -0.550400
      28A     -0.527847    29A     -0.511948    30A     -0.458202
      31A     -0.338055    32A     -0.309235

  @DF-RHF Final Energy:  -418.41515563480232

   => Energetics <=

    Nuclear Repulsion Energy =            427.0304853500450690
    One-Electron Energy =               -1416.4972314781762179
    Two-Electron Energy =                 571.0515904933288311
    Total Energy =                       -418.4151556348023178
  Basis Set: (AUG-CC-PVTZ AUX)
    Blend: AUG-CC-PVTZ-RI
    Molecular point group: c1

    Geometry (in Angstrom), charge = 0, multiplicity = 1:

       Center              X                  Y                   Z               Mass
    ------------   -----------------  -----------------  -----------------  -----------------
         O           -1.469038364474     1.172380674504    -0.000499746054    15.994914619570
         O           -1.469045364474    -1.163541325496    -0.000457746054    15.994914619570
         C           -0.191657864474     0.654675374504    -0.000028346054    12.000000000000
         C           -0.174354364474    -0.690730325496    -0.000039746054    12.000000000000
         C           -2.307794364474     0.004398674504     0.000521253946    12.000000000000
         C            0.997374635526     1.434437674504     0.000015253946    12.000000000000
         C            0.997372635526    -1.425611325496     0.000085253946    12.000000000000
         C            2.196979635526     0.703117674504     0.000210253946    12.000000000000
         C            2.196981635526    -0.694294325496     0.000240253946    12.000000000000
         H           -2.924588364474     0.004435674504     0.904654253946     1.007825032230
         H           -2.926680364474     0.004401674504    -0.902142746054     1.007825032230
         H            0.981615635526     2.520021674504    -0.000050746054     1.007825032230
         H            0.981602635526    -2.511194325496     0.000069253946     1.007825032230
         H            3.142434635526     1.238656674504     0.000325253946     1.007825032230
         H            3.142435635526    -1.229834325496     0.000384253946     1.007825032230

  Basis Set: AUG-CC-PVTZ
    Blend: AUG-CC-PVTZ
  Basis Set: (AUG-CC-PVTZ AUX)
    Blend: AUG-CC-PVTZ-JKFIT
	 Reference Energy          =    -418.4151556348023178 [Eh]
	 Singles Energy            =      -0.0000000000000000 [Eh]
	 Same-Spin Energy          =      -0.4344069050325059 [Eh]
	 Opposite-Spin Energy      =      -1.3168952202513751 [Eh]
	 Correlation Energy        =      -1.7513021252838810 [Eh]
	 Total Energy              =    -420.1664577600861890 [Eh]

	 ================> DF-SCS-MP2 Energies <==================
	-----------------------------------------------------------
	 SCS Same-Spin Scale       =       0.3333333333333333 [-]
	 SCS Opposite-Spin Scale   =       1.2000000000000000 [-]
	 SCS Same-Spin Energy      =      -0.1448023016775020 [Eh]
	 SCS Opposite-Spin Energy  =      -1.5802742643016501 [Eh]
	 SCS Correlation Energy    =      -1.7250765659791520 [Eh]
	 SCS Total Energy          =    -420.1402322007814973 [Eh]
	-----------------------------------------------------------

  Dipole Moment: [D]
     X:    -0.3316      Y:     0.0021      Z:     0.0017     Total:     0.3316

*** Psi4 exiting successfully. Buy a developer a beer!
