                               Psi4 1.4a3.dev225

  ==> Input File <==

--------------------------------------------------------------------------
#psi4
#
memory 32 gb

molecule  {
0 1
  O        1.4992630    -1.1582390    -0.1232700
  O        1.4992620     1.1582430    -0.1232540
  C        0.1999370    -0.6965330    -0.0341950
  C        0.1999389     0.6465360    -0.0341767
  C        2.2874770    -0.0000040     0.1828560
  C       -0.9710250    -1.4315640    -0.0051560
  C       -0.9710280     1.4315630    -0.0051810
  C       -2.1692490    -0.6989180     0.0348340
  C       -2.1692490     0.6989160     0.0348440
  H        2.5314460    -0.0000080     1.2545630
  H        3.1831710     0.0000030    -0.4375930
  H       -0.9573450    -2.5171950    -0.0133180
  H       -0.9573500     2.5171940    -0.0133180
  H       -3.1144710    -1.2338350     0.0694590
  H       -3.1144730     1.2338310     0.0694330
units angstrom
no_reorient  #important for SAPT in psi4, default
symmetry c1  #important for SAPT in psi4, default
}

set PROPERTIES_ORIGIN ["COM"]
properties('MP2/aug-cc-pvtz', properties = ['dipole'])
--------------------------------------------------------------------------

    Molecular point group: c1
  Charge       = 0
  Multiplicity = 1
  Basis Set: AUG-CC-PVTZ
    Blend: AUG-CC-PVTZ
  Basis Set: (AUG-CC-PVTZ AUX)
    Blend: AUG-CC-PVTZ-JKFIT

    Orbital Energies [Eh]
    ---------------------

    Doubly Occupied:

       1A    -20.599640     2A    -20.599284     3A    -11.354384
       4A    -11.297206     5A    -11.294783     6A    -11.251114
       7A    -11.248759     8A    -11.243771     9A    -11.242580
      10A     -1.471327    11A     -1.365769    12A     -1.158888
      13A     -1.027467    14A     -1.021366    15A     -0.911694
      16A     -0.859602    17A     -0.827698    18A     -0.723154
      19A     -0.711116    20A     -0.697589    21A     -0.669721
      22A     -0.620480    23A     -0.594097    24A     -0.589962
      25A     -0.575978    26A     -0.544980    27A     -0.540833
      28A     -0.525073    29A     -0.514228    30A     -0.461039
      31A     -0.340874    32A     -0.315681

  @DF-RHF Final Energy:  -418.41483249987868

   => Energetics <=

    Nuclear Repulsion Energy =            427.7147227102783518
    One-Electron Energy =               -1417.8588339572274890
    Two-Electron Energy =                 571.7292787470704525
    Total Energy =                       -418.4148324998786848
  Basis Set: (AUG-CC-PVTZ AUX)
    Blend: AUG-CC-PVTZ-RI
    Molecular point group: c1

    Geometry (in Angstrom), charge = 0, multiplicity = 1:

       Center              X                  Y                   Z               Mass
    ------------   -----------------  -----------------  -----------------  -----------------
         O            1.479639858556    -1.153322497767    -0.115725311320    15.994914619570
         O            1.479638858556     1.163159502233    -0.115709311320    15.994914619570
         C            0.180313858556    -0.691616497767    -0.026650311320    12.000000000000
         C            0.180315758556     0.651452502233    -0.026632011320    12.000000000000
         C            2.267853858556     0.004912502233     0.190400688680    12.000000000000
         C           -0.990648141444    -1.426647497767     0.002388688680    12.000000000000
         C           -0.990651141444     1.436479502233     0.002363688680    12.000000000000
         C           -2.188872141444    -0.694001497767     0.042378688680    12.000000000000
         C           -2.188872141444     0.703832502233     0.042388688680    12.000000000000
         H            2.511822858556     0.004908502233     1.262107688680     1.007825032230
         H            3.163547858556     0.004919502233    -0.430048311320     1.007825032230
         H           -0.976968141444    -2.512278497767    -0.005773311320     1.007825032230
         H           -0.976973141444     2.522110502233    -0.005773311320     1.007825032230
         H           -3.134094141444    -1.228918497767     0.077003688680     1.007825032230
         H           -3.134096141444     1.238747502233     0.076977688680     1.007825032230

  Basis Set: AUG-CC-PVTZ
    Blend: AUG-CC-PVTZ
  Basis Set: (AUG-CC-PVTZ AUX)
    Blend: AUG-CC-PVTZ-JKFIT
	 Reference Energy          =    -418.4148324998786848 [Eh]
	 Singles Energy            =      -0.0000000000000000 [Eh]
	 Same-Spin Energy          =      -0.4349373008251303 [Eh]
	 Opposite-Spin Energy      =      -1.3176701900136789 [Eh]
	 Correlation Energy        =      -1.7526074908388092 [Eh]
	 Total Energy              =    -420.1674399907174688 [Eh]

	 ================> DF-SCS-MP2 Energies <==================
	-----------------------------------------------------------
	 SCS Same-Spin Scale       =       0.3333333333333333 [-]
	 SCS Opposite-Spin Scale   =       1.2000000000000000 [-]
	 SCS Same-Spin Energy      =      -0.1449791002750434 [Eh]
	 SCS Opposite-Spin Energy  =      -1.5812042280164147 [Eh]
	 SCS Correlation Energy    =      -1.7261833282914580 [Eh]
	 SCS Total Energy          =    -420.1410158281701683 [Eh]
	-----------------------------------------------------------

  Dipole Moment: [D]
     X:     0.0116      Y:    -0.0183      Z:     0.5481     Total:     0.5485

*** Psi4 exiting successfully. Buy a developer a beer!
