                               Psi4 1.3.2 release

  ==> Input File <==

--------------------------------------------------------------------------
#psi4
#
memory 32 gb

molecule  {
0 1
  O       -1.4891210     1.1679660    -0.0005210
  O       -1.4891280    -1.1679560    -0.0004790
  C       -0.1944510     0.6951560    -0.0000890
  C       -0.1944380    -0.5951450    -0.0000630
  C       -2.3278770    -0.0000160     0.0005000
  C        0.9772920     1.4300230    -0.0000060
  C        0.9772900    -1.4300260     0.0000640
  C        2.1768970     0.6987030     0.0001890
  C        2.1768990    -0.6987090     0.0002190
  H       -2.9446710     0.0000210     0.9046330
  H       -2.9467630    -0.0000130    -0.9021640
  H        0.9615330     2.5156070    -0.0000720
  H        0.9615200    -2.5156090     0.0000480
  H        3.1223520     1.2342420     0.0003040
  H        3.1223530    -1.2342490     0.0003630
units angstrom
no_reorient  #important for SAPT in psi4, default
symmetry c1  #important for SAPT in psi4, default
}

set PROPERTIES_ORIGIN ["COM"]
properties('MP2/aug-cc-pvtz', properties = ['dipole'])
--------------------------------------------------------------------------

    Molecular point group: c1
  Charge       = 0
  Multiplicity = 1
  Basis Set: AUG-CC-PVTZ
    Blend: AUG-CC-PVTZ
  Basis Set: (AUG-CC-PVTZ AUX)
    Blend: AUG-CC-PVTZ-JKFIT

    Orbital Energies [Eh]
    ---------------------

    Doubly Occupied:

       1A    -20.597234     2A    -20.596643     3A    -11.352161
       4A    -11.292570     5A    -11.288148     6A    -11.254354
       7A    -11.249686     8A    -11.243853     9A    -11.242622
      10A     -1.466702    11A     -1.360619    12A     -1.162518
      13A     -1.034288    14A     -1.017366    15A     -0.911266
      16A     -0.864383    17A     -0.824919    18A     -0.715629
      19A     -0.711102    20A     -0.693961    21A     -0.671715
      22A     -0.619180    23A     -0.599453    24A     -0.583721
      25A     -0.560190    26A     -0.549534    27A     -0.548766
      28A     -0.525747    29A     -0.519031    30A     -0.457549
      31A     -0.337611    32A     -0.318240

  @DF-RHF Final Energy:  -418.40398470676666

   => Energetics <=

    Nuclear Repulsion Energy =            427.5206723405181037
    One-Electron Energy =               -1417.5077961862702978
    Two-Electron Energy =                 571.5831391389855298
    Total Energy =                       -418.4039847067666642
  Basis Set: (AUG-CC-PVTZ AUX)
    Blend: AUG-CC-PVTZ-RI
    Molecular point group: c1

    Geometry (in Angstrom), charge = 0, multiplicity = 1:

       Center              X                  Y                   Z               Mass
    ------------   -----------------  -----------------  -----------------  -----------------
         O           -1.470738360171     1.158132973048    -0.000495675150    15.994914619570
         O           -1.470745360171    -1.177789026952    -0.000453675150    15.994914619570
         C           -0.176068360171     0.685322973048    -0.000063675150    12.000000000000
         C           -0.176055360171    -0.604978026952    -0.000037675150    12.000000000000
         C           -2.309494360171    -0.009849026952     0.000525324850    12.000000000000
         C            0.995674639829     1.420189973048     0.000019324850    12.000000000000
         C            0.995672639829    -1.439859026952     0.000089324850    12.000000000000
         C            2.195279639829     0.688869973048     0.000214324850    12.000000000000
         C            2.195281639829    -0.708542026952     0.000244324850    12.000000000000
         H           -2.926288360171    -0.009812026952     0.904658324850     1.007825032230
         H           -2.928380360171    -0.009846026952    -0.902138675150     1.007825032230
         H            0.979915639829     2.505773973048    -0.000046675150     1.007825032230
         H            0.979902639829    -2.525442026952     0.000073324850     1.007825032230
         H            3.140734639829     1.224408973048     0.000329324850     1.007825032230
         H            3.140735639829    -1.244082026952     0.000388324850     1.007825032230

  Basis Set: AUG-CC-PVTZ
    Blend: AUG-CC-PVTZ
  Basis Set: (AUG-CC-PVTZ AUX)
    Blend: AUG-CC-PVTZ-JKFIT
	 Reference Energy          =    -418.4039847067666642 [Eh]
	 Singles Energy            =      -0.0000000000000000 [Eh]
	 Same-Spin Energy          =      -0.4342882868435611 [Eh]
	 Opposite-Spin Energy      =      -1.3173494791910241 [Eh]
	 Correlation Energy        =      -1.7516377660345852 [Eh]
	 Total Energy              =    -420.1556224728012694 [Eh]

	 ================> DF-SCS-MP2 Energies <==================
	-----------------------------------------------------------
	 SCS Same-Spin Scale       =       0.3333333333333333 [-]
	 SCS Opposite-Spin Scale   =       1.2000000000000000 [-]
	 SCS Same-Spin Energy      =      -0.1447627622811870 [Eh]
	 SCS Opposite-Spin Energy  =      -1.5808193750292288 [Eh]
	 SCS Correlation Energy    =      -1.7255821373104159 [Eh]
	 SCS Total Energy          =    -420.1295668440770896 [Eh]
	-----------------------------------------------------------

  Dipole Moment: [D]
     X:    -0.0286      Y:     0.0384      Z:     0.0018     Total:     0.0479

*** Psi4 exiting successfully. Buy a developer a beer!
