                               Psi4 1.3.2 release

  ==> Input File <==

--------------------------------------------------------------------------
#psi4
#
memory 32 gb

molecule  {
0 1
  O       -1.4891210     1.1679660    -0.0005210
  O       -1.4891280    -1.1679560    -0.0004790
  C       -0.2305863     0.6059962    -0.0000107
  C       -0.1944370    -0.6951450    -0.0000610
  C       -2.3278770    -0.0000160     0.0005000
  C        0.9772920     1.4300230    -0.0000060
  C        0.9772900    -1.4300260     0.0000640
  C        2.1768970     0.6987030     0.0001890
  C        2.1768990    -0.6987090     0.0002190
  H       -2.9446710     0.0000210     0.9046330
  H       -2.9467630    -0.0000130    -0.9021640
  H        0.9615330     2.5156070    -0.0000720
  H        0.9615200    -2.5156090     0.0000480
  H        3.1223520     1.2342420     0.0003040
  H        3.1223530    -1.2342490     0.0003630
units angstrom
no_reorient  #important for SAPT in psi4, default
symmetry c1  #important for SAPT in psi4, default
}

set PROPERTIES_ORIGIN ["COM"]
properties('MP2/aug-cc-pvtz', properties = ['dipole'])
--------------------------------------------------------------------------

    Molecular point group: c1
  Charge       = 0
  Multiplicity = 1
  Basis Set: AUG-CC-PVTZ
    Blend: AUG-CC-PVTZ
  Basis Set: (AUG-CC-PVTZ AUX)
    Blend: AUG-CC-PVTZ-JKFIT

    Orbital Energies [Eh]
    ---------------------

    Doubly Occupied:

       1A    -20.602257     2A    -20.596563     3A    -11.355003
       4A    -11.294687     5A    -11.287622     6A    -11.254084
       7A    -11.248726     8A    -11.242366     9A    -11.241175
      10A     -1.474729    11A     -1.370009    12A     -1.156982
      13A     -1.032600    14A     -1.013990    15A     -0.914019
      16A     -0.862750    17A     -0.825764    18A     -0.715630
      19A     -0.715171    20A     -0.698259    21A     -0.672542
      22A     -0.615051    23A     -0.601465    24A     -0.583875
      25A     -0.563217    26A     -0.554318    27A     -0.551505
      28A     -0.526562    29A     -0.513519    30A     -0.457915
      31A     -0.335648    32A     -0.313074

  @DF-RHF Final Energy:  -418.40495031588932

   => Energetics <=

    Nuclear Repulsion Energy =            427.5423815299045600
    One-Electron Energy =               -1417.5125043472630750
    Two-Electron Energy =                 571.5651725014691920
    Total Energy =                       -418.4049503158893231
  Basis Set: (AUG-CC-PVTZ AUX)
    Blend: AUG-CC-PVTZ-RI
    Molecular point group: c1

    Geometry (in Angstrom), charge = 0, multiplicity = 1:

       Center              X                  Y                   Z               Mass
    ------------   -----------------  -----------------  -----------------  -----------------
         O           -1.467185237891     1.176733247576    -0.000503571130    15.994914619570
         O           -1.467192237891    -1.159188752424    -0.000461571130    15.994914619570
         C           -0.208650537891     0.614763447576     0.000006728870    12.000000000000
         C           -0.172501237891    -0.686377752424    -0.000043571130    12.000000000000
         C           -2.305941237891     0.008751247576     0.000517428870    12.000000000000
         C            0.999227762109     1.438790247576     0.000011428870    12.000000000000
         C            0.999225762109    -1.421258752424     0.000081428870    12.000000000000
         C            2.198832762109     0.707470247576     0.000206428870    12.000000000000
         C            2.198834762109    -0.689941752424     0.000236428870    12.000000000000
         H           -2.922735237891     0.008788247576     0.904650428870     1.007825032230
         H           -2.924827237891     0.008754247576    -0.902146571130     1.007825032230
         H            0.983468762109     2.524374247576    -0.000054571130     1.007825032230
         H            0.983455762109    -2.506841752424     0.000065428870     1.007825032230
         H            3.144287762109     1.243009247576     0.000321428870     1.007825032230
         H            3.144288762109    -1.225481752424     0.000380428870     1.007825032230

  Basis Set: AUG-CC-PVTZ
    Blend: AUG-CC-PVTZ
  Basis Set: (AUG-CC-PVTZ AUX)
    Blend: AUG-CC-PVTZ-JKFIT
	 Reference Energy          =    -418.4049503158893231 [Eh]
	 Singles Energy            =      -0.0000000000000000 [Eh]
	 Same-Spin Energy          =      -0.4342813843926659 [Eh]
	 Opposite-Spin Energy      =      -1.3171036460397618 [Eh]
	 Correlation Energy        =      -1.7513850304324277 [Eh]
	 Total Energy              =    -420.1563353463217254 [Eh]

	 ================> DF-SCS-MP2 Energies <==================
	-----------------------------------------------------------
	 SCS Same-Spin Scale       =       0.3333333333333333 [-]
	 SCS Opposite-Spin Scale   =       1.2000000000000000 [-]
	 SCS Same-Spin Energy      =      -0.1447604614642220 [Eh]
	 SCS Opposite-Spin Energy  =      -1.5805243752477141 [Eh]
	 SCS Correlation Energy    =      -1.7252848367119360 [Eh]
	 SCS Total Energy          =    -420.1302351526012444 [Eh]
	-----------------------------------------------------------

  Dipole Moment: [D]
     X:    -0.2464      Y:     0.0051      Z:     0.0017     Total:     0.2465

*** Psi4 exiting successfully. Buy a developer a beer!
