                               Psi4 1.4a3.dev225

  ==> Input File <==

--------------------------------------------------------------------------
#psi4
#
memory 32 gb

molecule  {
0 1
  O        1.4992630    -1.1582390    -0.1232700
  O        1.4992620     1.1582430    -0.1232540
  C        0.1999370    -0.6965330    -0.0341950
  C        0.1999390     0.6965360    -0.0341760
  C        2.2764842    -0.0161573     0.1785866
  C       -0.9710250    -1.4315640    -0.0051560
  C       -0.9710280     1.4315630    -0.0051810
  C       -2.1692490    -0.6989180     0.0348340
  C       -2.1692490     0.6989160     0.0348440
  H        2.5314460    -0.0000080     1.2545630
  H        3.1831710     0.0000030    -0.4375930
  H       -0.9573450    -2.5171950    -0.0133180
  H       -0.9573500     2.5171940    -0.0133180
  H       -3.1144710    -1.2338350     0.0694590
  H       -3.1144730     1.2338310     0.0694330
units angstrom
no_reorient  #important for SAPT in psi4, default
symmetry c1  #important for SAPT in psi4, default
}

set PROPERTIES_ORIGIN ["COM"]
properties('MP2/aug-cc-pvtz', properties = ['dipole'])
--------------------------------------------------------------------------

    Molecular point group: c1
  Charge       = 0
  Multiplicity = 1
  Basis Set: AUG-CC-PVTZ
    Blend: AUG-CC-PVTZ
  Basis Set: (AUG-CC-PVTZ AUX)
    Blend: AUG-CC-PVTZ-JKFIT

    Orbital Energies [Eh]
    ---------------------

    Doubly Occupied:

       1A    -20.604253     2A    -20.601209     3A    -11.356978
       4A    -11.301922     5A    -11.300571     6A    -11.247366
       7A    -11.246576     8A    -11.242806     9A    -11.241578
      10A     -1.477080    11A     -1.373704    12A     -1.156189
      13A     -1.025939    14A     -1.022079    15A     -0.911293
      16A     -0.854076    17A     -0.832488    18A     -0.723625
      19A     -0.712082    20A     -0.704789    21A     -0.670410
      22A     -0.621068    23A     -0.594668    24A     -0.588715
      25A     -0.581065    26A     -0.546285    27A     -0.541837
      28A     -0.528159    29A     -0.507720    30A     -0.460419
      31A     -0.343913    32A     -0.309783

  @DF-RHF Final Energy:  -418.41797498353651

   => Energetics <=

    Nuclear Repulsion Energy =            427.5143011643341993
    One-Electron Energy =               -1417.4032639238944284
    Two-Electron Energy =                 571.4709877760236623
    Total Energy =                       -418.4179749835365101
  Basis Set: (AUG-CC-PVTZ AUX)
    Blend: AUG-CC-PVTZ-RI
    Molecular point group: c1

    Geometry (in Angstrom), charge = 0, multiplicity = 1:

       Center              X                  Y                   Z               Mass
    ------------   -----------------  -----------------  -----------------  -----------------
         O            1.480720781869    -1.156650678025    -0.115305565730    15.994914619570
         O            1.480719781869     1.159831321975    -0.115289565730    15.994914619570
         C            0.181394781869    -0.694944678025    -0.026230565730    12.000000000000
         C            0.181396781869     0.698124321975    -0.026211565730    12.000000000000
         C            2.257941981869    -0.014568978025     0.186551034270    12.000000000000
         C           -0.989567218131    -1.429975678025     0.002808434270    12.000000000000
         C           -0.989570218131     1.433151321975     0.002783434270    12.000000000000
         C           -2.187791218131    -0.697329678025     0.042798434270    12.000000000000
         C           -2.187791218131     0.700504321975     0.042808434270    12.000000000000
         H            2.512903781869     0.001580321975     1.262527434270     1.007825032230
         H            3.164628781869     0.001591321975    -0.429628565730     1.007825032230
         H           -0.975887218131    -2.515606678025    -0.005353565730     1.007825032230
         H           -0.975892218131     2.518782321975    -0.005353565730     1.007825032230
         H           -3.133013218131    -1.232246678025     0.077423434270     1.007825032230
         H           -3.133015218131     1.235419321975     0.077397434270     1.007825032230

  Basis Set: AUG-CC-PVTZ
    Blend: AUG-CC-PVTZ
  Basis Set: (AUG-CC-PVTZ AUX)
    Blend: AUG-CC-PVTZ-JKFIT
	 Reference Energy          =    -418.4179749835365101 [Eh]
	 Singles Energy            =      -0.0000000000000000 [Eh]
	 Same-Spin Energy          =      -0.4349180850562981 [Eh]
	 Opposite-Spin Energy      =      -1.3174524129030982 [Eh]
	 Correlation Energy        =      -1.7523704979593964 [Eh]
	 Total Energy              =    -420.1703454814959287 [Eh]

	 ================> DF-SCS-MP2 Energies <==================
	-----------------------------------------------------------
	 SCS Same-Spin Scale       =       0.3333333333333333 [-]
	 SCS Opposite-Spin Scale   =       1.2000000000000000 [-]
	 SCS Same-Spin Energy      =      -0.1449726950187660 [Eh]
	 SCS Opposite-Spin Energy  =      -1.5809428954837179 [Eh]
	 SCS Correlation Energy    =      -1.7259155905024839 [Eh]
	 SCS Total Energy          =    -420.1438905740390055 [Eh]
	-----------------------------------------------------------

  Dipole Moment: [D]
     X:     0.1174      Y:    -0.0529      Z:     0.5224     Total:     0.5380

*** Psi4 exiting successfully. Buy a developer a beer!
