                               Psi4 1.4a3.dev225

  ==> Input File <==

--------------------------------------------------------------------------
#psi4
#
memory 32 gb

molecule  {
0 1
  O        1.4992630    -1.1582390    -0.1232700
  O        1.4992620     1.1582430    -0.1232540
  C        0.1999370    -0.6965330    -0.0341950
  C        0.1999390     0.6965360    -0.0341760
  C        2.3149591     0.0403793     0.1935295
  C       -0.9710250    -1.4315640    -0.0051560
  C       -0.9710280     1.4315630    -0.0051810
  C       -2.1692490    -0.6989180     0.0348340
  C       -2.1692490     0.6989160     0.0348440
  H        2.5314460    -0.0000080     1.2545630
  H        3.1831710     0.0000030    -0.4375930
  H       -0.9573450    -2.5171950    -0.0133180
  H       -0.9573500     2.5171940    -0.0133180
  H       -3.1144710    -1.2338350     0.0694590
  H       -3.1144730     1.2338310     0.0694330
units angstrom
no_reorient  #important for SAPT in psi4, default
symmetry c1  #important for SAPT in psi4, default
}

set PROPERTIES_ORIGIN ["COM"]
properties('MP2/aug-cc-pvtz', properties = ['dipole'])
--------------------------------------------------------------------------

    Molecular point group: c1
  Charge       = 0
  Multiplicity = 1
  Basis Set: AUG-CC-PVTZ
    Blend: AUG-CC-PVTZ
  Basis Set: (AUG-CC-PVTZ AUX)
    Blend: AUG-CC-PVTZ-JKFIT

    Orbital Energies [Eh]
    ---------------------

    Doubly Occupied:

       1A    -20.604088     2A    -20.596289     3A    -11.358853
       4A    -11.300365     5A    -11.298536     6A    -11.246434
       7A    -11.244498     8A    -11.241422     9A    -11.240024
      10A     -1.467917    11A     -1.364389    12A     -1.154306
      13A     -1.024804    14A     -1.020652    15A     -0.916229
      16A     -0.850952    17A     -0.828602    18A     -0.724649
      19A     -0.708708    20A     -0.700806    21A     -0.672503
      22A     -0.619263    23A     -0.596861    24A     -0.585562
      25A     -0.573779    26A     -0.550205    27A     -0.539981
      28A     -0.524374    29A     -0.505247    30A     -0.463442
      31A     -0.342432    32A     -0.308148

  @DF-RHF Final Energy:  -418.41592635194644

   => Energetics <=

    Nuclear Repulsion Energy =            426.5491469964306361
    One-Electron Energy =               -1415.5815021490709569
    Two-Electron Energy =                 570.6164288006939387
    Total Energy =                       -418.4159263519463821
  Basis Set: (AUG-CC-PVTZ AUX)
    Blend: AUG-CC-PVTZ-RI
    Molecular point group: c1

    Geometry (in Angstrom), charge = 0, multiplicity = 1:

       Center              X                  Y                   Z               Mass
    ------------   -----------------  -----------------  -----------------  -----------------
         O            1.476937506023    -1.162209979107    -0.116774916207    15.994914619570
         O            1.476936506023     1.154272020893    -0.116758916207    15.994914619570
         C            0.177611506023    -0.700503979107    -0.027699916207    12.000000000000
         C            0.177613506023     0.692565020893    -0.027680916207    12.000000000000
         C            2.292633606023     0.036408320893     0.200024583793    12.000000000000
         C           -0.993350493977    -1.435534979107     0.001339083793    12.000000000000
         C           -0.993353493977     1.427592020893     0.001314083793    12.000000000000
         C           -2.191574493977    -0.702888979107     0.041329083793    12.000000000000
         C           -2.191574493977     0.694945020893     0.041339083793    12.000000000000
         H            2.509120506023    -0.003978979107     1.261058083793     1.007825032230
         H            3.160845506023    -0.003967979107    -0.431097916207     1.007825032230
         H           -0.979670493977    -2.521165979107    -0.006822916207     1.007825032230
         H           -0.979675493977     2.513223020893    -0.006822916207     1.007825032230
         H           -3.136796493977    -1.237805979107     0.075954083793     1.007825032230
         H           -3.136798493977     1.229860020893     0.075928083793     1.007825032230

  Basis Set: AUG-CC-PVTZ
    Blend: AUG-CC-PVTZ
  Basis Set: (AUG-CC-PVTZ AUX)
    Blend: AUG-CC-PVTZ-JKFIT
	 Reference Energy          =    -418.4159263519464389 [Eh]
	 Singles Energy            =      -0.0000000000000000 [Eh]
	 Same-Spin Energy          =      -0.4349044466133434 [Eh]
	 Opposite-Spin Energy      =      -1.3179828150773978 [Eh]
	 Correlation Energy        =      -1.7528872616907412 [Eh]
	 Total Energy              =    -420.1688136136371554 [Eh]

	 ================> DF-SCS-MP2 Energies <==================
	-----------------------------------------------------------
	 SCS Same-Spin Scale       =       0.3333333333333333 [-]
	 SCS Opposite-Spin Scale   =       1.2000000000000000 [-]
	 SCS Same-Spin Energy      =      -0.1449681488711144 [Eh]
	 SCS Opposite-Spin Energy  =      -1.5815793780928773 [Eh]
	 SCS Correlation Energy    =      -1.7265475269639918 [Eh]
	 SCS Total Energy          =    -420.1424738789104367 [Eh]
	-----------------------------------------------------------

  Dipole Moment: [D]
     X:     0.3356      Y:     0.1302      Z:     0.5979     Total:     0.6979

*** Psi4 exiting successfully. Buy a developer a beer!
