                               Psi4 1.3.2 release

  ==> Input File <==

--------------------------------------------------------------------------
#psi4
#
memory 32 gb

molecule  {
0 1
  O       -1.6158031     1.2492416    -0.0003714
  O       -1.4891280    -1.1679560    -0.0004790
  C       -0.1944510     0.6951560    -0.0000890
  C       -0.1944370    -0.6951450    -0.0000610
  C       -2.3278770    -0.0000160     0.0005000
  C        0.9772920     1.4300230    -0.0000060
  C        0.9772900    -1.4300260     0.0000640
  C        2.1768970     0.6987030     0.0001890
  C        2.1768990    -0.6987090     0.0002190
  H       -2.9446710     0.0000210     0.9046330
  H       -2.9467630    -0.0000130    -0.9021640
  H        0.9615330     2.5156070    -0.0000720
  H        0.9615200    -2.5156090     0.0000480
  H        3.1223520     1.2342420     0.0003040
  H        3.1223530    -1.2342490     0.0003630
units angstrom
no_reorient  #important for SAPT in psi4, default
symmetry c1  #important for SAPT in psi4, default
}

set PROPERTIES_ORIGIN ["COM"]
properties('MP2/aug-cc-pvtz', properties = ['dipole'])
--------------------------------------------------------------------------

    Molecular point group: c1
  Charge       = 0
  Multiplicity = 1
  Basis Set: AUG-CC-PVTZ
    Blend: AUG-CC-PVTZ
  Basis Set: (AUG-CC-PVTZ AUX)
    Blend: AUG-CC-PVTZ-JKFIT

    Orbital Energies [Eh]
    ---------------------

    Doubly Occupied:

       1A    -20.604600     2A    -20.599794     3A    -11.348178
       4A    -11.312425     5A    -11.308883     6A    -11.255807
       7A    -11.251108     8A    -11.249961     9A    -11.245262
      10A     -1.450876    11A     -1.348929    12A     -1.161962
      13A     -1.031048    14A     -1.022355    15A     -0.904729
      16A     -0.854597    17A     -0.829073    18A     -0.712726
      19A     -0.704102    20A     -0.695672    21A     -0.667869
      22A     -0.624973    23A     -0.594474    24A     -0.573292
      25A     -0.563508    26A     -0.553433    27A     -0.536224
      28A     -0.532447    29A     -0.513987    30A     -0.455620
      31A     -0.350124    32A     -0.317744

  @DF-RHF Final Energy:  -418.39648378449999

   => Energetics <=

    Nuclear Repulsion Energy =            422.3647199493613584
    One-Electron Energy =               -1407.1708390031860745
    Two-Electron Energy =                 566.4096352693246672
    Total Energy =                       -418.3964837844999920
  Basis Set: (AUG-CC-PVTZ AUX)
    Blend: AUG-CC-PVTZ-RI
    Molecular point group: c1

    Geometry (in Angstrom), charge = 0, multiplicity = 1:

       Center              X                  Y                   Z               Mass
    ------------   -----------------  -----------------  -----------------  -----------------
         O           -1.580816798695     1.238589178410    -0.000365879337    15.994914619570
         O           -1.454141698695    -1.178608421590    -0.000473479337    15.994914619570
         C           -0.159464698695     0.684503578410    -0.000083479337    12.000000000000
         C           -0.159450698695    -0.705797421590    -0.000055479337    12.000000000000
         C           -2.292890698695    -0.010668421590     0.000505520663    12.000000000000
         C            1.012278301305     1.419370578410    -0.000000479337    12.000000000000
         C            1.012276301305    -1.440678421590     0.000069520663    12.000000000000
         C            2.211883301305     0.688050578410     0.000194520663    12.000000000000
         C            2.211885301305    -0.709361421590     0.000224520663    12.000000000000
         H           -2.909684698695    -0.010631421590     0.904638520663     1.007825032230
         H           -2.911776698695    -0.010665421590    -0.902158479337     1.007825032230
         H            0.996519301305     2.504954578410    -0.000066479337     1.007825032230
         H            0.996506301305    -2.526261421590     0.000053520663     1.007825032230
         H            3.157338301305     1.223589578410     0.000309520663     1.007825032230
         H            3.157339301305    -1.244901421590     0.000368520663     1.007825032230

  Basis Set: AUG-CC-PVTZ
    Blend: AUG-CC-PVTZ
  Basis Set: (AUG-CC-PVTZ AUX)
    Blend: AUG-CC-PVTZ-JKFIT
	 Reference Energy          =    -418.3964837844999920 [Eh]
	 Singles Energy            =      -0.0000000000000000 [Eh]
	 Same-Spin Energy          =      -0.4354065786730947 [Eh]
	 Opposite-Spin Energy      =      -1.3217395679458956 [Eh]
	 Correlation Energy        =      -1.7571461466189904 [Eh]
	 Total Energy              =    -420.1536299311189850 [Eh]

	 ================> DF-SCS-MP2 Energies <==================
	-----------------------------------------------------------
	 SCS Same-Spin Scale       =       0.3333333333333333 [-]
	 SCS Opposite-Spin Scale   =       1.2000000000000000 [-]
	 SCS Same-Spin Energy      =      -0.1451355262243649 [Eh]
	 SCS Opposite-Spin Energy  =      -1.5860874815350747 [Eh]
	 SCS Correlation Energy    =      -1.7312230077594397 [Eh]
	 SCS Total Energy          =    -420.1277067922594597 [Eh]
	-----------------------------------------------------------

  Dipole Moment: [D]
     X:     0.4656      Y:    -0.2462      Z:     0.0016     Total:     0.5267

*** Psi4 exiting successfully. Buy a developer a beer!
