                               Psi4 1.3.2 release

  ==> Input File <==

--------------------------------------------------------------------------
#psi4
#
memory 32 gb

molecule  {
0 1
  O       -1.4891210     1.1679660    -0.0005210
  O       -1.4891280    -1.1679560    -0.0004790
  C       -0.1944510     0.6951560    -0.0000890
  C       -0.1944390    -0.4951450    -0.0000650
  C       -2.3278770    -0.0000160     0.0005000
  C        0.9772920     1.4300230    -0.0000060
  C        0.9772900    -1.4300260     0.0000640
  C        2.1768970     0.6987030     0.0001890
  C        2.1768990    -0.6987090     0.0002190
  H       -2.9446710     0.0000210     0.9046330
  H       -2.9467630    -0.0000130    -0.9021640
  H        0.9615330     2.5156070    -0.0000720
  H        0.9615200    -2.5156090     0.0000480
  H        3.1223520     1.2342420     0.0003040
  H        3.1223530    -1.2342490     0.0003630
units angstrom
no_reorient  #important for SAPT in psi4, default
symmetry c1  #important for SAPT in psi4, default
}

set PROPERTIES_ORIGIN ["COM"]
properties('MP2/aug-cc-pvtz', properties = ['dipole'])
--------------------------------------------------------------------------

    Molecular point group: c1
  Charge       = 0
  Multiplicity = 1
  Basis Set: AUG-CC-PVTZ
    Blend: AUG-CC-PVTZ
  Basis Set: (AUG-CC-PVTZ AUX)
    Blend: AUG-CC-PVTZ-JKFIT

    Orbital Energies [Eh]
    ---------------------

    Doubly Occupied:

       1A    -20.592792     2A    -20.590845     3A    -11.346325
       4A    -11.282752     5A    -11.273022     6A    -11.262770
       7A    -11.253893     8A    -11.247500     9A    -11.245621
      10A     -1.463044    11A     -1.347772    12A     -1.173167
      13A     -1.049197    14A     -1.011541    15A     -0.910743
      16A     -0.872719    17A     -0.815492    18A     -0.719664
      19A     -0.708539    20A     -0.685509    21A     -0.667148
      22A     -0.622014    23A     -0.605170    24A     -0.575257
      25A     -0.564108    26A     -0.543065    27A     -0.542876
      28A     -0.529435    29A     -0.511698    30A     -0.456221
      31A     -0.342335    32A     -0.327259

  @DF-RHF Final Energy:  -418.35318375370588

   => Energetics <=

    Nuclear Repulsion Energy =            428.6388718664389899
    One-Electron Energy =               -1419.7051232013127446
    Two-Electron Energy =                 572.7130675811678202
    Total Energy =                       -418.3531837537059346
  Basis Set: (AUG-CC-PVTZ AUX)
    Blend: AUG-CC-PVTZ-RI
    Molecular point group: c1

    Geometry (in Angstrom), charge = 0, multiplicity = 1:

       Center              X                  Y                   Z               Mass
    ------------   -----------------  -----------------  -----------------  -----------------
         O           -1.470738261840     1.148299871866    -0.000495478488    15.994914619570
         O           -1.470745261840    -1.187622128134    -0.000453478488    15.994914619570
         C           -0.176068261840     0.675489871866    -0.000063478488    12.000000000000
         C           -0.176056261840    -0.514811128134    -0.000039478488    12.000000000000
         C           -2.309494261840    -0.019682128134     0.000525521512    12.000000000000
         C            0.995674738160     1.410356871866     0.000019521512    12.000000000000
         C            0.995672738160    -1.449692128134     0.000089521512    12.000000000000
         C            2.195279738160     0.679036871866     0.000214521512    12.000000000000
         C            2.195281738160    -0.718375128134     0.000244521512    12.000000000000
         H           -2.926288261840    -0.019645128134     0.904658521512     1.007825032230
         H           -2.928380261840    -0.019679128134    -0.902138478488     1.007825032230
         H            0.979915738160     2.495940871866    -0.000046478488     1.007825032230
         H            0.979902738160    -2.535275128134     0.000073521512     1.007825032230
         H            3.140734738160     1.214575871866     0.000329521512     1.007825032230
         H            3.140735738160    -1.253915128134     0.000388521512     1.007825032230

  Basis Set: AUG-CC-PVTZ
    Blend: AUG-CC-PVTZ
  Basis Set: (AUG-CC-PVTZ AUX)
    Blend: AUG-CC-PVTZ-JKFIT
	 Reference Energy          =    -418.3531837537058777 [Eh]
	 Singles Energy            =      -0.0000000000000000 [Eh]
	 Same-Spin Energy          =      -0.4337463062086654 [Eh]
	 Opposite-Spin Energy      =      -1.3188040023719854 [Eh]
	 Correlation Energy        =      -1.7525503085806506 [Eh]
	 Total Energy              =    -420.1057340622865013 [Eh]

	 ================> DF-SCS-MP2 Energies <==================
	-----------------------------------------------------------
	 SCS Same-Spin Scale       =       0.3333333333333333 [-]
	 SCS Opposite-Spin Scale   =       1.2000000000000000 [-]
	 SCS Same-Spin Energy      =      -0.1445821020695551 [Eh]
	 SCS Opposite-Spin Energy  =      -1.5825648028463823 [Eh]
	 SCS Correlation Energy    =      -1.7271469049159376 [Eh]
	 SCS Total Energy          =    -420.0803306586217900 [Eh]
	-----------------------------------------------------------

  Dipole Moment: [D]
     X:     0.3768      Y:     0.0858      Z:     0.0018     Total:     0.3865

*** Psi4 exiting successfully. Buy a developer a beer!
