                               Psi4 1.3.2 release

  ==> Input File <==

--------------------------------------------------------------------------
#psi4
#
memory 32 gb

molecule  {
0 1
  O       -1.5726384     1.2236296    -0.0004224
  O       -1.4891280    -1.1679560    -0.0004790
  C       -0.1944510     0.6951560    -0.0000890
  C       -0.1944370    -0.6951450    -0.0000610
  C       -2.3278770    -0.0000160     0.0005000
  C        0.9772920     1.4300230    -0.0000060
  C        0.9772900    -1.4300260     0.0000640
  C        2.1768970     0.6987030     0.0001890
  C        2.1768990    -0.6987090     0.0002190
  H       -2.9446710     0.0000210     0.9046330
  H       -2.9467630    -0.0000130    -0.9021640
  H        0.9615330     2.5156070    -0.0000720
  H        0.9615200    -2.5156090     0.0000480
  H        3.1223520     1.2342420     0.0003040
  H        3.1223530    -1.2342490     0.0003630
units angstrom
no_reorient  #important for SAPT in psi4, default
symmetry c1  #important for SAPT in psi4, default
}

set PROPERTIES_ORIGIN ["COM"]
properties('MP2/aug-cc-pvtz', properties = ['dipole'])
--------------------------------------------------------------------------

    Molecular point group: c1
  Charge       = 0
  Multiplicity = 1
  Basis Set: AUG-CC-PVTZ
    Blend: AUG-CC-PVTZ
  Basis Set: (AUG-CC-PVTZ AUX)
    Blend: AUG-CC-PVTZ-JKFIT

    Orbital Energies [Eh]
    ---------------------

    Doubly Occupied:

       1A    -20.603831     2A    -20.600574     3A    -11.351220
       4A    -11.308836     5A    -11.305967     6A    -11.252421
       7A    -11.248907     8A    -11.247216     9A    -11.243529
      10A     -1.455858    11A     -1.356697    12A     -1.159744
      13A     -1.028777    14A     -1.022246    15A     -0.907068
      16A     -0.853435    17A     -0.830185    18A     -0.712147
      19A     -0.707079    20A     -0.698081    21A     -0.670145
      22A     -0.622927    23A     -0.592513    24A     -0.580698
      25A     -0.563129    26A     -0.554033    27A     -0.540829
      28A     -0.532811    29A     -0.512116    30A     -0.456974
      31A     -0.347334    32A     -0.313970

  @DF-RHF Final Energy:  -418.40659076501964

   => Energetics <=

    Nuclear Repulsion Energy =            423.7005527293620162
    One-Electron Energy =               -1409.8516927356943143
    Two-Electron Energy =                 567.7445492413125976
    Total Energy =                       -418.4065907650197005
  Basis Set: (AUG-CC-PVTZ AUX)
    Blend: AUG-CC-PVTZ-RI
    Molecular point group: c1

    Geometry (in Angstrom), charge = 0, multiplicity = 1:

       Center              X                  Y                   Z               Mass
    ------------   -----------------  -----------------  -----------------  -----------------
         O           -1.543309538152     1.216334049635    -0.000410194954    15.994914619570
         O           -1.459799138152    -1.175251550365    -0.000466794954    15.994914619570
         C           -0.165122138152     0.687860449635    -0.000076794954    12.000000000000
         C           -0.165108138152    -0.702440550365    -0.000048794954    12.000000000000
         C           -2.298548138152    -0.007311550365     0.000512205046    12.000000000000
         C            1.006620861848     1.422727449635     0.000006205046    12.000000000000
         C            1.006618861848    -1.437321550365     0.000076205046    12.000000000000
         C            2.206225861848     0.691407449635     0.000201205046    12.000000000000
         C            2.206227861848    -0.706004550365     0.000231205046    12.000000000000
         H           -2.915342138152    -0.007274550365     0.904645205046     1.007825032230
         H           -2.917434138152    -0.007308550365    -0.902151794954     1.007825032230
         H            0.990861861848     2.508311449635    -0.000059794954     1.007825032230
         H            0.990848861848    -2.522904550365     0.000060205046     1.007825032230
         H            3.151680861848     1.226946449635     0.000316205046     1.007825032230
         H            3.151681861848    -1.241544550365     0.000375205046     1.007825032230

  Basis Set: AUG-CC-PVTZ
    Blend: AUG-CC-PVTZ
  Basis Set: (AUG-CC-PVTZ AUX)
    Blend: AUG-CC-PVTZ-JKFIT
	 Reference Energy          =    -418.4065907650196436 [Eh]
	 Singles Energy            =      -0.0000000000000000 [Eh]
	 Same-Spin Energy          =      -0.4349473975950932 [Eh]
	 Opposite-Spin Energy      =      -1.3199160647482744 [Eh]
	 Correlation Energy        =      -1.7548634623433677 [Eh]
	 Total Energy              =    -420.1614542273630377 [Eh]

	 ================> DF-SCS-MP2 Energies <==================
	-----------------------------------------------------------
	 SCS Same-Spin Scale       =       0.3333333333333333 [-]
	 SCS Opposite-Spin Scale   =       1.2000000000000000 [-]
	 SCS Same-Spin Energy      =      -0.1449824658650311 [Eh]
	 SCS Opposite-Spin Energy  =      -1.5838992776979293 [Eh]
	 SCS Correlation Energy    =      -1.7288817435629604 [Eh]
	 SCS Total Energy          =    -420.1354725085826090 [Eh]
	-----------------------------------------------------------

  Dipole Moment: [D]
     X:     0.1927      Y:    -0.1698      Z:     0.0016     Total:     0.2568

*** Psi4 exiting successfully. Buy a developer a beer!
