                               Psi4 1.3.2 release

  ==> Input File <==

--------------------------------------------------------------------------
#psi4
#
memory 32 gb

molecule  {
0 1
  O       -1.4891210     1.1679660    -0.0005210
  O       -1.4891280    -1.1679560    -0.0004790
  C       -0.1944510     0.6951560    -0.0000890
  C       -0.1944370    -0.6951450    -0.0000610
  C       -2.2112169     0.1624352     0.0003580
  C        0.9772920     1.4300230    -0.0000060
  C        0.9772900    -1.4300260     0.0000640
  C        2.1768970     0.6987030     0.0001890
  C        2.1768990    -0.6987090     0.0002190
  H       -2.9446710     0.0000210     0.9046330
  H       -2.9467630    -0.0000130    -0.9021640
  H        0.9615330     2.5156070    -0.0000720
  H        0.9615200    -2.5156090     0.0000480
  H        3.1223520     1.2342420     0.0003040
  H        3.1223530    -1.2342490     0.0003630
units angstrom
no_reorient  #important for SAPT in psi4, default
symmetry c1  #important for SAPT in psi4, default
}

set PROPERTIES_ORIGIN ["COM"]
properties('MP2/aug-cc-pvtz', properties = ['dipole'])
--------------------------------------------------------------------------

    Molecular point group: c1
  Charge       = 0
  Multiplicity = 1
  Basis Set: AUG-CC-PVTZ
    Blend: AUG-CC-PVTZ
  Basis Set: (AUG-CC-PVTZ AUX)
    Blend: AUG-CC-PVTZ-JKFIT

    Orbital Energies [Eh]
    ---------------------

    Doubly Occupied:

       1A    -20.623788     2A    -20.593668     3A    -11.361860
       4A    -11.311285     5A    -11.304524     6A    -11.254795
       7A    -11.247517     8A    -11.246055     9A    -11.243832
      10A     -1.536519    11A     -1.383078    12A     -1.162358
      13A     -1.039845    14A     -1.021908    15A     -0.906310
      16A     -0.864739    17A     -0.842238    18A     -0.730023
      19A     -0.729895    20A     -0.725628    21A     -0.671996
      22A     -0.627684    23A     -0.613362    24A     -0.592770
      25A     -0.575381    26A     -0.545091    27A     -0.531270
      28A     -0.526816    29A     -0.512577    30A     -0.437669
      31A     -0.347755    32A     -0.307786

  @DF-RHF Final Energy:  -418.37453385788410

   => Energetics <=

    Nuclear Repulsion Energy =            429.5490998776537594
    One-Electron Energy =               -1421.0072188187602933
    Two-Electron Energy =                 573.0835850832223741
    Total Energy =                       -418.3745338578841029
  Basis Set: (AUG-CC-PVTZ AUX)
    Blend: AUG-CC-PVTZ-RI
    Molecular point group: c1

    Geometry (in Angstrom), charge = 0, multiplicity = 1:

       Center              X                  Y                   Z               Mass
    ------------   -----------------  -----------------  -----------------  -----------------
         O           -1.482209764174     1.151992083363    -0.000481908808    15.994914619570
         O           -1.482216764174    -1.183929916637    -0.000439908808    15.994914619570
         C           -0.187539764174     0.679182083363    -0.000049908808    12.000000000000
         C           -0.187525764174    -0.711118916637    -0.000021908808    12.000000000000
         C           -2.204305664174     0.146461283363     0.000397091192    12.000000000000
         C            0.984203235826     1.414049083363     0.000033091192    12.000000000000
         C            0.984201235826    -1.445999916637     0.000103091192    12.000000000000
         C            2.183808235826     0.682729083363     0.000228091192    12.000000000000
         C            2.183810235826    -0.714682916637     0.000258091192    12.000000000000
         H           -2.937759764174    -0.015952916637     0.904672091192     1.007825032230
         H           -2.939851764174    -0.015986916637    -0.902124908808     1.007825032230
         H            0.968444235826     2.499633083363    -0.000032908808     1.007825032230
         H            0.968431235826    -2.531582916637     0.000087091192     1.007825032230
         H            3.129263235826     1.218268083363     0.000343091192     1.007825032230
         H            3.129264235826    -1.250222916637     0.000402091192     1.007825032230

  Basis Set: AUG-CC-PVTZ
    Blend: AUG-CC-PVTZ
  Basis Set: (AUG-CC-PVTZ AUX)
    Blend: AUG-CC-PVTZ-JKFIT
	 Reference Energy          =    -418.3745338578841029 [Eh]
	 Singles Energy            =      -0.0000000000000000 [Eh]
	 Same-Spin Energy          =      -0.4361581499304128 [Eh]
	 Opposite-Spin Energy      =      -1.3185913169920582 [Eh]
	 Correlation Energy        =      -1.7547494669224710 [Eh]
	 Total Energy              =    -420.1292833248065790 [Eh]

	 ================> DF-SCS-MP2 Energies <==================
	-----------------------------------------------------------
	 SCS Same-Spin Scale       =       0.3333333333333333 [-]
	 SCS Opposite-Spin Scale   =       1.2000000000000000 [-]
	 SCS Same-Spin Energy      =      -0.1453860499768043 [Eh]
	 SCS Opposite-Spin Energy  =      -1.5823095803904699 [Eh]
	 SCS Correlation Energy    =      -1.7276956303672741 [Eh]
	 SCS Total Energy          =    -420.1022294882513961 [Eh]
	-----------------------------------------------------------

  Dipole Moment: [D]
     X:     0.4847      Y:     0.5672      Z:     0.0007     Total:     0.7461

*** Psi4 exiting successfully. Buy a developer a beer!
