                               Psi4 1.3.2 release

  ==> Input File <==

--------------------------------------------------------------------------
#psi4
#
memory 32 gb

molecule  {
0 1
  O       -1.5048332     1.1224946    -0.0005252
  O       -1.4891280    -1.1679560    -0.0004790
  C       -0.1944510     0.6951560    -0.0000890
  C       -0.1944370    -0.6951450    -0.0000610
  C       -2.3278770    -0.0000160     0.0005000
  C        0.9772920     1.4300230    -0.0000060
  C        0.9772900    -1.4300260     0.0000640
  C        2.1768970     0.6987030     0.0001890
  C        2.1768990    -0.6987090     0.0002190
  H       -2.9446710     0.0000210     0.9046330
  H       -2.9467630    -0.0000130    -0.9021640
  H        0.9615330     2.5156070    -0.0000720
  H        0.9615200    -2.5156090     0.0000480
  H        3.1223520     1.2342420     0.0003040
  H        3.1223530    -1.2342490     0.0003630
units angstrom
no_reorient  #important for SAPT in psi4, default
symmetry c1  #important for SAPT in psi4, default
}

set PROPERTIES_ORIGIN ["COM"]
properties('MP2/aug-cc-pvtz', properties = ['dipole'])
--------------------------------------------------------------------------

    Molecular point group: c1
  Charge       = 0
  Multiplicity = 1
  Basis Set: AUG-CC-PVTZ
    Blend: AUG-CC-PVTZ
  Basis Set: (AUG-CC-PVTZ AUX)
    Blend: AUG-CC-PVTZ-JKFIT

    Orbital Energies [Eh]
    ---------------------

    Doubly Occupied:

       1A    -20.600906     2A    -20.599573     3A    -11.354341
       4A    -11.302844     5A    -11.300216     6A    -11.247072
       7A    -11.244712     8A    -11.241298     9A    -11.240105
      10A     -1.481486    11A     -1.374063    12A     -1.156740
      13A     -1.027478    14A     -1.024289    15A     -0.911769
      16A     -0.852003    17A     -0.835434    18A     -0.719730
      19A     -0.714545    20A     -0.710399    21A     -0.676824
      22A     -0.619612    23A     -0.597478    24A     -0.588025
      25A     -0.566273    26A     -0.553311    27A     -0.547625
      28A     -0.531188    29A     -0.506721    30A     -0.456874
      31A     -0.342771    32A     -0.304808

  @DF-RHF Final Energy:  -418.41917517575467

   => Energetics <=

    Nuclear Repulsion Energy =            427.5668979347762502
    One-Electron Energy =               -1417.5111188885255160
    Two-Electron Energy =                 571.5250457779944782
    Total Energy =                       -418.4191751757547308
  Basis Set: (AUG-CC-PVTZ AUX)
    Blend: AUG-CC-PVTZ-RI
    Molecular point group: c1

    Geometry (in Angstrom), charge = 0, multiplicity = 1:

       Center              X                  Y                   Z               Mass
    ------------   -----------------  -----------------  -----------------  -----------------
         O           -1.484391317879     1.128454444423    -0.000499521333    15.994914619570
         O           -1.468686117879    -1.161996155577    -0.000453321333    15.994914619570
         C           -0.174009117879     0.701115844423    -0.000063321333    12.000000000000
         C           -0.173995117879    -0.689185155577    -0.000035321333    12.000000000000
         C           -2.307435117879     0.005943844423     0.000525678667    12.000000000000
         C            0.997733882121     1.435982844423     0.000019678667    12.000000000000
         C            0.997731882121    -1.424066155577     0.000089678667    12.000000000000
         C            2.197338882121     0.704662844423     0.000214678667    12.000000000000
         C            2.197340882121    -0.692749155577     0.000244678667    12.000000000000
         H           -2.924229117879     0.005980844423     0.904658678667     1.007825032230
         H           -2.926321117879     0.005946844423    -0.902138321333     1.007825032230
         H            0.981974882121     2.521566844423    -0.000046321333     1.007825032230
         H            0.981961882121    -2.509649155577     0.000073678667     1.007825032230
         H            3.142793882121     1.240201844423     0.000329678667     1.007825032230
         H            3.142794882121    -1.228289155577     0.000388678667     1.007825032230

  Basis Set: AUG-CC-PVTZ
    Blend: AUG-CC-PVTZ
  Basis Set: (AUG-CC-PVTZ AUX)
    Blend: AUG-CC-PVTZ-JKFIT
	 Reference Energy          =    -418.4191751757546740 [Eh]
	 Singles Energy            =      -0.0000000000000000 [Eh]
	 Same-Spin Energy          =      -0.4340641838115196 [Eh]
	 Opposite-Spin Energy      =      -1.3155701619145164 [Eh]
	 Correlation Energy        =      -1.7496343457260359 [Eh]
	 Total Energy              =    -420.1688095214806822 [Eh]

	 ================> DF-SCS-MP2 Energies <==================
	-----------------------------------------------------------
	 SCS Same-Spin Scale       =       0.3333333333333333 [-]
	 SCS Opposite-Spin Scale   =       1.2000000000000000 [-]
	 SCS Same-Spin Energy      =      -0.1446880612705065 [Eh]
	 SCS Opposite-Spin Energy  =      -1.5786841942974197 [Eh]
	 SCS Correlation Energy    =      -1.7233722555679263 [Eh]
	 SCS Total Energy          =    -420.1425474313226118 [Eh]
	-----------------------------------------------------------

  Dipole Moment: [D]
     X:    -0.3151      Y:     0.1101      Z:     0.0016     Total:     0.3338

*** Psi4 exiting successfully. Buy a developer a beer!
