                               Psi4 1.3.2 release

  ==> Input File <==

--------------------------------------------------------------------------
#psi4
#
memory 32 gb

molecule  {
0 1
  O       -1.5189488     1.0765026    -0.0005289
  O       -1.4891280    -1.1679560    -0.0004790
  C       -0.1944510     0.6951560    -0.0000890
  C       -0.1944370    -0.6951450    -0.0000610
  C       -2.3278770    -0.0000160     0.0005000
  C        0.9772920     1.4300230    -0.0000060
  C        0.9772900    -1.4300260     0.0000640
  C        2.1768970     0.6987030     0.0001890
  C        2.1768990    -0.6987090     0.0002190
  H       -2.9446710     0.0000210     0.9046330
  H       -2.9467630    -0.0000130    -0.9021640
  H        0.9615330     2.5156070    -0.0000720
  H        0.9615200    -2.5156090     0.0000480
  H        3.1223520     1.2342420     0.0003040
  H        3.1223530    -1.2342490     0.0003630
units angstrom
no_reorient  #important for SAPT in psi4, default
symmetry c1  #important for SAPT in psi4, default
}

set PROPERTIES_ORIGIN ["COM"]
properties('MP2/aug-cc-pvtz', properties = ['dipole'])
--------------------------------------------------------------------------

    Molecular point group: c1
  Charge       = 0
  Multiplicity = 1
  Basis Set: AUG-CC-PVTZ
    Blend: AUG-CC-PVTZ
  Basis Set: (AUG-CC-PVTZ AUX)
    Blend: AUG-CC-PVTZ-JKFIT

    Orbital Energies [Eh]
    ---------------------

    Doubly Occupied:

       1A    -20.599166     2A    -20.596612     3A    -11.350223
       4A    -11.304945     5A    -11.299985     6A    -11.249298
       7A    -11.244478     8A    -11.241962     9A    -11.240774
      10A     -1.493224    11A     -1.374982    12A     -1.158584
      13A     -1.031992    14A     -1.024783    15A     -0.911414
      16A     -0.851908    17A     -0.837965    18A     -0.725739
      19A     -0.717436    20A     -0.715858    21A     -0.678026
      22A     -0.620792    23A     -0.602032    24A     -0.587347
      25A     -0.565981    26A     -0.549399    27A     -0.545586
      28A     -0.532381    29A     -0.506331    30A     -0.455046
      31A     -0.343720    32A     -0.304401

  @DF-RHF Final Energy:  -418.41613808961978

   => Energetics <=

    Nuclear Repulsion Energy =            428.6497840996090076
    One-Electron Energy =               -1419.6071101154020653
    Two-Electron Energy =                 572.5411879261733930
    Total Energy =                       -418.4161380896197215
  Basis Set: (AUG-CC-PVTZ AUX)
    Blend: AUG-CC-PVTZ-RI
    Molecular point group: c1

    Geometry (in Angstrom), charge = 0, multiplicity = 1:

       Center              X                  Y                   Z               Mass
    ------------   -----------------  -----------------  -----------------  -----------------
         O           -1.496656837781     1.088490447756    -0.000502736388    15.994914619570
         O           -1.466836037781    -1.155968152244    -0.000452836388    15.994914619570
         C           -0.172159037781     0.707143847756    -0.000062836388    12.000000000000
         C           -0.172145037781    -0.683157152244    -0.000034836388    12.000000000000
         C           -2.305585037781     0.011971847756     0.000526163612    12.000000000000
         C            0.999583962219     1.442010847756     0.000020163612    12.000000000000
         C            0.999581962219    -1.418038152244     0.000090163612    12.000000000000
         C            2.199188962219     0.710690847756     0.000215163612    12.000000000000
         C            2.199190962219    -0.686721152244     0.000245163612    12.000000000000
         H           -2.922379037781     0.012008847756     0.904659163612     1.007825032230
         H           -2.924471037781     0.011974847756    -0.902137836388     1.007825032230
         H            0.983824962219     2.527594847756    -0.000045836388     1.007825032230
         H            0.983811962219    -2.503621152244     0.000074163612     1.007825032230
         H            3.144643962219     1.246229847756     0.000330163612     1.007825032230
         H            3.144644962219    -1.222261152244     0.000389163612     1.007825032230

  Basis Set: AUG-CC-PVTZ
    Blend: AUG-CC-PVTZ
  Basis Set: (AUG-CC-PVTZ AUX)
    Blend: AUG-CC-PVTZ-JKFIT
	 Reference Energy          =    -418.4161380896197784 [Eh]
	 Singles Energy            =      -0.0000000000000000 [Eh]
	 Same-Spin Energy          =      -0.4339325112511885 [Eh]
	 Opposite-Spin Energy      =      -1.3145061046843880 [Eh]
	 Correlation Energy        =      -1.7484386159355765 [Eh]
	 Total Energy              =    -420.1645767055553620 [Eh]

	 ================> DF-SCS-MP2 Energies <==================
	-----------------------------------------------------------
	 SCS Same-Spin Scale       =       0.3333333333333333 [-]
	 SCS Opposite-Spin Scale   =       1.2000000000000000 [-]
	 SCS Same-Spin Energy      =      -0.1446441704170628 [Eh]
	 SCS Opposite-Spin Energy  =      -1.5774073256212655 [Eh]
	 SCS Correlation Energy    =      -1.7220514960383284 [Eh]
	 SCS Total Energy          =    -420.1381895856580968 [Eh]
	-----------------------------------------------------------

  Dipole Moment: [D]
     X:    -0.2095      Y:     0.2279      Z:     0.0015     Total:     0.3096

*** Psi4 exiting successfully. Buy a developer a beer!
