                               Psi4 1.3.2 release

  ==> Input File <==

--------------------------------------------------------------------------
#psi4
#
memory 32 gb

molecule  {
0 1
  O       -1.5303939     1.1965267    -0.0004723
  O       -1.4891280    -1.1679560    -0.0004790
  C       -0.1944510     0.6951560    -0.0000890
  C       -0.1944370    -0.6951450    -0.0000610
  C       -2.3278770    -0.0000160     0.0005000
  C        0.9772920     1.4300230    -0.0000060
  C        0.9772900    -1.4300260     0.0000640
  C        2.1768970     0.6987030     0.0001890
  C        2.1768990    -0.6987090     0.0002190
  H       -2.9446710     0.0000210     0.9046330
  H       -2.9467630    -0.0000130    -0.9021640
  H        0.9615330     2.5156070    -0.0000720
  H        0.9615200    -2.5156090     0.0000480
  H        3.1223520     1.2342420     0.0003040
  H        3.1223530    -1.2342490     0.0003630
units angstrom
no_reorient  #important for SAPT in psi4, default
symmetry c1  #important for SAPT in psi4, default
}

set PROPERTIES_ORIGIN ["COM"]
properties('MP2/aug-cc-pvtz', properties = ['dipole'])
--------------------------------------------------------------------------

    Molecular point group: c1
  Charge       = 0
  Multiplicity = 1
  Basis Set: AUG-CC-PVTZ
    Blend: AUG-CC-PVTZ
  Basis Set: (AUG-CC-PVTZ AUX)
    Blend: AUG-CC-PVTZ-JKFIT

    Orbital Energies [Eh]
    ---------------------

    Doubly Occupied:

       1A    -20.603077     2A    -20.601410     3A    -11.354656
       4A    -11.305071     5A    -11.303120     6A    -11.248817
       7A    -11.246938     8A    -11.243950     9A    -11.241706
      10A     -1.462675    11A     -1.364662    12A     -1.157454
      13A     -1.026437    14A     -1.022527    15A     -0.909770
      16A     -0.852522    17A     -0.831403    18A     -0.711946
      19A     -0.710607    20A     -0.701220    21A     -0.672861
      22A     -0.620804    23A     -0.590398    24A     -0.587698
      25A     -0.563729    26A     -0.554825    27A     -0.545594
      28A     -0.531759    29A     -0.509787    30A     -0.457931
      31A     -0.344573    32A     -0.309784

  @DF-RHF Final Energy:  -418.41414760082637

   => Energetics <=

    Nuclear Repulsion Energy =            425.0944290004562731
    One-Electron Energy =               -1412.6377307035349986
    Two-Electron Energy =                 569.1291541022523006
    Total Energy =                       -418.4141476008263680
  Basis Set: (AUG-CC-PVTZ AUX)
    Blend: AUG-CC-PVTZ-RI
    Molecular point group: c1

    Geometry (in Angstrom), charge = 0, multiplicity = 1:

       Center              X                  Y                   Z               Mass
    ------------   -----------------  -----------------  -----------------  -----------------
         O           -1.506601870357     1.192783427673    -0.000453554743    15.994914619570
         O           -1.465335970357    -1.171699272327    -0.000460254743    15.994914619570
         C           -0.170658970357     0.691412727673    -0.000070254743    12.000000000000
         C           -0.170644970357    -0.698888272327    -0.000042254743    12.000000000000
         C           -2.304084970357    -0.003759272327     0.000518745257    12.000000000000
         C            1.001084029643     1.426279727673     0.000012745257    12.000000000000
         C            1.001082029643    -1.433769272327     0.000082745257    12.000000000000
         C            2.200689029643     0.694959727673     0.000207745257    12.000000000000
         C            2.200691029643    -0.702452272327     0.000237745257    12.000000000000
         H           -2.920878970357    -0.003722272327     0.904651745257     1.007825032230
         H           -2.922970970357    -0.003756272327    -0.902145254743     1.007825032230
         H            0.985325029643     2.511863727673    -0.000053254743     1.007825032230
         H            0.985312029643    -2.519352272327     0.000066745257     1.007825032230
         H            3.146144029643     1.230498727673     0.000322745257     1.007825032230
         H            3.146145029643    -1.237992272327     0.000381745257     1.007825032230

  Basis Set: AUG-CC-PVTZ
    Blend: AUG-CC-PVTZ
  Basis Set: (AUG-CC-PVTZ AUX)
    Blend: AUG-CC-PVTZ-JKFIT
	 Reference Energy          =    -418.4141476008263680 [Eh]
	 Singles Energy            =      -0.0000000000000000 [Eh]
	 Same-Spin Energy          =      -0.4345894134981578 [Eh]
	 Opposite-Spin Energy      =      -1.3182907467689993 [Eh]
	 Correlation Energy        =      -1.7528801602671571 [Eh]
	 Total Energy              =    -420.1670277610935500 [Eh]

	 ================> DF-SCS-MP2 Energies <==================
	-----------------------------------------------------------
	 SCS Same-Spin Scale       =       0.3333333333333333 [-]
	 SCS Opposite-Spin Scale   =       1.2000000000000000 [-]
	 SCS Same-Spin Energy      =      -0.1448631378327193 [Eh]
	 SCS Opposite-Spin Energy  =      -1.5819488961227990 [Eh]
	 SCS Correlation Energy    =      -1.7268120339555182 [Eh]
	 SCS Total Energy          =    -420.1409596347818933 [Eh]
	-----------------------------------------------------------

  Dipole Moment: [D]
     X:    -0.0996      Y:    -0.0876      Z:     0.0017     Total:     0.1327

*** Psi4 exiting successfully. Buy a developer a beer!
