                               Psi4 1.3.2 release

  ==> Input File <==

--------------------------------------------------------------------------
#psi4
#
memory 32 gb

molecule  {
0 1
  O       -1.4891210     1.1679660    -0.0005210
  O       -1.4891280    -1.1679560    -0.0004790
  C       -0.1944510     0.6951560    -0.0000890
  C       -0.1944360    -0.7951450    -0.0000590
  C       -2.3278770    -0.0000160     0.0005000
  C        0.9772920     1.4300230    -0.0000060
  C        0.9772900    -1.4300260     0.0000640
  C        2.1768970     0.6987030     0.0001890
  C        2.1768990    -0.6987090     0.0002190
  H       -2.9446710     0.0000210     0.9046330
  H       -2.9467630    -0.0000130    -0.9021640
  H        0.9615330     2.5156070    -0.0000720
  H        0.9615200    -2.5156090     0.0000480
  H        3.1223520     1.2342420     0.0003040
  H        3.1223530    -1.2342490     0.0003630
units angstrom
no_reorient  #important for SAPT in psi4, default
symmetry c1  #important for SAPT in psi4, default
}

set PROPERTIES_ORIGIN ["COM"]
properties('MP2/aug-cc-pvtz', properties = ['dipole'])
--------------------------------------------------------------------------

    Molecular point group: c1
  Charge       = 0
  Multiplicity = 1
  Basis Set: AUG-CC-PVTZ
    Blend: AUG-CC-PVTZ
  Basis Set: (AUG-CC-PVTZ AUX)
    Blend: AUG-CC-PVTZ-JKFIT

    Orbital Energies [Eh]
    ---------------------

    Doubly Occupied:

       1A    -20.607468     2A    -20.607196     3A    -11.364815
       4A    -11.309419     5A    -11.307313     6A    -11.240088
       7A    -11.238180     8A    -11.237020     9A    -11.235461
      10A     -1.477289    11A     -1.382445    12A     -1.150169
      13A     -1.031028    14A     -1.017026    15A     -0.915598
      16A     -0.840485    17A     -0.835137    18A     -0.718859
      19A     -0.718657    20A     -0.709059    21A     -0.678966
      22A     -0.618497    23A     -0.600891    24A     -0.576841
      25A     -0.575681    26A     -0.560873    27A     -0.547818
      28A     -0.531875    29A     -0.487898    30A     -0.458963
      31A     -0.348073    32A     -0.294903

  @DF-RHF Final Energy:  -418.40681169834062

   => Energetics <=

    Nuclear Repulsion Energy =            425.6571618508718302
    One-Electron Energy =               -1413.6799690945988459
    Two-Electron Energy =                 569.6159955453864541
    Total Energy =                       -418.4068116983405616
  Basis Set: (AUG-CC-PVTZ AUX)
    Blend: AUG-CC-PVTZ-RI
    Molecular point group: c1

    Geometry (in Angstrom), charge = 0, multiplicity = 1:

       Center              X                  Y                   Z               Mass
    ------------   -----------------  -----------------  -----------------  -----------------
         O           -1.470738556833     1.177799175410    -0.000496068474    15.994914619570
         O           -1.470745556833    -1.158122824590    -0.000454068474    15.994914619570
         C           -0.176068556833     0.704989175410    -0.000064068474    12.000000000000
         C           -0.176053556833    -0.785311824590    -0.000034068474    12.000000000000
         C           -2.309494556833     0.009817175410     0.000524931526    12.000000000000
         C            0.995674443167     1.439856175410     0.000018931526    12.000000000000
         C            0.995672443167    -1.420192824590     0.000088931526    12.000000000000
         C            2.195279443167     0.708536175410     0.000213931526    12.000000000000
         C            2.195281443167    -0.688875824590     0.000243931526    12.000000000000
         H           -2.926288556833     0.009854175410     0.904657931526     1.007825032230
         H           -2.928380556833     0.009820175410    -0.902139068474     1.007825032230
         H            0.979915443167     2.525440175410    -0.000047068474     1.007825032230
         H            0.979902443167    -2.505775824590     0.000072931526     1.007825032230
         H            3.140734443167     1.244075175410     0.000328931526     1.007825032230
         H            3.140735443167    -1.224415824590     0.000387931526     1.007825032230

  Basis Set: AUG-CC-PVTZ
    Blend: AUG-CC-PVTZ
  Basis Set: (AUG-CC-PVTZ AUX)
    Blend: AUG-CC-PVTZ-JKFIT
	 Reference Energy          =    -418.4068116983406185 [Eh]
	 Singles Energy            =      -0.0000000000000000 [Eh]
	 Same-Spin Energy          =      -0.4339158715486204 [Eh]
	 Opposite-Spin Energy      =      -1.3173150156492568 [Eh]
	 Correlation Energy        =      -1.7512308871978772 [Eh]
	 Total Energy              =    -420.1580425855385101 [Eh]

	 ================> DF-SCS-MP2 Energies <==================
	-----------------------------------------------------------
	 SCS Same-Spin Scale       =       0.3333333333333333 [-]
	 SCS Opposite-Spin Scale   =       1.2000000000000000 [-]
	 SCS Same-Spin Energy      =      -0.1446386238495401 [Eh]
	 SCS Opposite-Spin Energy  =      -1.5807780187791081 [Eh]
	 SCS Correlation Energy    =      -1.7254166426286481 [Eh]
	 SCS Total Energy          =    -420.1322283409692773 [Eh]
	-----------------------------------------------------------

  Dipole Moment: [D]
     X:    -0.7526      Y:    -0.0380      Z:     0.0017     Total:     0.7536

*** Psi4 exiting successfully. Buy a developer a beer!
