                               Psi4 1.3.2 release

  ==> Input File <==

--------------------------------------------------------------------------
#psi4
#
memory 32 gb

molecule  {
0 1
  O       -1.3716285     1.0738937    -0.0006594
  O       -1.4891280    -1.1679560    -0.0004790
  C       -0.1944510     0.6951560    -0.0000890
  C       -0.1944370    -0.6951450    -0.0000610
  C       -2.3278770    -0.0000160     0.0005000
  C        0.9772920     1.4300230    -0.0000060
  C        0.9772900    -1.4300260     0.0000640
  C        2.1768970     0.6987030     0.0001890
  C        2.1768990    -0.6987090     0.0002190
  H       -2.9446710     0.0000210     0.9046330
  H       -2.9467630    -0.0000130    -0.9021640
  H        0.9615330     2.5156070    -0.0000720
  H        0.9615200    -2.5156090     0.0000480
  H        3.1223520     1.2342420     0.0003040
  H        3.1223530    -1.2342490     0.0003630
units angstrom
no_reorient  #important for SAPT in psi4, default
symmetry c1  #important for SAPT in psi4, default
}

set PROPERTIES_ORIGIN ["COM"]
properties('MP2/aug-cc-pvtz', properties = ['dipole'])
--------------------------------------------------------------------------

    Molecular point group: c1
  Charge       = 0
  Multiplicity = 1
  Basis Set: AUG-CC-PVTZ
    Blend: AUG-CC-PVTZ
  Basis Set: (AUG-CC-PVTZ AUX)
    Blend: AUG-CC-PVTZ-JKFIT

    Orbital Energies [Eh]
    ---------------------

    Doubly Occupied:

       1A    -20.606434     2A    -20.600643     3A    -11.372997
       4A    -11.294321     5A    -11.286973     6A    -11.238624
       7A    -11.234528     8A    -11.231317     9A    -11.226809
      10A     -1.518568    11A     -1.392107    12A     -1.147681
      13A     -1.030055    14A     -1.016424    15A     -0.922737
      16A     -0.855052    17A     -0.837028    18A     -0.732787
      19A     -0.723754    20A     -0.716782    21A     -0.681023
      22A     -0.612737    23A     -0.604480    24A     -0.590739
      25A     -0.578204    26A     -0.556768    27A     -0.552196
      28A     -0.520788    29A     -0.494920    30A     -0.457533
      31A     -0.334038    32A     -0.288841

  @DF-RHF Final Energy:  -418.40250892142171

   => Energetics <=

    Nuclear Repulsion Energy =            431.2808852020792756
    One-Electron Energy =               -1424.8510100671735472
    Two-Electron Energy =                 575.1676159436725584
    Total Energy =                       -418.4025089214217132
  Basis Set: (AUG-CC-PVTZ AUX)
    Blend: AUG-CC-PVTZ-RI
    Molecular point group: c1

    Geometry (in Angstrom), charge = 0, multiplicity = 1:

       Center              X                  Y                   Z               Mass
    ------------   -----------------  -----------------  -----------------  -----------------
         O           -1.368645271027     1.086223486743    -0.000616132230    15.994914619570
         O           -1.486144771027    -1.155626213257    -0.000435732230    15.994914619570
         C           -0.191467771027     0.707485786743    -0.000045732230    12.000000000000
         C           -0.191453771027    -0.682815213257    -0.000017732230    12.000000000000
         C           -2.324893771027     0.012313786743     0.000543267770    12.000000000000
         C            0.980275228973     1.442352786743     0.000037267770    12.000000000000
         C            0.980273228973    -1.417696213257     0.000107267770    12.000000000000
         C            2.179880228973     0.711032786743     0.000232267770    12.000000000000
         C            2.179882228973    -0.686379213257     0.000262267770    12.000000000000
         H           -2.941687771027     0.012350786743     0.904676267770     1.007825032230
         H           -2.943779771027     0.012316786743    -0.902120732230     1.007825032230
         H            0.964516228973     2.527936786743    -0.000028732230     1.007825032230
         H            0.964503228973    -2.503279213257     0.000091267770     1.007825032230
         H            3.125335228973     1.246571786743     0.000347267770     1.007825032230
         H            3.125336228973    -1.221919213257     0.000406267770     1.007825032230

  Basis Set: AUG-CC-PVTZ
    Blend: AUG-CC-PVTZ
  Basis Set: (AUG-CC-PVTZ AUX)
    Blend: AUG-CC-PVTZ-JKFIT
	 Reference Energy          =    -418.4025089214217132 [Eh]
	 Singles Energy            =      -0.0000000000000000 [Eh]
	 Same-Spin Energy          =      -0.4341919142557213 [Eh]
	 Opposite-Spin Energy      =      -1.3139995673136591 [Eh]
	 Correlation Energy        =      -1.7481914815693804 [Eh]
	 Total Energy              =    -420.1507004029911059 [Eh]

	 ================> DF-SCS-MP2 Energies <==================
	-----------------------------------------------------------
	 SCS Same-Spin Scale       =       0.3333333333333333 [-]
	 SCS Opposite-Spin Scale   =       1.2000000000000000 [-]
	 SCS Same-Spin Energy      =      -0.1447306380852404 [Eh]
	 SCS Opposite-Spin Energy  =      -1.5767994807763908 [Eh]
	 SCS Correlation Energy    =      -1.7215301188616312 [Eh]
	 SCS Total Energy          =    -420.1240390402833214 [Eh]
	-----------------------------------------------------------

  Dipole Moment: [D]
     X:    -1.4699      Y:     0.2911      Z:     0.0017     Total:     1.4985

*** Psi4 exiting successfully. Buy a developer a beer!
