                               Psi4 1.4a3.dev225

  ==> Input File <==

--------------------------------------------------------------------------
#psi4
#
memory 32 gb

molecule  {
0 1
  O        1.4992630    -1.1582390    -0.1232700
  O        1.4992620     1.1582430    -0.1232540
  C        0.1999370    -0.6965330    -0.0341950
  C        0.1999390     0.6965360    -0.0341760
  C        2.2984698     0.0161493     0.1871254
  C       -0.9710250    -1.4315640    -0.0051560
  C       -0.9710280     1.4315630    -0.0051810
  C       -2.1692490    -0.6989180     0.0348340
  C       -2.1692490     0.6989160     0.0348440
  H        2.5314460    -0.0000080     1.2545630
  H        3.1831710     0.0000030    -0.4375930
  H       -0.9573450    -2.5171950    -0.0133180
  H       -0.9573500     2.5171940    -0.0133180
  H       -3.1144710    -1.2338350     0.0694590
  H       -3.1144730     1.2338310     0.0694330
units angstrom
no_reorient  #important for SAPT in psi4, default
symmetry c1  #important for SAPT in psi4, default
}

set PROPERTIES_ORIGIN ["COM"]
properties('MP2/aug-cc-pvtz', properties = ['dipole'])
--------------------------------------------------------------------------

    Molecular point group: c1
  Charge       = 0
  Multiplicity = 1
  Basis Set: AUG-CC-PVTZ
    Blend: AUG-CC-PVTZ
  Basis Set: (AUG-CC-PVTZ AUX)
    Blend: AUG-CC-PVTZ-JKFIT

    Orbital Energies [Eh]
    ---------------------

    Doubly Occupied:

       1A    -20.602866     2A    -20.599786     3A    -11.357807
       4A    -11.300871     5A    -11.299518     6A    -11.246482
       7A    -11.245702     8A    -11.241955     9A    -11.240729
      10A     -1.471073    11A     -1.368691    12A     -1.155088
      13A     -1.024812    14A     -1.021615    15A     -0.914088
      16A     -0.852227    17A     -0.830186    18A     -0.723803
      19A     -0.710047    20A     -0.702120    21A     -0.671690
      22A     -0.619919    23A     -0.595725    24A     -0.586637
      25A     -0.577546    26A     -0.546716    27A     -0.542895
      28A     -0.526343    29A     -0.506392    30A     -0.462399
      31A     -0.343039    32A     -0.308872

  @DF-RHF Final Energy:  -418.41777460345355

   => Energetics <=

    Nuclear Repulsion Energy =            426.9585060024210748
    One-Electron Energy =               -1416.3572844080806590
    Two-Electron Energy =                 570.9810038022061462
    Total Energy =                       -418.4177746034534948
  Basis Set: (AUG-CC-PVTZ AUX)
    Blend: AUG-CC-PVTZ-RI
    Molecular point group: c1

    Geometry (in Angstrom), charge = 0, multiplicity = 1:

       Center              X                  Y                   Z               Mass
    ------------   -----------------  -----------------  -----------------  -----------------
         O            1.478558915576    -1.159827418691    -0.116145194574    15.994914619570
         O            1.478557915576     1.156654581309    -0.116129194574    15.994914619570
         C            0.179232915576    -0.698121418691    -0.027070194574    12.000000000000
         C            0.179234915576     0.694947581309    -0.027051194574    12.000000000000
         C            2.277765715576     0.014560881309     0.194250205426    12.000000000000
         C           -0.991729084424    -1.433152418691     0.001968805426    12.000000000000
         C           -0.991732084424     1.429974581309     0.001943805426    12.000000000000
         C           -2.189953084424    -0.700506418691     0.041958805426    12.000000000000
         C           -2.189953084424     0.697327581309     0.041968805426    12.000000000000
         H            2.510741915576    -0.001596418691     1.261687805426     1.007825032230
         H            3.162466915576    -0.001585418691    -0.430468194574     1.007825032230
         H           -0.978049084424    -2.518783418691    -0.006193194574     1.007825032230
         H           -0.978054084424     2.515605581309    -0.006193194574     1.007825032230
         H           -3.135175084424    -1.235423418691     0.076583805426     1.007825032230
         H           -3.135177084424     1.232242581309     0.076557805426     1.007825032230

  Basis Set: AUG-CC-PVTZ
    Blend: AUG-CC-PVTZ
  Basis Set: (AUG-CC-PVTZ AUX)
    Blend: AUG-CC-PVTZ-JKFIT
	 Reference Energy          =    -418.4177746034535517 [Eh]
	 Singles Energy            =      -0.0000000000000000 [Eh]
	 Same-Spin Energy          =      -0.4348647510206505 [Eh]
	 Opposite-Spin Energy      =      -1.3176824894259640 [Eh]
	 Correlation Energy        =      -1.7525472404466145 [Eh]
	 Total Energy              =    -420.1703218439001830 [Eh]

	 ================> DF-SCS-MP2 Energies <==================
	-----------------------------------------------------------
	 SCS Same-Spin Scale       =       0.3333333333333333 [-]
	 SCS Opposite-Spin Scale   =       1.2000000000000000 [-]
	 SCS Same-Spin Energy      =      -0.1449549170068835 [Eh]
	 SCS Opposite-Spin Energy  =      -1.5812189873111568 [Eh]
	 SCS Correlation Energy    =      -1.7261739043180404 [Eh]
	 SCS Total Energy          =    -420.1439485077715972 [Eh]
	-----------------------------------------------------------

  Dipole Moment: [D]
     X:     0.2460      Y:     0.0524      Z:     0.5666     Total:     0.6199

*** Psi4 exiting successfully. Buy a developer a beer!
