                               Psi4 1.3.2 release

  ==> Input File <==

--------------------------------------------------------------------------
#psi4
#
memory 32 gb

molecule  {
0 1
  O       -1.4891210     1.1679660    -0.0005210
  O       -1.4891280    -1.1679560    -0.0004790
  C       -0.2028999     0.6726329    -0.0000692
  C       -0.1944370    -0.6951450    -0.0000610
  C       -2.3278770    -0.0000160     0.0005000
  C        0.9772920     1.4300230    -0.0000060
  C        0.9772900    -1.4300260     0.0000640
  C        2.1768970     0.6987030     0.0001890
  C        2.1768990    -0.6987090     0.0002190
  H       -2.9446710     0.0000210     0.9046330
  H       -2.9467630    -0.0000130    -0.9021640
  H        0.9615330     2.5156070    -0.0000720
  H        0.9615200    -2.5156090     0.0000480
  H        3.1223520     1.2342420     0.0003040
  H        3.1223530    -1.2342490     0.0003630
units angstrom
no_reorient  #important for SAPT in psi4, default
symmetry c1  #important for SAPT in psi4, default
}

set PROPERTIES_ORIGIN ["COM"]
properties('MP2/aug-cc-pvtz', properties = ['dipole'])
--------------------------------------------------------------------------

    Molecular point group: c1
  Charge       = 0
  Multiplicity = 1
  Basis Set: AUG-CC-PVTZ
    Blend: AUG-CC-PVTZ
  Basis Set: (AUG-CC-PVTZ AUX)
    Blend: AUG-CC-PVTZ-JKFIT

    Orbital Energies [Eh]
    ---------------------

    Doubly Occupied:

       1A    -20.602327     2A    -20.600945     3A    -11.357610
       4A    -11.299673     5A    -11.297491     6A    -11.247374
       7A    -11.245976     8A    -11.241072     9A    -11.239865
      10A     -1.472530    11A     -1.371861    12A     -1.155402
      13A     -1.025446    14A     -1.021350    15A     -0.912891
      16A     -0.855073    17A     -0.831169    18A     -0.714816
      19A     -0.713084    20A     -0.703277    21A     -0.674945
      22A     -0.617767    23A     -0.594718    24A     -0.587979
      25A     -0.565532    26A     -0.555379    27A     -0.549910
      28A     -0.528815    29A     -0.509795    30A     -0.458338
      31A     -0.339819    32A     -0.307191

  @DF-RHF Final Energy:  -418.41763532635468

   => Energetics <=

    Nuclear Repulsion Energy =            426.7857634332680732
    One-Electron Energy =               -1416.0079562921496290
    Two-Electron Energy =                 570.8045575325268146
    Total Energy =                       -418.4176353263546844
  Basis Set: (AUG-CC-PVTZ AUX)
    Blend: AUG-CC-PVTZ-RI
    Molecular point group: c1

    Geometry (in Angstrom), charge = 0, multiplicity = 1:

       Center              X                  Y                   Z               Mass
    ------------   -----------------  -----------------  -----------------  -----------------
         O           -1.469907669617     1.170180793441    -0.000497818766    15.994914619570
         O           -1.469914669617    -1.165741206559    -0.000455818766    15.994914619570
         C           -0.183686569617     0.674847693441    -0.000046018766    12.000000000000
         C           -0.175223669617    -0.692930206559    -0.000037818766    12.000000000000
         C           -2.308663669617     0.002198793441     0.000523181234    12.000000000000
         C            0.996505330383     1.432237793441     0.000017181234    12.000000000000
         C            0.996503330383    -1.427811206559     0.000087181234    12.000000000000
         C            2.196110330383     0.700917793441     0.000212181234    12.000000000000
         C            2.196112330383    -0.696494206559     0.000242181234    12.000000000000
         H           -2.925457669617     0.002235793441     0.904656181234     1.007825032230
         H           -2.927549669617     0.002201793441    -0.902140818766     1.007825032230
         H            0.980746330383     2.517821793441    -0.000048818766     1.007825032230
         H            0.980733330383    -2.513394206559     0.000071181234     1.007825032230
         H            3.141565330383     1.236456793441     0.000327181234     1.007825032230
         H            3.141566330383    -1.232034206559     0.000386181234     1.007825032230

  Basis Set: AUG-CC-PVTZ
    Blend: AUG-CC-PVTZ
  Basis Set: (AUG-CC-PVTZ AUX)
    Blend: AUG-CC-PVTZ-JKFIT
	 Reference Energy          =    -418.4176353263546844 [Eh]
	 Singles Energy            =      -0.0000000000000000 [Eh]
	 Same-Spin Energy          =      -0.4343968293259474 [Eh]
	 Opposite-Spin Energy      =      -1.3168639332983558 [Eh]
	 Correlation Energy        =      -1.7512607626243033 [Eh]
	 Total Energy              =    -420.1688960889790110 [Eh]

	 ================> DF-SCS-MP2 Energies <==================
	-----------------------------------------------------------
	 SCS Same-Spin Scale       =       0.3333333333333333 [-]
	 SCS Opposite-Spin Scale   =       1.2000000000000000 [-]
	 SCS Same-Spin Energy      =      -0.1447989431086491 [Eh]
	 SCS Opposite-Spin Energy  =      -1.5802367199580269 [Eh]
	 SCS Correlation Energy    =      -1.7250356630666761 [Eh]
	 SCS Total Energy          =    -420.1426709894213332 [Eh]
	-----------------------------------------------------------

  Dipole Moment: [D]
     X:    -0.3724      Y:     0.0008      Z:     0.0017     Total:     0.3724

*** Psi4 exiting successfully. Buy a developer a beer!
