                               Psi4 1.3.2 release

  ==> Input File <==

--------------------------------------------------------------------------
#psi4
#
memory 32 gb

molecule  {
0 1
  O       -1.4891210     1.1679660    -0.0005210
  O       -1.4891280    -1.1679560    -0.0004790
  C       -0.1646232     0.7866193    -0.0001694
  C       -0.1944370    -0.6951450    -0.0000610
  C       -2.3278770    -0.0000160     0.0005000
  C        0.9772920     1.4300230    -0.0000060
  C        0.9772900    -1.4300260     0.0000640
  C        2.1768970     0.6987030     0.0001890
  C        2.1768990    -0.6987090     0.0002190
  H       -2.9446710     0.0000210     0.9046330
  H       -2.9467630    -0.0000130    -0.9021640
  H        0.9615330     2.5156070    -0.0000720
  H        0.9615200    -2.5156090     0.0000480
  H        3.1223520     1.2342420     0.0003040
  H        3.1223530    -1.2342490     0.0003630
units angstrom
no_reorient  #important for SAPT in psi4, default
symmetry c1  #important for SAPT in psi4, default
}

set PROPERTIES_ORIGIN ["COM"]
properties('MP2/aug-cc-pvtz', properties = ['dipole'])
--------------------------------------------------------------------------

    Molecular point group: c1
  Charge       = 0
  Multiplicity = 1
  Basis Set: AUG-CC-PVTZ
    Blend: AUG-CC-PVTZ
  Basis Set: (AUG-CC-PVTZ AUX)
    Blend: AUG-CC-PVTZ-JKFIT

    Orbital Energies [Eh]
    ---------------------

    Doubly Occupied:

       1A    -20.607422     2A    -20.602473     3A    -11.362226
       4A    -11.310565     5A    -11.304645     6A    -11.240837
       7A    -11.239577     8A    -11.237996     9A    -11.234805
      10A     -1.469530    11A     -1.374703    12A     -1.155020
      13A     -1.034968    14A     -1.016488    15A     -0.913837
      16A     -0.840815    17A     -0.834450    18A     -0.715014
      19A     -0.714970    20A     -0.708386    21A     -0.678559
      22A     -0.621377    23A     -0.599183    24A     -0.578976
      25A     -0.570252    26A     -0.555663    27A     -0.548179
      28A     -0.532759    29A     -0.490715    30A     -0.458987
      31A     -0.351785    32A     -0.297886

  @DF-RHF Final Energy:  -418.40603947109383

   => Energetics <=

    Nuclear Repulsion Energy =            425.6586863904821030
    One-Electron Energy =               -1413.7233502031608623
    Two-Electron Energy =                 569.6586243415849822
    Total Energy =                       -418.4060394710937771
  Basis Set: (AUG-CC-PVTZ AUX)
    Blend: AUG-CC-PVTZ-RI
    Molecular point group: c1

    Geometry (in Angstrom), charge = 0, multiplicity = 1:

       Center              X                  Y                   Z               Mass
    ------------   -----------------  -----------------  -----------------  -----------------
         O           -1.473671456257     1.158972395396    -0.000487965999    15.994914619570
         O           -1.473678456257    -1.176949604604    -0.000445965999    15.994914619570
         C           -0.149173656257     0.777625695396    -0.000136365999    12.000000000000
         C           -0.178987456257    -0.704138604604    -0.000027965999    12.000000000000
         C           -2.312427456257    -0.009009604604     0.000533034001    12.000000000000
         C            0.992741543743     1.421029395396     0.000027034001    12.000000000000
         C            0.992739543743    -1.439019604604     0.000097034001    12.000000000000
         C            2.192346543743     0.689709395396     0.000222034001    12.000000000000
         C            2.192348543743    -0.707702604604     0.000252034001    12.000000000000
         H           -2.929221456257    -0.008972604604     0.904666034001     1.007825032230
         H           -2.931313456257    -0.009006604604    -0.902130965999     1.007825032230
         H            0.976982543743     2.506613395396    -0.000038965999     1.007825032230
         H            0.976969543743    -2.524602604604     0.000081034001     1.007825032230
         H            3.137801543743     1.225248395396     0.000337034001     1.007825032230
         H            3.137802543743    -1.243242604604     0.000396034001     1.007825032230

  Basis Set: AUG-CC-PVTZ
    Blend: AUG-CC-PVTZ
  Basis Set: (AUG-CC-PVTZ AUX)
    Blend: AUG-CC-PVTZ-JKFIT
	 Reference Energy          =    -418.4060394710938340 [Eh]
	 Singles Energy            =      -0.0000000000000000 [Eh]
	 Same-Spin Energy          =      -0.4337315040695927 [Eh]
	 Opposite-Spin Energy      =      -1.3173830779959093 [Eh]
	 Correlation Energy        =      -1.7511145820655019 [Eh]
	 Total Energy              =    -420.1571540531593314 [Eh]

	 ================> DF-SCS-MP2 Energies <==================
	-----------------------------------------------------------
	 SCS Same-Spin Scale       =       0.3333333333333333 [-]
	 SCS Opposite-Spin Scale   =       1.2000000000000000 [-]
	 SCS Same-Spin Energy      =      -0.1445771680231976 [Eh]
	 SCS Opposite-Spin Energy  =      -1.5808596935950912 [Eh]
	 SCS Correlation Energy    =      -1.7254368616182887 [Eh]
	 SCS Total Energy          =    -420.1314763327121113 [Eh]
	-----------------------------------------------------------

  Dipole Moment: [D]
     X:    -0.5559      Y:     0.0055      Z:     0.0017     Total:     0.5559

*** Psi4 exiting successfully. Buy a developer a beer!
