                               Psi4 1.3.2 release

  ==> Input File <==

--------------------------------------------------------------------------
#psi4
#
memory 32 gb

molecule  {
0 1
  O       -1.4891210     1.1679660    -0.0005210
  O       -1.4891280    -1.1679560    -0.0004790
  C       -0.1944510     0.6951560    -0.0000890
  C       -0.1944370    -0.6951450    -0.0000610
  C       -2.3278770    -0.0000160     0.0005000
  C        0.9772920     1.4300230    -0.0000060
  C        0.9772900    -1.4300260     0.0000640
  C        2.1768970     0.6987030     0.0001890
  C        2.1768990    -0.6987090     0.0002190
  H       -2.9446710     0.0000210     0.9046330
  H       -2.9467630    -0.0000130    -0.9021640
  H        0.9615330     2.5156070    -0.0000720
  H        0.9615200    -2.5156090     0.0000480
  H        3.1223520     1.2342420     0.0003040
  H        3.1223530    -1.2342490     0.0003630
units angstrom
no_reorient  #important for SAPT in psi4, default
symmetry c1  #important for SAPT in psi4, default
}

set PROPERTIES_ORIGIN ["COM"]
properties('MP2/aug-cc-pvtz', properties = ['dipole'])
--------------------------------------------------------------------------

    Molecular point group: c1
  Charge       = 0
  Multiplicity = 1
  Basis Set: AUG-CC-PVTZ
    Blend: AUG-CC-PVTZ
  Basis Set: (AUG-CC-PVTZ AUX)
    Blend: AUG-CC-PVTZ-JKFIT

    Orbital Energies [Eh]
    ---------------------

    Doubly Occupied:

       1A    -20.602368     2A    -20.602348     3A    -11.358525
       4A    -11.301378     5A    -11.300118     6A    -11.244968
       7A    -11.244965     8A    -11.240664     9A    -11.239472
      10A     -1.471890    11A     -1.372484    12A     -1.155090
      13A     -1.024029    14A     -1.023306    15A     -0.912797
      16A     -0.852003    17A     -0.832710    18A     -0.714797
      19A     -0.712270    20A     -0.705269    21A     -0.675710
      22A     -0.618621    23A     -0.594428    24A     -0.587301
      25A     -0.566426    26A     -0.555637    27A     -0.549468
      28A     -0.529776    29A     -0.507004    30A     -0.458469
      31A     -0.341855    32A     -0.305166

  @DF-RHF Final Energy:  -418.41844638859368

   => Energetics <=

    Nuclear Repulsion Energy =            426.5480760158486646
    One-Electron Energy =               -1415.5304178775470518
    Two-Electron Energy =                 570.5638954731047079
    Total Energy =                       -418.4184463885936793
  Basis Set: (AUG-CC-PVTZ AUX)
    Blend: AUG-CC-PVTZ-RI
    Molecular point group: c1

    Geometry (in Angstrom), charge = 0, multiplicity = 1:

       Center              X                  Y                   Z               Mass
    ------------   -----------------  -----------------  -----------------  -----------------
         O           -1.470738458502     1.167966074229    -0.000495871812    15.994914619570
         O           -1.470745458502    -1.167955925771    -0.000453871812    15.994914619570
         C           -0.176068458502     0.695156074229    -0.000063871812    12.000000000000
         C           -0.176054458502    -0.695144925771    -0.000035871812    12.000000000000
         C           -2.309494458502    -0.000015925771     0.000525128188    12.000000000000
         C            0.995674541498     1.430023074229     0.000019128188    12.000000000000
         C            0.995672541498    -1.430025925771     0.000089128188    12.000000000000
         C            2.195279541498     0.698703074229     0.000214128188    12.000000000000
         C            2.195281541498    -0.698708925771     0.000244128188    12.000000000000
         H           -2.926288458502     0.000021074229     0.904658128188     1.007825032230
         H           -2.928380458502    -0.000012925771    -0.902138871812     1.007825032230
         H            0.979915541498     2.515607074229    -0.000046871812     1.007825032230
         H            0.979902541498    -2.515608925771     0.000073128188     1.007825032230
         H            3.140734541498     1.234242074229     0.000329128188     1.007825032230
         H            3.140735541498    -1.234248925771     0.000388128188     1.007825032230

  Basis Set: AUG-CC-PVTZ
    Blend: AUG-CC-PVTZ
  Basis Set: (AUG-CC-PVTZ AUX)
    Blend: AUG-CC-PVTZ-JKFIT
	 Reference Energy          =    -418.4184463885936793 [Eh]
	 Singles Energy            =      -0.0000000000000000 [Eh]
	 Same-Spin Energy          =      -0.4343374546206339 [Eh]
	 Opposite-Spin Energy      =      -1.3168792878925930 [Eh]
	 Correlation Energy        =      -1.7512167425132270 [Eh]
	 Total Energy              =    -420.1696631311069154 [Eh]

	 ================> DF-SCS-MP2 Energies <==================
	-----------------------------------------------------------
	 SCS Same-Spin Scale       =       0.3333333333333333 [-]
	 SCS Opposite-Spin Scale   =       1.2000000000000000 [-]
	 SCS Same-Spin Energy      =      -0.1447791515402113 [Eh]
	 SCS Opposite-Spin Energy  =      -1.5802551454711116 [Eh]
	 SCS Correlation Energy    =      -1.7250342970113228 [Eh]
	 SCS Total Energy          =    -420.1434806856050272 [Eh]
	-----------------------------------------------------------

  Dipole Moment: [D]
     X:    -0.4119      Y:    -0.0001      Z:     0.0017     Total:     0.4119

*** Psi4 exiting successfully. Buy a developer a beer!
