                               Psi4 1.3.2 release

  ==> Input File <==

--------------------------------------------------------------------------
#psi4
#
memory 32 gb

molecule  {
0 1
  O       -1.4891210     1.1679660    -0.0005210
  O       -1.4891280    -1.1679560    -0.0004790
  C       -0.1005188     0.6608522    -0.0000577
  C       -0.1944370    -0.6951450    -0.0000610
  C       -2.3278770    -0.0000160     0.0005000
  C        0.9772920     1.4300230    -0.0000060
  C        0.9772900    -1.4300260     0.0000640
  C        2.1768970     0.6987030     0.0001890
  C        2.1768990    -0.6987090     0.0002190
  H       -2.9446710     0.0000210     0.9046330
  H       -2.9467630    -0.0000130    -0.9021640
  H        0.9615330     2.5156070    -0.0000720
  H        0.9615200    -2.5156090     0.0000480
  H        3.1223520     1.2342420     0.0003040
  H        3.1223530    -1.2342490     0.0003630
units angstrom
no_reorient  #important for SAPT in psi4, default
symmetry c1  #important for SAPT in psi4, default
}

set PROPERTIES_ORIGIN ["COM"]
properties('MP2/aug-cc-pvtz', properties = ['dipole'])
--------------------------------------------------------------------------

    Molecular point group: c1
  Charge       = 0
  Multiplicity = 1
  Basis Set: AUG-CC-PVTZ
    Blend: AUG-CC-PVTZ
  Basis Set: (AUG-CC-PVTZ AUX)
    Blend: AUG-CC-PVTZ-JKFIT

    Orbital Energies [Eh]
    ---------------------

    Doubly Occupied:

       1A    -20.603419     2A    -20.587114     3A    -11.350711
       4A    -11.303061     5A    -11.295348     6A    -11.247604
       7A    -11.244953     8A    -11.244454     9A    -11.243094
      10A     -1.455075    11A     -1.346651    12A     -1.170776
      13A     -1.036080    14A     -1.024781    15A     -0.906885
      16A     -0.857503    17A     -0.830178    18A     -0.713294
      19A     -0.705022    20A     -0.695409    21A     -0.672756
      22A     -0.630209    23A     -0.594558    24A     -0.583188
      25A     -0.558318    26A     -0.546208    27A     -0.540145
      28A     -0.531959    29A     -0.510694    30A     -0.456550
      31A     -0.351106    32A     -0.314977

  @DF-RHF Final Energy:  -418.40623129676578

   => Energetics <=

    Nuclear Repulsion Energy =            426.6613696080049749
    One-Electron Energy =               -1415.8310380099105714
    Two-Electron Energy =                 570.7634371051398148
    Total Energy =                       -418.4062312967657817
  Basis Set: (AUG-CC-PVTZ AUX)
    Blend: AUG-CC-PVTZ-RI
    Molecular point group: c1

    Geometry (in Angstrom), charge = 0, multiplicity = 1:

       Center              X                  Y                   Z               Mass
    ------------   -----------------  -----------------  -----------------  -----------------
         O           -1.479974906770     1.171339201592    -0.000498949573    15.994914619570
         O           -1.479981906770    -1.164582798408    -0.000456949573    15.994914619570
         C           -0.091372706770     0.664225401592    -0.000035649573    12.000000000000
         C           -0.185290906770    -0.691771798408    -0.000038949573    12.000000000000
         C           -2.318730906770     0.003357201592     0.000522050427    12.000000000000
         C            0.986438093230     1.433396201592     0.000016050427    12.000000000000
         C            0.986436093230    -1.426652798408     0.000086050427    12.000000000000
         C            2.186043093230     0.702076201592     0.000211050427    12.000000000000
         C            2.186045093230    -0.695335798408     0.000241050427    12.000000000000
         H           -2.935524906770     0.003394201592     0.904655050427     1.007825032230
         H           -2.937616906770     0.003360201592    -0.902141949573     1.007825032230
         H            0.970679093230     2.518980201592    -0.000049949573     1.007825032230
         H            0.970666093230    -2.512235798408     0.000070050427     1.007825032230
         H            3.131498093230     1.237615201592     0.000326050427     1.007825032230
         H            3.131499093230    -1.230875798408     0.000385050427     1.007825032230

  Basis Set: AUG-CC-PVTZ
    Blend: AUG-CC-PVTZ
  Basis Set: (AUG-CC-PVTZ AUX)
    Blend: AUG-CC-PVTZ-JKFIT
	 Reference Energy          =    -418.4062312967657817 [Eh]
	 Singles Energy            =      -0.0000000000000000 [Eh]
	 Same-Spin Energy          =      -0.4346239886142249 [Eh]
	 Opposite-Spin Energy      =      -1.3181663720405079 [Eh]
	 Correlation Energy        =      -1.7527903606547328 [Eh]
	 Total Energy              =    -420.1590216574205101 [Eh]

	 ================> DF-SCS-MP2 Energies <==================
	-----------------------------------------------------------
	 SCS Same-Spin Scale       =       0.3333333333333333 [-]
	 SCS Opposite-Spin Scale   =       1.2000000000000000 [-]
	 SCS Same-Spin Energy      =      -0.1448746628714083 [Eh]
	 SCS Opposite-Spin Energy  =      -1.5817996464486095 [Eh]
	 SCS Correlation Energy    =      -1.7266743093200179 [Eh]
	 SCS Total Energy          =    -420.1329056060857852 [Eh]
	-----------------------------------------------------------

  Dipole Moment: [D]
     X:     0.1668      Y:    -0.0966      Z:     0.0019     Total:     0.1927

*** Psi4 exiting successfully. Buy a developer a beer!
