                               Psi4 1.3.2 release

  ==> Input File <==

--------------------------------------------------------------------------
#psi4
#
memory 32 gb

molecule  {
0 1
  O       -1.4891210     1.1679660    -0.0005210
  O       -1.4891280    -1.1679560    -0.0004790
  C       -0.2883832     0.7294598    -0.0001203
  C       -0.1944370    -0.6951450    -0.0000610
  C       -2.3278770    -0.0000160     0.0005000
  C        0.9772920     1.4300230    -0.0000060
  C        0.9772900    -1.4300260     0.0000640
  C        2.1768970     0.6987030     0.0001890
  C        2.1768990    -0.6987090     0.0002190
  H       -2.9446710     0.0000210     0.9046330
  H       -2.9467630    -0.0000130    -0.9021640
  H        0.9615330     2.5156070    -0.0000720
  H        0.9615200    -2.5156090     0.0000480
  H        3.1223520     1.2342420     0.0003040
  H        3.1223530    -1.2342490     0.0003630
units angstrom
no_reorient  #important for SAPT in psi4, default
symmetry c1  #important for SAPT in psi4, default
}

set PROPERTIES_ORIGIN ["COM"]
properties('MP2/aug-cc-pvtz', properties = ['dipole'])
--------------------------------------------------------------------------

    Molecular point group: c1
  Charge       = 0
  Multiplicity = 1
  Basis Set: AUG-CC-PVTZ
    Blend: AUG-CC-PVTZ
  Basis Set: (AUG-CC-PVTZ AUX)
    Blend: AUG-CC-PVTZ-JKFIT

    Orbital Energies [Eh]
    ---------------------

    Doubly Occupied:

       1A    -20.619372     2A    -20.601712     3A    -11.367553
       4A    -11.310298     5A    -11.298308     6A    -11.244187
       7A    -11.242476     8A    -11.237086     9A    -11.233504
      10A     -1.504838    11A     -1.395079    12A     -1.141038
      13A     -1.023840    14A     -1.013145    15A     -0.919855
      16A     -0.848685    17A     -0.836846    18A     -0.728792
      19A     -0.719995    20A     -0.714337    21A     -0.676952
      22A     -0.611085    23A     -0.603454    24A     -0.586312
      25A     -0.578977    26A     -0.568867    27A     -0.549027
      28A     -0.527290    29A     -0.491493    30A     -0.457827
      31A     -0.334474    32A     -0.291340

  @DF-RHF Final Energy:  -418.40495105880791

   => Energetics <=

    Nuclear Repulsion Energy =            426.6418728043574333
    One-Electron Energy =               -1415.5375572386183194
    Two-Electron Energy =                 570.4907333754529191
    Total Energy =                       -418.4049510588079102
  Basis Set: (AUG-CC-PVTZ AUX)
    Blend: AUG-CC-PVTZ-RI
    Molecular point group: c1

    Geometry (in Angstrom), charge = 0, multiplicity = 1:

       Center              X                  Y                   Z               Mass
    ------------   -----------------  -----------------  -----------------  -----------------
         O           -1.461502010235     1.164592946866    -0.000492794051    15.994914619570
         O           -1.461509010235    -1.171329053134    -0.000450794051    15.994914619570
         C           -0.260764210235     0.726086746866    -0.000092094051    12.000000000000
         C           -0.166818010235    -0.698518053134    -0.000032794051    12.000000000000
         C           -2.300258010235    -0.003389053134     0.000528205949    12.000000000000
         C            1.004910989765     1.426649946866     0.000022205949    12.000000000000
         C            1.004908989765    -1.433399053134     0.000092205949    12.000000000000
         C            2.204515989765     0.695329946866     0.000217205949    12.000000000000
         C            2.204517989765    -0.702082053134     0.000247205949    12.000000000000
         H           -2.917052010235    -0.003352053134     0.904661205949     1.007825032230
         H           -2.919144010235    -0.003386053134    -0.902135794051     1.007825032230
         H            0.989151989765     2.512233946866    -0.000043794051     1.007825032230
         H            0.989138989765    -2.518982053134     0.000076205949     1.007825032230
         H            3.149970989765     1.230868946866     0.000332205949     1.007825032230
         H            3.149971989765    -1.237622053134     0.000391205949     1.007825032230

  Basis Set: AUG-CC-PVTZ
    Blend: AUG-CC-PVTZ
  Basis Set: (AUG-CC-PVTZ AUX)
    Blend: AUG-CC-PVTZ-JKFIT
	 Reference Energy          =    -418.4049510588079102 [Eh]
	 Singles Energy            =      -0.0000000000000000 [Eh]
	 Same-Spin Energy          =      -0.4349725687574020 [Eh]
	 Opposite-Spin Energy      =      -1.3171693701985374 [Eh]
	 Correlation Energy        =      -1.7521419389559394 [Eh]
	 Total Energy              =    -420.1570929977638684 [Eh]

	 ================> DF-SCS-MP2 Energies <==================
	-----------------------------------------------------------
	 SCS Same-Spin Scale       =       0.3333333333333333 [-]
	 SCS Opposite-Spin Scale   =       1.2000000000000000 [-]
	 SCS Same-Spin Energy      =      -0.1449908562524673 [Eh]
	 SCS Opposite-Spin Energy  =      -1.5806032442382449 [Eh]
	 SCS Correlation Energy    =      -1.7255941004907123 [Eh]
	 SCS Total Energy          =    -420.1305451592986060 [Eh]
	-----------------------------------------------------------

  Dipole Moment: [D]
     X:    -1.0825      Y:     0.1325      Z:     0.0015     Total:     1.0906

*** Psi4 exiting successfully. Buy a developer a beer!
