                               Psi4 1.3.2 release

  ==> Input File <==

--------------------------------------------------------------------------
#psi4
#
memory 32 gb

molecule  {
0 1
  O       -1.4891210     1.1679660    -0.0005210
  O       -1.4891280    -1.1679560    -0.0004790
  C       -0.1944510     0.6951560    -0.0000890
  C       -0.1944370    -0.6951450    -0.0000610
  C       -2.3862071    -0.0812416     0.0005710
  C        0.9772920     1.4300230    -0.0000060
  C        0.9772900    -1.4300260     0.0000640
  C        2.1768970     0.6987030     0.0001890
  C        2.1768990    -0.6987090     0.0002190
  H       -2.9446710     0.0000210     0.9046330
  H       -2.9467630    -0.0000130    -0.9021640
  H        0.9615330     2.5156070    -0.0000720
  H        0.9615200    -2.5156090     0.0000480
  H        3.1223520     1.2342420     0.0003040
  H        3.1223530    -1.2342490     0.0003630
units angstrom
no_reorient  #important for SAPT in psi4, default
symmetry c1  #important for SAPT in psi4, default
}

set PROPERTIES_ORIGIN ["COM"]
properties('MP2/aug-cc-pvtz', properties = ['dipole'])
--------------------------------------------------------------------------

    Molecular point group: c1
  Charge       = 0
  Multiplicity = 1
  Basis Set: AUG-CC-PVTZ
    Blend: AUG-CC-PVTZ
  Basis Set: (AUG-CC-PVTZ AUX)
    Blend: AUG-CC-PVTZ-JKFIT

    Orbital Energies [Eh]
    ---------------------

    Doubly Occupied:

       1A    -20.605871     2A    -20.590701     3A    -11.362713
       4A    -11.300159     5A    -11.296495     6A    -11.244683
       7A    -11.241069     8A    -11.238797     9A    -11.237112
      10A     -1.463055    11A     -1.357920    12A     -1.152509
      13A     -1.025961    14A     -1.018516    15A     -0.919564
      16A     -0.847828    17A     -0.827507    18A     -0.720053
      19A     -0.706970    20A     -0.704074    21A     -0.675793
      22A     -0.616683    23A     -0.596681    24A     -0.584044
      25A     -0.560345    26A     -0.558935    27A     -0.538093
      28A     -0.525084    29A     -0.502903    30A     -0.461788
      31A     -0.339731    32A     -0.303094

  @DF-RHF Final Energy:  -418.41026632404589

   => Energetics <=

    Nuclear Repulsion Energy =            425.2082075185985559
    One-Electron Energy =               -1412.9874841868186195
    Two-Electron Energy =                 569.3690103441741712
    Total Energy =                       -418.4102663240458924
  Basis Set: (AUG-CC-PVTZ AUX)
    Blend: AUG-CC-PVTZ-RI
    Molecular point group: c1

    Geometry (in Angstrom), charge = 0, multiplicity = 1:

       Center              X                  Y                   Z               Mass
    ------------   -----------------  -----------------  -----------------  -----------------
         O           -1.465002800750     1.175953069662    -0.000502853314    15.994914619570
         O           -1.465009800750    -1.159968930338    -0.000460853314    15.994914619570
         C           -0.170332800750     0.703143069662    -0.000070853314    12.000000000000
         C           -0.170318800750    -0.687157930338    -0.000042853314    12.000000000000
         C           -2.362088900750    -0.073254530338     0.000589146686    12.000000000000
         C            1.001410199250     1.438010069662     0.000012146686    12.000000000000
         C            1.001408199250    -1.422038930338     0.000082146686    12.000000000000
         C            2.201015199250     0.706690069662     0.000207146686    12.000000000000
         C            2.201017199250    -0.690721930338     0.000237146686    12.000000000000
         H           -2.920552800750     0.008008069662     0.904651146686     1.007825032230
         H           -2.922644800750     0.007974069662    -0.902145853314     1.007825032230
         H            0.985651199250     2.523594069662    -0.000053853314     1.007825032230
         H            0.985638199250    -2.507621930338     0.000066146686     1.007825032230
         H            3.146470199250     1.242229069662     0.000322146686     1.007825032230
         H            3.146471199250    -1.226261930338     0.000381146686     1.007825032230

  Basis Set: AUG-CC-PVTZ
    Blend: AUG-CC-PVTZ
  Basis Set: (AUG-CC-PVTZ AUX)
    Blend: AUG-CC-PVTZ-JKFIT
	 Reference Energy          =    -418.4102663240458924 [Eh]
	 Singles Energy            =      -0.0000000000000000 [Eh]
	 Same-Spin Energy          =      -0.4346010832447875 [Eh]
	 Opposite-Spin Energy      =      -1.3180108958139283 [Eh]
	 Correlation Energy        =      -1.7526119790587158 [Eh]
	 Total Energy              =    -420.1628783031046055 [Eh]

	 ================> DF-SCS-MP2 Energies <==================
	-----------------------------------------------------------
	 SCS Same-Spin Scale       =       0.3333333333333333 [-]
	 SCS Opposite-Spin Scale   =       1.2000000000000000 [-]
	 SCS Same-Spin Energy      =      -0.1448670277482625 [Eh]
	 SCS Opposite-Spin Energy  =      -1.5816130749767139 [Eh]
	 SCS Correlation Energy    =      -1.7264801027249763 [Eh]
	 SCS Total Energy          =    -420.1367464267708556 [Eh]
	-----------------------------------------------------------

  Dipole Moment: [D]
     X:    -0.7233      Y:    -0.2550      Z:     0.0021     Total:     0.7669

*** Psi4 exiting successfully. Buy a developer a beer!
