                               Psi4 1.3.2 release

  ==> Input File <==

--------------------------------------------------------------------------
#psi4
#
memory 32 gb

molecule  {
0 1
  O       -1.4806721     1.1904891    -0.0005187
  O       -1.4891280    -1.1679560    -0.0004790
  C       -0.1944510     0.6951560    -0.0000890
  C       -0.1944370    -0.6951450    -0.0000610
  C       -2.3278770    -0.0000160     0.0005000
  C        0.9772920     1.4300230    -0.0000060
  C        0.9772900    -1.4300260     0.0000640
  C        2.1768970     0.6987030     0.0001890
  C        2.1768990    -0.6987090     0.0002190
  H       -2.9446710     0.0000210     0.9046330
  H       -2.9467630    -0.0000130    -0.9021640
  H        0.9615330     2.5156070    -0.0000720
  H        0.9615200    -2.5156090     0.0000480
  H        3.1223520     1.2342420     0.0003040
  H        3.1223530    -1.2342490     0.0003630
units angstrom
no_reorient  #important for SAPT in psi4, default
symmetry c1  #important for SAPT in psi4, default
}

set PROPERTIES_ORIGIN ["COM"]
properties('MP2/aug-cc-pvtz', properties = ['dipole'])
--------------------------------------------------------------------------

    Molecular point group: c1
  Charge       = 0
  Multiplicity = 1
  Basis Set: AUG-CC-PVTZ
    Blend: AUG-CC-PVTZ
  Basis Set: (AUG-CC-PVTZ AUX)
    Blend: AUG-CC-PVTZ-JKFIT

    Orbital Energies [Eh]
    ---------------------

    Doubly Occupied:

       1A    -20.603698     2A    -20.602962     3A    -11.360633
       4A    -11.301240     5A    -11.299577     6A    -11.245099
       7A    -11.243955     8A    -11.240356     9A    -11.239165
      10A     -1.467860    11A     -1.371456    12A     -1.154330
      13A     -1.023743    14A     -1.021577    15A     -0.913517
      16A     -0.851985    17A     -0.831315    18A     -0.712712
      19A     -0.711332    20A     -0.702857    21A     -0.675200
      22A     -0.618187    23A     -0.594046    24A     -0.586020
      25A     -0.566461    26A     -0.556060    27A     -0.550309
      28A     -0.528976    29A     -0.507101    30A     -0.459183
      31A     -0.341409    32A     -0.305326

  @DF-RHF Final Energy:  -418.41687884928103

   => Energetics <=

    Nuclear Repulsion Energy =            426.0622947964492937
    One-Electron Energy =               -1414.5830573707598887
    Two-Electron Energy =                 570.1038837250295046
    Total Energy =                       -418.4168788492810336
  Basis Set: (AUG-CC-PVTZ AUX)
    Blend: AUG-CC-PVTZ-RI
    Molecular point group: c1

    Geometry (in Angstrom), charge = 0, multiplicity = 1:

       Center              X                  Y                   Z               Mass
    ------------   -----------------  -----------------  -----------------  -----------------
         O           -1.463396924944     1.187537153837    -0.000493873265    15.994914619570
         O           -1.471852824944    -1.170907946163    -0.000454173265    15.994914619570
         C           -0.177175824944     0.692204053837    -0.000064173265    12.000000000000
         C           -0.177161824944    -0.698096946163    -0.000036173265    12.000000000000
         C           -2.310601824944    -0.002967946163     0.000524826735    12.000000000000
         C            0.994567175056     1.427071053837     0.000018826735    12.000000000000
         C            0.994565175056    -1.432977946163     0.000088826735    12.000000000000
         C            2.194172175056     0.695751053837     0.000213826735    12.000000000000
         C            2.194174175056    -0.701660946163     0.000243826735    12.000000000000
         H           -2.927395824944    -0.002930946163     0.904657826735     1.007825032230
         H           -2.929487824944    -0.002964946163    -0.902139173265     1.007825032230
         H            0.978808175056     2.512655053837    -0.000047173265     1.007825032230
         H            0.978795175056    -2.518560946163     0.000072826735     1.007825032230
         H            3.139627175056     1.231290053837     0.000328826735     1.007825032230
         H            3.139628175056    -1.237200946163     0.000387826735     1.007825032230

  Basis Set: AUG-CC-PVTZ
    Blend: AUG-CC-PVTZ
  Basis Set: (AUG-CC-PVTZ AUX)
    Blend: AUG-CC-PVTZ-JKFIT
	 Reference Energy          =    -418.4168788492810336 [Eh]
	 Singles Energy            =      -0.0000000000000000 [Eh]
	 Same-Spin Energy          =      -0.4345232243911995 [Eh]
	 Opposite-Spin Energy      =      -1.3176206575663854 [Eh]
	 Correlation Energy        =      -1.7521438819575850 [Eh]
	 Total Energy              =    -420.1690227312386128 [Eh]

	 ================> DF-SCS-MP2 Energies <==================
	-----------------------------------------------------------
	 SCS Same-Spin Scale       =       0.3333333333333333 [-]
	 SCS Opposite-Spin Scale   =       1.2000000000000000 [-]
	 SCS Same-Spin Energy      =      -0.1448410747970665 [Eh]
	 SCS Opposite-Spin Energy  =      -1.5811447890796624 [Eh]
	 SCS Correlation Energy    =      -1.7259858638767289 [Eh]
	 SCS Total Energy          =    -420.1428647131577350 [Eh]
	-----------------------------------------------------------

  Dipole Moment: [D]
     X:    -0.4572      Y:    -0.0525      Z:     0.0018     Total:     0.4602

*** Psi4 exiting successfully. Buy a developer a beer!
