                               Psi4 1.3.2 release

  ==> Input File <==

--------------------------------------------------------------------------
#psi4
#
memory 32 gb

molecule  {
0 1
  O       -1.4891210     1.1679660    -0.0005210
  O       -1.4891280    -1.1679560    -0.0004790
  C       -0.1521212     0.8330759    -0.0002102
  C       -0.1944370    -0.6951450    -0.0000610
  C       -2.3278770    -0.0000160     0.0005000
  C        0.9772920     1.4300230    -0.0000060
  C        0.9772900    -1.4300260     0.0000640
  C        2.1768970     0.6987030     0.0001890
  C        2.1768990    -0.6987090     0.0002190
  H       -2.9446710     0.0000210     0.9046330
  H       -2.9467630    -0.0000130    -0.9021640
  H        0.9615330     2.5156070    -0.0000720
  H        0.9615200    -2.5156090     0.0000480
  H        3.1223520     1.2342420     0.0003040
  H        3.1223530    -1.2342490     0.0003630
units angstrom
no_reorient  #important for SAPT in psi4, default
symmetry c1  #important for SAPT in psi4, default
}

set PROPERTIES_ORIGIN ["COM"]
properties('MP2/aug-cc-pvtz', properties = ['dipole'])
--------------------------------------------------------------------------

    Molecular point group: c1
  Charge       = 0
  Multiplicity = 1
  Basis Set: AUG-CC-PVTZ
    Blend: AUG-CC-PVTZ
  Basis Set: (AUG-CC-PVTZ AUX)
    Blend: AUG-CC-PVTZ-JKFIT

    Orbital Energies [Eh]
    ---------------------

    Doubly Occupied:

       1A    -20.609490     2A    -20.602588     3A    -11.364058
       4A    -11.313925     5A    -11.306056     6A    -11.240083
       7A    -11.238084     8A    -11.236983     9A    -11.230064
      10A     -1.468405    11A     -1.375585    12A     -1.155712
      13A     -1.040492    14A     -1.013869    15A     -0.915060
      16A     -0.841396    17A     -0.827705    18A     -0.719946
      19A     -0.715138    20A     -0.706746    21A     -0.679843
      22A     -0.622273    23A     -0.601704    24A     -0.575266
      25A     -0.572258    26A     -0.554971    27A     -0.547788
      28A     -0.533726    29A     -0.479751    30A     -0.459280
      31A     -0.357349    32A     -0.294864

  @DF-RHF Final Energy:  -418.39112818673652

   => Energetics <=

    Nuclear Repulsion Energy =            425.2430081590488271
    One-Electron Energy =               -1412.8673566989971278
    Two-Electron Energy =                 569.2332203532117774
    Total Energy =                       -418.3911281867365233
  Basis Set: (AUG-CC-PVTZ AUX)
    Blend: AUG-CC-PVTZ-RI
    Molecular point group: c1

    Geometry (in Angstrom), charge = 0, multiplicity = 1:

       Center              X                  Y                   Z               Mass
    ------------   -----------------  -----------------  -----------------  -----------------
         O           -1.474900790566     1.154404270913    -0.000483954094    15.994914619570
         O           -1.474907790566    -1.181517729087    -0.000441954094    15.994914619570
         C           -0.137900990566     0.819514170913    -0.000173154094    12.000000000000
         C           -0.180216790566    -0.708706729087    -0.000023954094    12.000000000000
         C           -2.313656790566    -0.013577729087     0.000537045906    12.000000000000
         C            0.991512209434     1.416461270913     0.000031045906    12.000000000000
         C            0.991510209434    -1.443587729087     0.000101045906    12.000000000000
         C            2.191117209434     0.685141270913     0.000226045906    12.000000000000
         C            2.191119209434    -0.712270729087     0.000256045906    12.000000000000
         H           -2.930450790566    -0.013540729087     0.904670045906     1.007825032230
         H           -2.932542790566    -0.013574729087    -0.902126954094     1.007825032230
         H            0.975753209434     2.502045270913    -0.000034954094     1.007825032230
         H            0.975740209434    -2.529170729087     0.000085045906     1.007825032230
         H            3.136572209434     1.220680270913     0.000341045906     1.007825032230
         H            3.136573209434    -1.247810729087     0.000400045906     1.007825032230

  Basis Set: AUG-CC-PVTZ
    Blend: AUG-CC-PVTZ
  Basis Set: (AUG-CC-PVTZ AUX)
    Blend: AUG-CC-PVTZ-JKFIT
	 Reference Energy          =    -418.3911281867365233 [Eh]
	 Singles Energy            =      -0.0000000000000000 [Eh]
	 Same-Spin Energy          =      -0.4333504478636168 [Eh]
	 Opposite-Spin Energy      =      -1.3178915002479741 [Eh]
	 Correlation Energy        =      -1.7512419481115908 [Eh]
	 Total Energy              =    -420.1423701348481359 [Eh]

	 ================> DF-SCS-MP2 Energies <==================
	-----------------------------------------------------------
	 SCS Same-Spin Scale       =       0.3333333333333333 [-]
	 SCS Opposite-Spin Scale   =       1.2000000000000000 [-]
	 SCS Same-Spin Energy      =      -0.1444501492878723 [Eh]
	 SCS Opposite-Spin Energy  =      -1.5814698002975689 [Eh]
	 SCS Correlation Energy    =      -1.7259199495854411 [Eh]
	 SCS Total Energy          =    -420.1170481363219551 [Eh]
	-----------------------------------------------------------

  Dipole Moment: [D]
     X:    -0.6207      Y:     0.0167      Z:     0.0017     Total:     0.6209

*** Psi4 exiting successfully. Buy a developer a beer!
