                               Psi4 1.4a3.dev225

  ==> Input File <==

--------------------------------------------------------------------------
#psi4
#
memory 32 gb

molecule  {
0 1
  O        1.4992630    -1.1582390    -0.1232700
  O        1.4992620     1.1582430    -0.1232540
  C        0.1811306    -0.6898503    -0.0329057
  C        0.1999390     0.6965360    -0.0341760
  C        2.2874770    -0.0000040     0.1828560
  C       -0.9710250    -1.4315640    -0.0051560
  C       -0.9710280     1.4315630    -0.0051810
  C       -2.1692490    -0.6989180     0.0348340
  C       -2.1692490     0.6989160     0.0348440
  H        2.5314460    -0.0000080     1.2545630
  H        3.1831710     0.0000030    -0.4375930
  H       -0.9573450    -2.5171950    -0.0133180
  H       -0.9573500     2.5171940    -0.0133180
  H       -3.1144710    -1.2338350     0.0694590
  H       -3.1144730     1.2338310     0.0694330
units angstrom
no_reorient  #important for SAPT in psi4, default
symmetry c1  #important for SAPT in psi4, default
}

set PROPERTIES_ORIGIN ["COM"]
properties('MP2/aug-cc-pvtz', properties = ['dipole'])
--------------------------------------------------------------------------

    Molecular point group: c1
  Charge       = 0
  Multiplicity = 1
  Basis Set: AUG-CC-PVTZ
    Blend: AUG-CC-PVTZ
  Basis Set: (AUG-CC-PVTZ AUX)
    Blend: AUG-CC-PVTZ-JKFIT

    Orbital Energies [Eh]
    ---------------------

    Doubly Occupied:

       1A    -20.602209     2A    -20.599071     3A    -11.355736
       4A    -11.301333     5A    -11.299111     6A    -11.246993
       7A    -11.246410     8A    -11.243133     9A    -11.241907
      10A     -1.469501    11A     -1.366296    12A     -1.158589
      13A     -1.027485    14A     -1.022255    15A     -0.911305
      16A     -0.854035    17A     -0.830858    18A     -0.722344
      19A     -0.710092    20A     -0.700768    21A     -0.670688
      22A     -0.622412    23A     -0.593447    24A     -0.588799
      25A     -0.576766    26A     -0.544369    27A     -0.541852
      28A     -0.527259    29A     -0.508900    30A     -0.461347
      31A     -0.345167    32A     -0.311527

  @DF-RHF Final Energy:  -418.41763451803405

   => Energetics <=

    Nuclear Repulsion Energy =            427.2407224693479861
    One-Electron Energy =               -1416.9127877284706756
    Two-Electron Energy =                 571.2544307410887541
    Total Energy =                       -418.4176345180339922
  Basis Set: (AUG-CC-PVTZ AUX)
    Blend: AUG-CC-PVTZ-RI
    Molecular point group: c1

    Geometry (in Angstrom), charge = 0, multiplicity = 1:

       Center              X                  Y                   Z               Mass
    ------------   -----------------  -----------------  -----------------  -----------------
         O            1.481489101063    -1.158896165010    -0.115852158326    15.994914619570
         O            1.481488101063     1.157585834990    -0.115836158326    15.994914619570
         C            0.163356701063    -0.690507465010    -0.025487858326    12.000000000000
         C            0.182165101063     0.695878834990    -0.026758158326    12.000000000000
         C            2.269703101063    -0.000661165010     0.190273841674    12.000000000000
         C           -0.988798898937    -1.432221165010     0.002261841674    12.000000000000
         C           -0.988801898937     1.430905834990     0.002236841674    12.000000000000
         C           -2.187022898937    -0.699575165010     0.042251841674    12.000000000000
         C           -2.187022898937     0.698258834990     0.042261841674    12.000000000000
         H            2.513672101063    -0.000665165010     1.261980841674     1.007825032230
         H            3.165397101063    -0.000654165010    -0.430175158326     1.007825032230
         H           -0.975118898937    -2.517852165010    -0.005900158326     1.007825032230
         H           -0.975123898937     2.516536834990    -0.005900158326     1.007825032230
         H           -3.132244898937    -1.234492165010     0.076876841674     1.007825032230
         H           -3.132246898937     1.233173834990     0.076850841674     1.007825032230

  Basis Set: AUG-CC-PVTZ
    Blend: AUG-CC-PVTZ
  Basis Set: (AUG-CC-PVTZ AUX)
    Blend: AUG-CC-PVTZ-JKFIT
	 Reference Energy          =    -418.4176345180340491 [Eh]
	 Singles Energy            =      -0.0000000000000000 [Eh]
	 Same-Spin Energy          =      -0.4348509848550701 [Eh]
	 Opposite-Spin Energy      =      -1.3176734732276789 [Eh]
	 Correlation Energy        =      -1.7525244580827490 [Eh]
	 Total Energy              =    -420.1701589761167952 [Eh]

	 ================> DF-SCS-MP2 Energies <==================
	-----------------------------------------------------------
	 SCS Same-Spin Scale       =       0.3333333333333333 [-]
	 SCS Opposite-Spin Scale   =       1.2000000000000000 [-]
	 SCS Same-Spin Energy      =      -0.1449503282850234 [Eh]
	 SCS Opposite-Spin Energy  =      -1.5812081678732146 [Eh]
	 SCS Correlation Energy    =      -1.7261584961582379 [Eh]
	 SCS Total Energy          =    -420.1437930141922834 [Eh]
	-----------------------------------------------------------

  Dipole Moment: [D]
     X:     0.0691      Y:     0.0201      Z:     0.5503     Total:     0.5550

*** Psi4 exiting successfully. Buy a developer a beer!
