                               Psi4 1.3.2 release

  ==> Input File <==

--------------------------------------------------------------------------
#psi4
#
memory 32 gb

molecule  {
0 1
  O       -1.4096899     1.1066122    -0.0006146
  O       -1.4891280    -1.1679560    -0.0004790
  C       -0.1944510     0.6951560    -0.0000890
  C       -0.1944370    -0.6951450    -0.0000610
  C       -2.3278770    -0.0000160     0.0005000
  C        0.9772920     1.4300230    -0.0000060
  C        0.9772900    -1.4300260     0.0000640
  C        2.1768970     0.6987030     0.0001890
  C        2.1768990    -0.6987090     0.0002190
  H       -2.9446710     0.0000210     0.9046330
  H       -2.9467630    -0.0000130    -0.9021640
  H        0.9615330     2.5156070    -0.0000720
  H        0.9615200    -2.5156090     0.0000480
  H        3.1223520     1.2342420     0.0003040
  H        3.1223530    -1.2342490     0.0003630
units angstrom
no_reorient  #important for SAPT in psi4, default
symmetry c1  #important for SAPT in psi4, default
}

set PROPERTIES_ORIGIN ["COM"]
properties('MP2/aug-cc-pvtz', properties = ['dipole'])
--------------------------------------------------------------------------

    Molecular point group: c1
  Charge       = 0
  Multiplicity = 1
  Basis Set: AUG-CC-PVTZ
    Blend: AUG-CC-PVTZ
  Basis Set: (AUG-CC-PVTZ AUX)
    Blend: AUG-CC-PVTZ-JKFIT

    Orbital Energies [Eh]
    ---------------------

    Doubly Occupied:

       1A    -20.604817     2A    -20.601117     3A    -11.367679
       4A    -11.296256     5A    -11.291738     6A    -11.240827
       7A    -11.236923     8A    -11.235769     9A    -11.231526
      10A     -1.499572    11A     -1.386372    12A     -1.150182
      13A     -1.026935    14A     -1.019001    15A     -0.919436
      16A     -0.853007    17A     -0.835506    18A     -0.725718
      19A     -0.716949    20A     -0.714477    21A     -0.680056
      22A     -0.614354    23A     -0.602831    24A     -0.581229
      25A     -0.580605    26A     -0.556798    27A     -0.552137
      28A     -0.524135    29A     -0.499713    30A     -0.458262
      31A     -0.336584    32A     -0.294659

  @DF-RHF Final Energy:  -418.41371498612847

   => Energetics <=

    Nuclear Repulsion Energy =            429.6403825347242105
    One-Electron Energy =               -1421.6378515687686104
    Two-Electron Energy =                 573.5837540479159316
    Total Energy =                       -418.4137149861284115
  Basis Set: (AUG-CC-PVTZ AUX)
    Blend: AUG-CC-PVTZ-RI
    Molecular point group: c1

    Geometry (in Angstrom), charge = 0, multiplicity = 1:

       Center              X                  Y                   Z               Mass
    ------------   -----------------  -----------------  -----------------  -----------------
         O           -1.401718102448     1.114653692539    -0.000577204002    15.994914619570
         O           -1.481156202448    -1.159914507461    -0.000441604002    15.994914619570
         C           -0.186479202448     0.703197492539    -0.000051604002    12.000000000000
         C           -0.186465202448    -0.687103507461    -0.000023604002    12.000000000000
         C           -2.319905202448     0.008025492539     0.000537395998    12.000000000000
         C            0.985263797552     1.438064492539     0.000031395998    12.000000000000
         C            0.985261797552    -1.421984507461     0.000101395998    12.000000000000
         C            2.184868797552     0.706744492539     0.000226395998    12.000000000000
         C            2.184870797552    -0.690667507461     0.000256395998    12.000000000000
         H           -2.936699202448     0.008062492539     0.904670395998     1.007825032230
         H           -2.938791202448     0.008028492539    -0.902126604002     1.007825032230
         H            0.969504797552     2.523648492539    -0.000034604002     1.007825032230
         H            0.969491797552    -2.507567507461     0.000085395998     1.007825032230
         H            3.130323797552     1.242283492539     0.000341395998     1.007825032230
         H            3.130324797552    -1.226207507461     0.000400395998     1.007825032230

  Basis Set: AUG-CC-PVTZ
    Blend: AUG-CC-PVTZ
  Basis Set: (AUG-CC-PVTZ AUX)
    Blend: AUG-CC-PVTZ-JKFIT
	 Reference Energy          =    -418.4137149861284684 [Eh]
	 Singles Energy            =      -0.0000000000000000 [Eh]
	 Same-Spin Energy          =      -0.4341463861937886 [Eh]
	 Opposite-Spin Energy      =      -1.3147328563208736 [Eh]
	 Correlation Energy        =      -1.7488792425146622 [Eh]
	 Total Energy              =    -420.1625942286431155 [Eh]

	 ================> DF-SCS-MP2 Energies <==================
	-----------------------------------------------------------
	 SCS Same-Spin Scale       =       0.3333333333333333 [-]
	 SCS Opposite-Spin Scale   =       1.2000000000000000 [-]
	 SCS Same-Spin Energy      =      -0.1447154620645962 [Eh]
	 SCS Opposite-Spin Energy  =      -1.5776794275850483 [Eh]
	 SCS Correlation Energy    =      -1.7223948896496446 [Eh]
	 SCS Total Energy          =    -420.1361098757781178 [Eh]
	-----------------------------------------------------------

  Dipole Moment: [D]
     X:    -1.0973      Y:     0.1900      Z:     0.0017     Total:     1.1137

*** Psi4 exiting successfully. Buy a developer a beer!
