                               Psi4 1.4a3.dev225

  ==> Input File <==

--------------------------------------------------------------------------
#psi4
#
memory 32 gb

molecule  {
0 1
  O        1.4992630    -1.1582390    -0.1232700
  O        1.4992620     1.1582430    -0.1232540
  C        0.2187434    -0.7032157    -0.0354843
  C        0.1999390     0.6965360    -0.0341760
  C        2.2874770    -0.0000040     0.1828560
  C       -0.9710250    -1.4315640    -0.0051560
  C       -0.9710280     1.4315630    -0.0051810
  C       -2.1692490    -0.6989180     0.0348340
  C       -2.1692490     0.6989160     0.0348440
  H        2.5314460    -0.0000080     1.2545630
  H        3.1831710     0.0000030    -0.4375930
  H       -0.9573450    -2.5171950    -0.0133180
  H       -0.9573500     2.5171940    -0.0133180
  H       -3.1144710    -1.2338350     0.0694590
  H       -3.1144730     1.2338310     0.0694330
units angstrom
no_reorient  #important for SAPT in psi4, default
symmetry c1  #important for SAPT in psi4, default
}

set PROPERTIES_ORIGIN ["COM"]
properties('MP2/aug-cc-pvtz', properties = ['dipole'])
--------------------------------------------------------------------------

    Molecular point group: c1
  Charge       = 0
  Multiplicity = 1
  Basis Set: AUG-CC-PVTZ
    Blend: AUG-CC-PVTZ
  Basis Set: (AUG-CC-PVTZ AUX)
    Blend: AUG-CC-PVTZ-JKFIT

    Orbital Energies [Eh]
    ---------------------

    Doubly Occupied:

       1A    -20.605077     2A    -20.601895     3A    -11.358939
       4A    -11.302440     5A    -11.300116     6A    -11.246596
       7A    -11.246060     8A    -11.241599     9A    -11.240340
      10A     -1.478703    11A     -1.376227    12A     -1.152736
      13A     -1.022973    14A     -1.021745    15A     -0.914103
      16A     -0.852305    17A     -0.831825    18A     -0.725166
      19A     -0.711935    20A     -0.705999    21A     -0.671397
      22A     -0.618640    23A     -0.596872    24A     -0.586111
      25A     -0.582549    26A     -0.547596    27A     -0.544329
      28A     -0.527350    29A     -0.504775    30A     -0.461545
      31A     -0.341851    32A     -0.306968

  @DF-RHF Final Energy:  -418.41778759698718

   => Energetics <=

    Nuclear Repulsion Energy =            427.2370566290570650
    One-Electron Energy =               -1416.8561589162293330
    Two-Electron Energy =                 571.2013146901850860
    Total Energy =                       -418.4177875969871820
  Basis Set: (AUG-CC-PVTZ AUX)
    Blend: AUG-CC-PVTZ-RI
    Molecular point group: c1

    Geometry (in Angstrom), charge = 0, multiplicity = 1:

       Center              X                  Y                   Z               Mass
    ------------   -----------------  -----------------  -----------------  -----------------
         O            1.477790596382    -1.157581931705    -0.115598601979    15.994914619570
         O            1.477789596382     1.158900068295    -0.115582601979    15.994914619570
         C            0.197270996382    -0.702558631705    -0.027812901979    12.000000000000
         C            0.178466596382     0.697193068295    -0.026504601979    12.000000000000
         C            2.266004596382     0.000653068295     0.190527398021    12.000000000000
         C           -0.992497403618    -1.430906931705     0.002515398021    12.000000000000
         C           -0.992500403618     1.432220068295     0.002490398021    12.000000000000
         C           -2.190721403618    -0.698260931705     0.042505398021    12.000000000000
         C           -2.190721403618     0.699573068295     0.042515398021    12.000000000000
         H            2.509973596382     0.000649068295     1.262234398021     1.007825032230
         H            3.161698596382     0.000660068295    -0.429921601979     1.007825032230
         H           -0.978817403618    -2.516537931705    -0.005646601979     1.007825032230
         H           -0.978822403618     2.517851068295    -0.005646601979     1.007825032230
         H           -3.135943403618    -1.233177931705     0.077130398021     1.007825032230
         H           -3.135945403618     1.234488068295     0.077104398021     1.007825032230

  Basis Set: AUG-CC-PVTZ
    Blend: AUG-CC-PVTZ
  Basis Set: (AUG-CC-PVTZ AUX)
    Blend: AUG-CC-PVTZ-JKFIT
	 Reference Energy          =    -418.4177875969871820 [Eh]
	 Singles Energy            =      -0.0000000000000000 [Eh]
	 Same-Spin Energy          =      -0.4349390077744631 [Eh]
	 Opposite-Spin Energy      =      -1.3174760473453109 [Eh]
	 Correlation Energy        =      -1.7524150551197741 [Eh]
	 Total Energy              =    -420.1702026521069797 [Eh]

	 ================> DF-SCS-MP2 Energies <==================
	-----------------------------------------------------------
	 SCS Same-Spin Scale       =       0.3333333333333333 [-]
	 SCS Opposite-Spin Scale   =       1.2000000000000000 [-]
	 SCS Same-Spin Energy      =      -0.1449796692581544 [Eh]
	 SCS Opposite-Spin Energy  =      -1.5809712568143730 [Eh]
	 SCS Correlation Energy    =      -1.7259509260725274 [Eh]
	 SCS Total Energy          =    -420.1437385230597101 [Eh]
	-----------------------------------------------------------

  Dipole Moment: [D]
     X:     0.3007      Y:    -0.0215      Z:     0.5393     Total:     0.6178

*** Psi4 exiting successfully. Buy a developer a beer!
