                               Psi4 1.3.2 release

  ==> Input File <==

--------------------------------------------------------------------------
#psi4
#
memory 32 gb

molecule  {
0 1
  O        0.6994600    -0.4500560    -0.0003020
  O       -0.6284610     1.3947560    -0.0020030
  C       -1.6317410    -0.8217520    -0.0044580
  C        1.8458840     0.4351200     0.0004070
  C       -0.5123869     0.1911824     0.0202626
  C       -2.9987110    -0.1525370     0.0051210
  C        3.0735570    -0.4468320     0.0021160
  H       -1.5041170    -1.4634550    -0.8835050
  H       -1.4975140    -1.4764990     0.8637890
  H        1.7981280     1.0776150    -0.8832090
  H        1.7963140     1.0785080     0.8832640
  H       -3.1225840     0.4871600    -0.8707550
  H       -3.7909030    -0.9055920     0.0019890
  H       -3.1170220     0.4736390     0.8915280
  H        3.9763110     0.1705960     0.0027210
  H        3.0870080    -1.0834370     0.8892710
  H        3.0888280    -1.0843650    -0.8843420
units angstrom
no_reorient  #important for SAPT in psi4, default
symmetry c1  #important for SAPT in psi4, default
}

set PROPERTIES_ORIGIN ["COM"]
properties('MP2/aug-cc-pvtz', properties = ['dipole'])
--------------------------------------------------------------------------

    Molecular point group: c1
  Charge       = 0
  Multiplicity = 1
  Basis Set: AUG-CC-PVTZ
    Blend: AUG-CC-PVTZ
  Basis Set: (AUG-CC-PVTZ AUX)
    Blend: AUG-CC-PVTZ-JKFIT

    Orbital Energies [Eh]
    ---------------------

    Doubly Occupied:

       1A    -20.595905     2A    -20.545686     3A    -11.377331
       4A    -11.285645     5A    -11.244580     6A    -11.223244
       7A    -11.219844     8A     -1.447730     9A     -1.353957
      10A     -1.068742    11A     -1.027211    12A     -0.905549
      13A     -0.840866    14A     -0.767071    15A     -0.696359
      16A     -0.680851    17A     -0.661235    18A     -0.628605
      19A     -0.581238    20A     -0.567261    21A     -0.556168
      22A     -0.523125    23A     -0.518287    24A     -0.511726
      25A     -0.509182    26A     -0.493002    27A     -0.456802
      28A     -0.444439

  @DF-RHF Final Energy:  -345.03882811001591

   => Energetics <=

    Nuclear Repulsion Energy =            312.1585020838552964
    One-Electron Energy =               -1088.9313821212322182
    Two-Electron Energy =                 431.7340519273610084
    Total Energy =                       -345.0388281100159134
  Basis Set: (AUG-CC-PVTZ AUX)
    Blend: AUG-CC-PVTZ-RI
    Molecular point group: c1

    Geometry (in Angstrom), charge = 0, multiplicity = 1:

       Center              X                  Y                   Z               Mass
    ------------   -----------------  -----------------  -----------------  -----------------
         O            0.707543940386    -0.477737650773    -0.002803762057    15.994914619570
         O           -0.620377059614     1.367074349227    -0.004504762057    15.994914619570
         C           -1.623657059614    -0.849433650773    -0.006959762057    12.000000000000
         C            1.853967940386     0.407438349227    -0.002094762057    12.000000000000
         C           -0.504302959614     0.163500749227     0.017760837943    12.000000000000
         C           -2.990627059614    -0.180218650773     0.002619237943    12.000000000000
         C            3.081640940386    -0.474513650773    -0.000385762057    12.000000000000
         H           -1.496033059614    -1.491136650773    -0.886006762057     1.007825032230
         H           -1.489430059614    -1.504180650773     0.861287237943     1.007825032230
         H            1.806211940386     1.049933349227    -0.885710762057     1.007825032230
         H            1.804397940386     1.050826349227     0.880762237943     1.007825032230
         H           -3.114500059614     0.459478349227    -0.873256762057     1.007825032230
         H           -3.782819059614    -0.933273650773    -0.000512762057     1.007825032230
         H           -3.108938059614     0.445957349227     0.889026237943     1.007825032230
         H            3.984394940386     0.142914349227     0.000219237943     1.007825032230
         H            3.095091940386    -1.111118650773     0.886769237943     1.007825032230
         H            3.096911940386    -1.112046650773    -0.886843762057     1.007825032230

  Basis Set: AUG-CC-PVTZ
    Blend: AUG-CC-PVTZ
  Basis Set: (AUG-CC-PVTZ AUX)
    Blend: AUG-CC-PVTZ-JKFIT
	 Reference Energy          =    -345.0388281100159134 [Eh]
	 Singles Energy            =      -0.0000000000000000 [Eh]
	 Same-Spin Energy          =      -0.3396880729866223 [Eh]
	 Opposite-Spin Energy      =      -1.1302223174471029 [Eh]
	 Correlation Energy        =      -1.4699103904337252 [Eh]
	 Total Energy              =    -346.5087385004496241 [Eh]

	 ================> DF-SCS-MP2 Energies <==================
	-----------------------------------------------------------
	 SCS Same-Spin Scale       =       0.3333333333333333 [-]
	 SCS Opposite-Spin Scale   =       1.2000000000000000 [-]
	 SCS Same-Spin Energy      =      -0.1132293576622074 [Eh]
	 SCS Opposite-Spin Energy  =      -1.3562667809365234 [Eh]
	 SCS Correlation Energy    =      -1.4694961385987308 [Eh]
	 SCS Total Energy          =    -346.5083242486146560 [Eh]
	-----------------------------------------------------------

  Dipole Moment: [D]
     X:     0.7267      Y:    -1.5134      Z:     0.0195     Total:     1.6789

*** Psi4 exiting successfully. Buy a developer a beer!
