                               Psi4 1.3.2 release

  ==> Input File <==

--------------------------------------------------------------------------
#psi4
#
memory 32 gb

molecule  {
0 1
  O        0.6882686    -0.4709410    -0.0003345
  O       -0.6284610     1.3947560    -0.0020030
  C       -1.6317410    -0.8217520    -0.0044580
  C        1.8458840     0.4351200     0.0004070
  C       -0.5027280     0.1807070    -0.0019040
  C       -2.9987110    -0.1525370     0.0051210
  C        3.0735570    -0.4468320     0.0021160
  H       -1.5041170    -1.4634550    -0.8835050
  H       -1.4975140    -1.4764990     0.8637890
  H        1.7981280     1.0776150    -0.8832090
  H        1.7963140     1.0785080     0.8832640
  H       -3.1225840     0.4871600    -0.8707550
  H       -3.7909030    -0.9055920     0.0019890
  H       -3.1170220     0.4736390     0.8915280
  H        3.9763110     0.1705960     0.0027210
  H        3.0870080    -1.0834370     0.8892710
  H        3.0888280    -1.0843650    -0.8843420
units angstrom
no_reorient  #important for SAPT in psi4, default
symmetry c1  #important for SAPT in psi4, default
}

set PROPERTIES_ORIGIN ["COM"]
properties('MP2/aug-cc-pvtz', properties = ['dipole'])
--------------------------------------------------------------------------

    Molecular point group: c1
  Charge       = 0
  Multiplicity = 1
  Basis Set: AUG-CC-PVTZ
    Blend: AUG-CC-PVTZ
  Basis Set: (AUG-CC-PVTZ AUX)
    Blend: AUG-CC-PVTZ-JKFIT

    Orbital Energies [Eh]
    ---------------------

    Doubly Occupied:

       1A    -20.600389     2A    -20.542892     3A    -11.376940
       4A    -11.289857     5A    -11.242599     6A    -11.225217
       7A    -11.218406     8A     -1.446311     9A     -1.348768
      10A     -1.067857    11A     -1.028843    12A     -0.904798
      13A     -0.841830    14A     -0.767904    15A     -0.693042
      16A     -0.680841    17A     -0.659800    18A     -0.627720
      19A     -0.579214    20A     -0.568098    21A     -0.557643
      22A     -0.521178    23A     -0.517431    24A     -0.511687
      25A     -0.510989    26A     -0.490814    27A     -0.459056
      28A     -0.442729

  @DF-RHF Final Energy:  -345.03745450833185

   => Energetics <=

    Nuclear Repulsion Energy =            311.8594631507344275
    One-Electron Energy =               -1088.3481253362695043
    Two-Electron Energy =                 431.4512076772032287
    Total Energy =                       -345.0374545083318480
  Basis Set: (AUG-CC-PVTZ AUX)
    Blend: AUG-CC-PVTZ-RI
    Molecular point group: c1

    Geometry (in Angstrom), charge = 0, multiplicity = 1:

       Center              X                  Y                   Z               Mass
    ------------   -----------------  -----------------  -----------------  -----------------
         O            0.696970742352    -0.494118220066    -0.000225073174    15.994914619570
         O           -0.619758857648     1.371578779934    -0.001893573174    15.994914619570
         C           -1.623038857648    -0.844929220066    -0.004348573174    12.000000000000
         C            1.854586142352     0.411942779934     0.000516426826    12.000000000000
         C           -0.494025857648     0.157529779934    -0.001794573174    12.000000000000
         C           -2.990008857648    -0.175714220066     0.005230426826    12.000000000000
         C            3.082259142352    -0.470009220066     0.002225426826    12.000000000000
         H           -1.495414857648    -1.486632220066    -0.883395573174     1.007825032230
         H           -1.488811857648    -1.499676220066     0.863898426826     1.007825032230
         H            1.806830142352     1.054437779934    -0.883099573174     1.007825032230
         H            1.805016142352     1.055330779934     0.883373426826     1.007825032230
         H           -3.113881857648     0.463982779934    -0.870645573174     1.007825032230
         H           -3.782200857648    -0.928769220066     0.002098426826     1.007825032230
         H           -3.108319857648     0.450461779934     0.891637426826     1.007825032230
         H            3.985013142352     0.147418779934     0.002830426826     1.007825032230
         H            3.095710142352    -1.106614220066     0.889380426826     1.007825032230
         H            3.097530142352    -1.107542220066    -0.884232573174     1.007825032230

  Basis Set: AUG-CC-PVTZ
    Blend: AUG-CC-PVTZ
  Basis Set: (AUG-CC-PVTZ AUX)
    Blend: AUG-CC-PVTZ-JKFIT
	 Reference Energy          =    -345.0374545083318480 [Eh]
	 Singles Energy            =      -0.0000000000000000 [Eh]
	 Same-Spin Energy          =      -0.3399667154367944 [Eh]
	 Opposite-Spin Energy      =      -1.1310158314851404 [Eh]
	 Correlation Energy        =      -1.4709825469219346 [Eh]
	 Total Energy              =    -346.5084370552538076 [Eh]

	 ================> DF-SCS-MP2 Energies <==================
	-----------------------------------------------------------
	 SCS Same-Spin Scale       =       0.3333333333333333 [-]
	 SCS Opposite-Spin Scale   =       1.2000000000000000 [-]
	 SCS Same-Spin Energy      =      -0.1133222384789314 [Eh]
	 SCS Opposite-Spin Energy  =      -1.3572189977821685 [Eh]
	 SCS Correlation Energy    =      -1.4705412362610999 [Eh]
	 SCS Total Energy          =    -346.5079957445929608 [Eh]
	-----------------------------------------------------------

  Dipole Moment: [D]
     X:     0.9284      Y:    -1.5289      Z:    -0.0011     Total:     1.7888

*** Psi4 exiting successfully. Buy a developer a beer!
