                               Psi4 1.3.2 release

  ==> Input File <==

--------------------------------------------------------------------------
#psi4
#
memory 32 gb

molecule  {
0 1
  O        0.6994600    -0.4500560    -0.0003020
  O       -0.6284610     1.3947560    -0.0020030
  C       -1.6317410    -0.8217520    -0.0044580
  C        1.8458840     0.4351200     0.0004070
  C       -0.4854048     0.1608511    -0.0021019
  C       -2.9987110    -0.1525370     0.0051210
  C        3.0735570    -0.4468320     0.0021160
  H       -1.5041170    -1.4634550    -0.8835050
  H       -1.4975140    -1.4764990     0.8637890
  H        1.7981280     1.0776150    -0.8832090
  H        1.7963140     1.0785080     0.8832640
  H       -3.1225840     0.4871600    -0.8707550
  H       -3.7909030    -0.9055920     0.0019890
  H       -3.1170220     0.4736390     0.8915280
  H        3.9763110     0.1705960     0.0027210
  H        3.0870080    -1.0834370     0.8892710
  H        3.0888280    -1.0843650    -0.8843420
units angstrom
no_reorient  #important for SAPT in psi4, default
symmetry c1  #important for SAPT in psi4, default
}

set PROPERTIES_ORIGIN ["COM"]
properties('MP2/aug-cc-pvtz', properties = ['dipole'])
--------------------------------------------------------------------------

    Molecular point group: c1
  Charge       = 0
  Multiplicity = 1
  Basis Set: AUG-CC-PVTZ
    Blend: AUG-CC-PVTZ
  Basis Set: (AUG-CC-PVTZ AUX)
    Blend: AUG-CC-PVTZ-JKFIT

    Orbital Energies [Eh]
    ---------------------

    Doubly Occupied:

       1A    -20.605676     2A    -20.536924     3A    -11.378268
       4A    -11.290437     5A    -11.243977     6A    -11.226309
       7A    -11.218794     8A     -1.456034     9A     -1.339312
      10A     -1.069920    11A     -1.031499    12A     -0.908762
      13A     -0.845154    14A     -0.774059    15A     -0.691288
      16A     -0.686936    17A     -0.660057    18A     -0.627987
      19A     -0.578483    20A     -0.569737    21A     -0.558573
      22A     -0.520426    23A     -0.519957    24A     -0.510788
      25A     -0.510695    26A     -0.488477    27A     -0.455099
      28A     -0.441077

  @DF-RHF Final Energy:  -345.03720175327931

   => Energetics <=

    Nuclear Repulsion Energy =            312.2106000255787990
    One-Electron Energy =               -1089.0061926532173402
    Two-Electron Energy =                 431.7583908743592929
    Total Energy =                       -345.0372017532793052
  Basis Set: (AUG-CC-PVTZ AUX)
    Blend: AUG-CC-PVTZ-RI
    Molecular point group: c1

    Geometry (in Angstrom), charge = 0, multiplicity = 1:

       Center              X                  Y                   Z               Mass
    ------------   -----------------  -----------------  -----------------  -----------------
         O            0.704371692986    -0.474171642658    -0.000174399370    15.994914619570
         O           -0.623549307014     1.370640357342    -0.001875399370    15.994914619570
         C           -1.626829307014    -0.845867642658    -0.004330399370    12.000000000000
         C            1.850795692986     0.411004357342     0.000534600630    12.000000000000
         C           -0.480493107014     0.136735457342    -0.001974299370    12.000000000000
         C           -2.993799307014    -0.176652642658     0.005248600630    12.000000000000
         C            3.078468692986    -0.470947642658     0.002243600630    12.000000000000
         H           -1.499205307014    -1.487570642658    -0.883377399370     1.007825032230
         H           -1.492602307014    -1.500614642658     0.863916600630     1.007825032230
         H            1.803039692986     1.053499357342    -0.883081399370     1.007825032230
         H            1.801225692986     1.054392357342     0.883391600630     1.007825032230
         H           -3.117672307014     0.463044357342    -0.870627399370     1.007825032230
         H           -3.785991307014    -0.929707642658     0.002116600630     1.007825032230
         H           -3.112110307014     0.449523357342     0.891655600630     1.007825032230
         H            3.981222692986     0.146480357342     0.002848600630     1.007825032230
         H            3.091919692986    -1.107552642658     0.889398600630     1.007825032230
         H            3.093739692986    -1.108480642658    -0.884214399370     1.007825032230

  Basis Set: AUG-CC-PVTZ
    Blend: AUG-CC-PVTZ
  Basis Set: (AUG-CC-PVTZ AUX)
    Blend: AUG-CC-PVTZ-JKFIT
	 Reference Energy          =    -345.0372017532793052 [Eh]
	 Singles Energy            =      -0.0000000000000000 [Eh]
	 Same-Spin Energy          =      -0.3400011169511256 [Eh]
	 Opposite-Spin Energy      =      -1.1306718842223340 [Eh]
	 Correlation Energy        =      -1.4706730011734597 [Eh]
	 Total Energy              =    -346.5078747544527573 [Eh]

	 ================> DF-SCS-MP2 Energies <==================
	-----------------------------------------------------------
	 SCS Same-Spin Scale       =       0.3333333333333333 [-]
	 SCS Opposite-Spin Scale   =       1.2000000000000000 [-]
	 SCS Same-Spin Energy      =      -0.1133337056503752 [Eh]
	 SCS Opposite-Spin Energy  =      -1.3568062610668008 [Eh]
	 SCS Correlation Energy    =      -1.4701399667171759 [Eh]
	 SCS Total Energy          =    -346.5073417199964751 [Eh]
	-----------------------------------------------------------

  Dipole Moment: [D]
     X:     1.0437      Y:    -1.7061      Z:    -0.0011     Total:     2.0000

*** Psi4 exiting successfully. Buy a developer a beer!
