                               Psi4 1.3.2 release

  ==> Input File <==

--------------------------------------------------------------------------
#psi4
#
memory 32 gb

molecule  {
0 1
  O        0.6994600    -0.4500560    -0.0003020
  O       -0.6284610     1.3947560    -0.0020030
  C       -1.6317410    -0.8217520    -0.0044580
  C        1.8458840     0.4351200     0.0004070
  C       -0.4675594     0.1357850    -0.0905108
  C       -2.9987110    -0.1525370     0.0051210
  C        3.0735570    -0.4468320     0.0021160
  H       -1.5041170    -1.4634550    -0.8835050
  H       -1.4975140    -1.4764990     0.8637890
  H        1.7981280     1.0776150    -0.8832090
  H        1.7963140     1.0785080     0.8832640
  H       -3.1225840     0.4871600    -0.8707550
  H       -3.7909030    -0.9055920     0.0019890
  H       -3.1170220     0.4736390     0.8915280
  H        3.9763110     0.1705960     0.0027210
  H        3.0870080    -1.0834370     0.8892710
  H        3.0888280    -1.0843650    -0.8843420
units angstrom
no_reorient  #important for SAPT in psi4, default
symmetry c1  #important for SAPT in psi4, default
}

set PROPERTIES_ORIGIN ["COM"]
properties('MP2/aug-cc-pvtz', properties = ['dipole'])
--------------------------------------------------------------------------

    Molecular point group: c1
  Charge       = 0
  Multiplicity = 1
  Basis Set: AUG-CC-PVTZ
    Blend: AUG-CC-PVTZ
  Basis Set: (AUG-CC-PVTZ AUX)
    Blend: AUG-CC-PVTZ-JKFIT

    Orbital Energies [Eh]
    ---------------------

    Doubly Occupied:

       1A    -20.612356     2A    -20.530939     3A    -11.380122
       4A    -11.293651     5A    -11.244390     6A    -11.228332
       7A    -11.218306     8A     -1.465246     9A     -1.321878
      10A     -1.071511    11A     -1.034016    12A     -0.911464
      13A     -0.848157    14A     -0.779222    15A     -0.691275
      16A     -0.687395    17A     -0.660295    18A     -0.627569
      19A     -0.574832    20A     -0.571885    21A     -0.560082
      22A     -0.522975    23A     -0.519822    24A     -0.510938
      25A     -0.507722    26A     -0.486895    27A     -0.448667
      28A     -0.436561

  @DF-RHF Final Energy:  -345.02805888769399

   => Energetics <=

    Nuclear Repulsion Energy =            312.1166263615113508
    One-Electron Energy =               -1088.7963608059299077
    Two-Electron Energy =                 431.6516755567245127
    Total Energy =                       -345.0280588876939873
  Basis Set: (AUG-CC-PVTZ AUX)
    Blend: AUG-CC-PVTZ-RI
    Molecular point group: c1

    Geometry (in Angstrom), charge = 0, multiplicity = 1:

       Center              X                  Y                   Z               Mass
    ------------   -----------------  -----------------  -----------------  -----------------
         O            0.702273634505    -0.471224656673     0.010219710175    15.994914619570
         O           -0.625647365495     1.373587343327     0.008518710175    15.994914619570
         C           -1.628927365495    -0.842920656673     0.006063710175    12.000000000000
         C            1.848697634505     0.413951343327     0.010928710175    12.000000000000
         C           -0.464745765495     0.114616343327    -0.079989089825    12.000000000000
         C           -2.995897365495    -0.173705656673     0.015642710175    12.000000000000
         C            3.076370634505    -0.468000656673     0.012637710175    12.000000000000
         H           -1.501303365495    -1.484623656673    -0.872983289825     1.007825032230
         H           -1.494700365495    -1.497667656673     0.874310710175     1.007825032230
         H            1.800941634505     1.056446343327    -0.872687289825     1.007825032230
         H            1.799127634505     1.057339343327     0.893785710175     1.007825032230
         H           -3.119770365495     0.465991343327    -0.860233289825     1.007825032230
         H           -3.788089365495    -0.926760656673     0.012510710175     1.007825032230
         H           -3.114208365495     0.452470343327     0.902049710175     1.007825032230
         H            3.979124634505     0.149427343327     0.013242710175     1.007825032230
         H            3.089821634505    -1.104605656673     0.899792710175     1.007825032230
         H            3.091641634505    -1.105533656673    -0.873820289825     1.007825032230

  Basis Set: AUG-CC-PVTZ
    Blend: AUG-CC-PVTZ
  Basis Set: (AUG-CC-PVTZ AUX)
    Blend: AUG-CC-PVTZ-JKFIT
	 Reference Energy          =    -345.0280588876939873 [Eh]
	 Singles Energy            =      -0.0000000000000000 [Eh]
	 Same-Spin Energy          =      -0.3406005811581704 [Eh]
	 Opposite-Spin Energy      =      -1.1319308149751119 [Eh]
	 Correlation Energy        =      -1.4725313961332824 [Eh]
	 Total Energy              =    -346.5005902838272505 [Eh]

	 ================> DF-SCS-MP2 Energies <==================
	-----------------------------------------------------------
	 SCS Same-Spin Scale       =       0.3333333333333333 [-]
	 SCS Opposite-Spin Scale   =       1.2000000000000000 [-]
	 SCS Same-Spin Energy      =      -0.1135335270527235 [Eh]
	 SCS Opposite-Spin Energy  =      -1.3583169779701343 [Eh]
	 SCS Correlation Energy    =      -1.4718505050228579 [Eh]
	 SCS Total Energy          =    -346.4999093927168587 [Eh]
	-----------------------------------------------------------

  Dipole Moment: [D]
     X:     1.2492      Y:    -1.8469      Z:    -0.0679     Total:     2.2308

*** Psi4 exiting successfully. Buy a developer a beer!
