                               Psi4 1.3.2 release

  ==> Input File <==

--------------------------------------------------------------------------
#psi4
#
memory 32 gb

molecule  {
0 1
  O        0.6994600    -0.4500560    -0.0003020
  O       -0.6284610     1.3947560    -0.0020030
  C       -1.6317410    -0.8217520    -0.0044580
  C        1.8458840     0.4351200     0.0004070
  C       -0.3256252     0.0877848    -0.0016680
  C       -2.9987110    -0.1525370     0.0051210
  C        3.0735570    -0.4468320     0.0021160
  H       -1.5041170    -1.4634550    -0.8835050
  H       -1.4975140    -1.4764990     0.8637890
  H        1.7981280     1.0776150    -0.8832090
  H        1.7963140     1.0785080     0.8832640
  H       -3.1225840     0.4871600    -0.8707550
  H       -3.7909030    -0.9055920     0.0019890
  H       -3.1170220     0.4736390     0.8915280
  H        3.9763110     0.1705960     0.0027210
  H        3.0870080    -1.0834370     0.8892710
  H        3.0888280    -1.0843650    -0.8843420
units angstrom
no_reorient  #important for SAPT in psi4, default
symmetry c1  #important for SAPT in psi4, default
}

set PROPERTIES_ORIGIN ["COM"]
properties('MP2/aug-cc-pvtz', properties = ['dipole'])
--------------------------------------------------------------------------

    Molecular point group: c1
  Charge       = 0
  Multiplicity = 1
  Basis Set: AUG-CC-PVTZ
    Blend: AUG-CC-PVTZ
  Basis Set: (AUG-CC-PVTZ AUX)
    Blend: AUG-CC-PVTZ-JKFIT

    Orbital Energies [Eh]
    ---------------------

    Doubly Occupied:

       1A    -20.648243     2A    -20.502438     3A    -11.374135
       4A    -11.313202     5A    -11.241218     6A    -11.238201
       7A    -11.209935     8A     -1.561813     9A     -1.272244
      10A     -1.087992    11A     -1.028258    12A     -0.924495
      13A     -0.851170    14A     -0.818350    15A     -0.732784
      16A     -0.695535    17A     -0.660965    18A     -0.624152
      19A     -0.590973    20A     -0.571785    21A     -0.559290
      22A     -0.542690    23A     -0.518094    24A     -0.516042
      25A     -0.487532    26A     -0.479259    27A     -0.423160
      28A     -0.402428

  @DF-RHF Final Energy:  -344.97925934126073

   => Energetics <=

    Nuclear Repulsion Energy =            313.3318553041361270
    One-Electron Energy =               -1090.8694614604582966
    Two-Electron Energy =                 432.5583468150614976
    Total Energy =                       -344.9792593412607289
  Basis Set: (AUG-CC-PVTZ AUX)
    Blend: AUG-CC-PVTZ-RI
    Molecular point group: c1

    Geometry (in Angstrom), charge = 0, multiplicity = 1:

       Center              X                  Y                   Z               Mass
    ------------   -----------------  -----------------  -----------------  -----------------
         O            0.685586631013    -0.465581340932    -0.000225412380    15.994914619570
         O           -0.642334368987     1.379230659068    -0.001926412380    15.994914619570
         C           -1.645614368987    -0.837277340932    -0.004381412380    12.000000000000
         C            1.832010631013     0.419594659068     0.000483587620    12.000000000000
         C           -0.339498568987     0.072259459068    -0.001591412380    12.000000000000
         C           -3.012584368987    -0.168062340932     0.005197587620    12.000000000000
         C            3.059683631013    -0.462357340932     0.002192587620    12.000000000000
         H           -1.517990368987    -1.478980340932    -0.883428412380     1.007825032230
         H           -1.511387368987    -1.492024340932     0.863865587620     1.007825032230
         H            1.784254631013     1.062089659068    -0.883132412380     1.007825032230
         H            1.782440631013     1.062982659068     0.883340587620     1.007825032230
         H           -3.136457368987     0.471634659068    -0.870678412380     1.007825032230
         H           -3.804776368987    -0.921117340932     0.002065587620     1.007825032230
         H           -3.130895368987     0.458113659068     0.891604587620     1.007825032230
         H            3.962437631013     0.155070659068     0.002797587620     1.007825032230
         H            3.073134631013    -1.098962340932     0.889347587620     1.007825032230
         H            3.074954631013    -1.099890340932    -0.884265412380     1.007825032230

  Basis Set: AUG-CC-PVTZ
    Blend: AUG-CC-PVTZ
  Basis Set: (AUG-CC-PVTZ AUX)
    Blend: AUG-CC-PVTZ-JKFIT
	 Reference Energy          =    -344.9792593412607289 [Eh]
	 Singles Energy            =      -0.0000000000000000 [Eh]
	 Same-Spin Energy          =      -0.3405516743666955 [Eh]
	 Opposite-Spin Energy      =      -1.1312498007864054 [Eh]
	 Correlation Energy        =      -1.4718014751531010 [Eh]
	 Total Energy              =    -346.4510608164138148 [Eh]

	 ================> DF-SCS-MP2 Energies <==================
	-----------------------------------------------------------
	 SCS Same-Spin Scale       =       0.3333333333333333 [-]
	 SCS Opposite-Spin Scale   =       1.2000000000000000 [-]
	 SCS Same-Spin Energy      =      -0.1135172247888985 [Eh]
	 SCS Opposite-Spin Energy  =      -1.3574997609436863 [Eh]
	 SCS Correlation Energy    =      -1.4710169857325848 [Eh]
	 SCS Total Energy          =    -346.4502763269933325 [Eh]
	-----------------------------------------------------------

  Dipole Moment: [D]
     X:     2.6246      Y:    -2.2807      Z:     0.0012     Total:     3.4771

*** Psi4 exiting successfully. Buy a developer a beer!
