                               Psi4 1.3.2 release

  ==> Input File <==

--------------------------------------------------------------------------
#psi4
#
memory 32 gb

molecule  {
0 1
  O        0.6994600    -0.4500560    -0.0003020
  O       -0.6284610     1.3947560    -0.0020030
  C       -1.6317410    -0.8217520    -0.0044580
  C        1.8458840     0.4351200     0.0004070
  C       -0.5223867     0.2013493     0.0424217
  C       -2.9987110    -0.1525370     0.0051210
  C        3.0735570    -0.4468320     0.0021160
  H       -1.5041170    -1.4634550    -0.8835050
  H       -1.4975140    -1.4764990     0.8637890
  H        1.7981280     1.0776150    -0.8832090
  H        1.7963140     1.0785080     0.8832640
  H       -3.1225840     0.4871600    -0.8707550
  H       -3.7909030    -0.9055920     0.0019890
  H       -3.1170220     0.4736390     0.8915280
  H        3.9763110     0.1705960     0.0027210
  H        3.0870080    -1.0834370     0.8892710
  H        3.0888280    -1.0843650    -0.8843420
units angstrom
no_reorient  #important for SAPT in psi4, default
symmetry c1  #important for SAPT in psi4, default
}

set PROPERTIES_ORIGIN ["COM"]
properties('MP2/aug-cc-pvtz', properties = ['dipole'])
--------------------------------------------------------------------------

    Molecular point group: c1
  Charge       = 0
  Multiplicity = 1
  Basis Set: AUG-CC-PVTZ
    Blend: AUG-CC-PVTZ
  Basis Set: (AUG-CC-PVTZ AUX)
    Blend: AUG-CC-PVTZ-JKFIT

    Orbital Energies [Eh]
    ---------------------

    Doubly Occupied:

       1A    -20.592324     2A    -20.548806     3A    -11.377191
       4A    -11.283908     5A    -11.244994     6A    -11.222121
       7A    -11.220278     8A     -1.447131     9A     -1.356374
      10A     -1.068618    11A     -1.025514    12A     -0.904550
      13A     -0.839314    14A     -0.764863    15A     -0.698017
      16A     -0.678864    17A     -0.662249    18A     -0.628832
      19A     -0.581591    20A     -0.566796    21A     -0.555316
      22A     -0.524568    23A     -0.517882    24A     -0.512194
      25A     -0.508100    26A     -0.494889    27A     -0.456034
      28A     -0.444803

  @DF-RHF Final Energy:  -345.03759644460797

   => Energetics <=

    Nuclear Repulsion Energy =            312.1228485717778085
    One-Electron Energy =               -1088.8686525967243597
    Two-Electron Energy =                 431.7082075803385806
    Total Energy =                       -345.0375964446079706
  Basis Set: (AUG-CC-PVTZ AUX)
    Blend: AUG-CC-PVTZ-RI
    Molecular point group: c1

    Geometry (in Angstrom), charge = 0, multiplicity = 1:

       Center              X                  Y                   Z               Mass
    ------------   -----------------  -----------------  -----------------  -----------------
         O            0.708719602753    -0.478932958851    -0.005408976157    15.994914619570
         O           -0.619201397247     1.365879041149    -0.007109976157    15.994914619570
         C           -1.622481397247    -0.850628958851    -0.009564976157    12.000000000000
         C            1.855143602753     0.406243041149    -0.004699976157    12.000000000000
         C           -0.513127097247     0.172472341149     0.037314723843    12.000000000000
         C           -2.989451397247    -0.181413958851     0.000014023843    12.000000000000
         C            3.082816602753    -0.475708958851    -0.002990976157    12.000000000000
         H           -1.494857397247    -1.492331958851    -0.888611976157     1.007825032230
         H           -1.488254397247    -1.505375958851     0.858682023843     1.007825032230
         H            1.807387602753     1.048738041149    -0.888315976157     1.007825032230
         H            1.805573602753     1.049631041149     0.878157023843     1.007825032230
         H           -3.113324397247     0.458283041149    -0.875861976157     1.007825032230
         H           -3.781643397247    -0.934468958851    -0.003117976157     1.007825032230
         H           -3.107762397247     0.444762041149     0.886421023843     1.007825032230
         H            3.985570602753     0.141719041149    -0.002385976157     1.007825032230
         H            3.096267602753    -1.112313958851     0.884164023843     1.007825032230
         H            3.098087602753    -1.113241958851    -0.889448976157     1.007825032230

  Basis Set: AUG-CC-PVTZ
    Blend: AUG-CC-PVTZ
  Basis Set: (AUG-CC-PVTZ AUX)
    Blend: AUG-CC-PVTZ-JKFIT
	 Reference Energy          =    -345.0375964446079706 [Eh]
	 Singles Energy            =      -0.0000000000000000 [Eh]
	 Same-Spin Energy          =      -0.3396480555585278 [Eh]
	 Opposite-Spin Energy      =      -1.1302311963793494 [Eh]
	 Correlation Energy        =      -1.4698792519378772 [Eh]
	 Total Energy              =    -346.5074756965458391 [Eh]

	 ================> DF-SCS-MP2 Energies <==================
	-----------------------------------------------------------
	 SCS Same-Spin Scale       =       0.3333333333333333 [-]
	 SCS Opposite-Spin Scale   =       1.2000000000000000 [-]
	 SCS Same-Spin Energy      =      -0.1132160185195093 [Eh]
	 SCS Opposite-Spin Energy  =      -1.3562774356552192 [Eh]
	 SCS Correlation Energy    =      -1.4694934541747284 [Eh]
	 SCS Total Energy          =    -346.5070898987826808 [Eh]
	-----------------------------------------------------------

  Dipole Moment: [D]
     X:     0.6089      Y:    -1.4459      Z:     0.0415     Total:     1.5695

*** Psi4 exiting successfully. Buy a developer a beer!
