                               Psi4 1.4a3.dev225

  ==> Input File <==

--------------------------------------------------------------------------
#psi4
#
memory 32 gb

molecule  {
0 1
  O        0.6994210    -0.4500590     0.0000070
  O       -0.6284480     1.3945490     0.0000020
  C       -1.6317860    -0.8218820     0.0000110
  C        1.8459670     0.4353080     0.0000040
  C       -0.4583741     0.1572726     0.0000051
  C       -2.9986830    -0.1522840    -0.0000150
  C        3.0735530    -0.4467850    -0.0000110
  H       -1.5010890    -1.4699950    -0.8737300
  H       -1.5011070    -1.4699580     0.8737830
  H        1.7972070     1.0780770    -0.8832610
  H        1.7972200     1.0780650     0.8832780
  H       -3.1198680     0.4807080    -0.8811490
  H       -3.7908920    -0.9053640    -0.0000550
  H       -3.1199230     0.4806680     0.8811400
  H        3.9762390     0.1706970    -0.0000130
  H        3.0880200    -1.0839810     0.8867310
  H        3.0880080    -1.0839670    -0.8867630
units angstrom
no_reorient  #important for SAPT in psi4, default
symmetry c1  #important for SAPT in psi4, default
}

set PROPERTIES_ORIGIN ["COM"]
properties('MP2/aug-cc-pvtz', properties = ['dipole'])
--------------------------------------------------------------------------

    Molecular point group: c1
  Charge       = 0
  Multiplicity = 1
  Basis Set: AUG-CC-PVTZ
    Blend: AUG-CC-PVTZ
  Basis Set: (AUG-CC-PVTZ AUX)
    Blend: AUG-CC-PVTZ-JKFIT

    Orbital Energies [Eh]
    ---------------------

    Doubly Occupied:

       1A    -20.611876     2A    -20.533131     3A    -11.377276
       4A    -11.293617     5A    -11.242571     6A    -11.228416
       7A    -11.217039     8A     -1.467632     9A     -1.336035
      10A     -1.068411    11A     -1.032585    12A     -0.908636
      13A     -0.846441    14A     -0.779997    15A     -0.692086
      16A     -0.687697    17A     -0.662984    18A     -0.626094
      19A     -0.577319    20A     -0.572976    21A     -0.559973
      22A     -0.522056    23A     -0.518794    24A     -0.510330
      25A     -0.510148    26A     -0.488069    27A     -0.454844
      28A     -0.436678

  @DF-RHF Final Energy:  -345.03570260477989

   => Energetics <=

    Nuclear Repulsion Energy =            312.3694519019820746
    One-Electron Energy =               -1089.2828809175266542
    Two-Electron Energy =                 431.8777264107646943
    Total Energy =                       -345.0357026047798854
  Basis Set: (AUG-CC-PVTZ AUX)
    Blend: AUG-CC-PVTZ-RI
    Molecular point group: c1

    Geometry (in Angstrom), charge = 0, multiplicity = 1:

       Center              X                  Y                   Z               Mass
    ------------   -----------------  -----------------  -----------------  -----------------
         O            0.701157777062    -0.473770806035     0.000006668368    15.994914619570
         O           -0.626711222938     1.370837193965     0.000001668368    15.994914619570
         C           -1.630049222938    -0.845593806035     0.000010668368    12.000000000000
         C            1.847703777062     0.411596193965     0.000003668368    12.000000000000
         C           -0.456637322938     0.133560793965     0.000004768368    12.000000000000
         C           -2.996946222938    -0.175995806035    -0.000015331632    12.000000000000
         C            3.075289777062    -0.470496806035    -0.000011331632    12.000000000000
         H           -1.499352222938    -1.493706806035    -0.873730331632     1.007825032230
         H           -1.499370222938    -1.493669806035     0.873782668368     1.007825032230
         H            1.798943777062     1.054365193965    -0.883261331632     1.007825032230
         H            1.798956777062     1.054353193965     0.883277668368     1.007825032230
         H           -3.118131222938     0.456996193965    -0.881149331632     1.007825032230
         H           -3.789155222938    -0.929075806035    -0.000055331632     1.007825032230
         H           -3.118186222938     0.456956193965     0.881139668368     1.007825032230
         H            3.977975777062     0.146985193965    -0.000013331632     1.007825032230
         H            3.089756777062    -1.107692806035     0.886730668368     1.007825032230
         H            3.089744777062    -1.107678806035    -0.886763331632     1.007825032230

  Basis Set: AUG-CC-PVTZ
    Blend: AUG-CC-PVTZ
  Basis Set: (AUG-CC-PVTZ AUX)
    Blend: AUG-CC-PVTZ-JKFIT
	 Reference Energy          =    -345.0357026047798854 [Eh]
	 Singles Energy            =      -0.0000000000000000 [Eh]
	 Same-Spin Energy          =      -0.3398639066232144 [Eh]
	 Opposite-Spin Energy      =      -1.1303636293819663 [Eh]
	 Correlation Energy        =      -1.4702275360051806 [Eh]
	 Total Energy              =    -346.5059301407850398 [Eh]

	 ================> DF-SCS-MP2 Energies <==================
	-----------------------------------------------------------
	 SCS Same-Spin Scale       =       0.3333333333333333 [-]
	 SCS Opposite-Spin Scale   =       1.2000000000000000 [-]
	 SCS Same-Spin Energy      =      -0.1132879688744048 [Eh]
	 SCS Opposite-Spin Energy  =      -1.3564363552583596 [Eh]
	 SCS Correlation Energy    =      -1.4697243241327644 [Eh]
	 SCS Total Energy          =    -346.5054269289126410 [Eh]
	-----------------------------------------------------------

  Dipole Moment: [D]
     X:     1.2951      Y:    -1.7439      Z:     0.0000     Total:     2.1722

*** Psi4 exiting successfully. Buy a developer a beer!
