                               Psi4 1.3.2 release

  ==> Input File <==

--------------------------------------------------------------------------
#psi4
#
memory 32 gb

molecule  {
0 1
  O        0.6994600    -0.4500560    -0.0003020
  O       -0.6284610     1.3947560    -0.0020030
  C       -1.6317410    -0.8217520    -0.0044580
  C        1.8458840     0.4351200     0.0004070
  C       -0.4279507     0.2471023    -0.0017348
  C       -2.9987110    -0.1525370     0.0051210
  C        3.0735570    -0.4468320     0.0021160
  H       -1.5041170    -1.4634550    -0.8835050
  H       -1.4975140    -1.4764990     0.8637890
  H        1.7981280     1.0776150    -0.8832090
  H        1.7963140     1.0785080     0.8832640
  H       -3.1225840     0.4871600    -0.8707550
  H       -3.7909030    -0.9055920     0.0019890
  H       -3.1170220     0.4736390     0.8915280
  H        3.9763110     0.1705960     0.0027210
  H        3.0870080    -1.0834370     0.8892710
  H        3.0888280    -1.0843650    -0.8843420
units angstrom
no_reorient  #important for SAPT in psi4, default
symmetry c1  #important for SAPT in psi4, default
}

set PROPERTIES_ORIGIN ["COM"]
properties('MP2/aug-cc-pvtz', properties = ['dipole'])
--------------------------------------------------------------------------

    Molecular point group: c1
  Charge       = 0
  Multiplicity = 1
  Basis Set: AUG-CC-PVTZ
    Blend: AUG-CC-PVTZ
  Basis Set: (AUG-CC-PVTZ AUX)
    Blend: AUG-CC-PVTZ-JKFIT

    Orbital Energies [Eh]
    ---------------------

    Doubly Occupied:

       1A    -20.607275     2A    -20.547572     3A    -11.370975
       4A    -11.291572     5A    -11.235750     6A    -11.227388
       7A    -11.212498     8A     -1.474943     9A     -1.386573
      10A     -1.056236    11A     -1.024474    12A     -0.896090
      13A     -0.838165    14A     -0.779586    15A     -0.697100
      16A     -0.692550    17A     -0.670873    18A     -0.620771
      19A     -0.585933    20A     -0.576341    21A     -0.557521
      22A     -0.523288    23A     -0.519526    24A     -0.516881
      25A     -0.510335    26A     -0.491164    27A     -0.468317
      28A     -0.425212

  @DF-RHF Final Energy:  -345.03185362203806

   => Energetics <=

    Nuclear Repulsion Energy =            312.8928991493663716
    One-Electron Energy =               -1090.2396802181478961
    Two-Electron Energy =                 432.3149274467434680
    Total Energy =                       -345.0318536220380565
  Basis Set: (AUG-CC-PVTZ AUX)
    Blend: AUG-CC-PVTZ-RI
    Molecular point group: c1

    Geometry (in Angstrom), charge = 0, multiplicity = 1:

       Center              X                  Y                   Z               Mass
    ------------   -----------------  -----------------  -----------------  -----------------
         O            0.697616895571    -0.484312074461    -0.000217558798    15.994914619570
         O           -0.630304104429     1.360499925539    -0.001918558798    15.994914619570
         C           -1.633584104429    -0.856008074461    -0.004373558798    12.000000000000
         C            1.844040895571     0.400863925539     0.000491441202    12.000000000000
         C           -0.429793804429     0.212846225539    -0.001650358798    12.000000000000
         C           -3.000554104429    -0.186793074461     0.005205441202    12.000000000000
         C            3.071713895571    -0.481088074461     0.002200441202    12.000000000000
         H           -1.505960104429    -1.497711074461    -0.883420558798     1.007825032230
         H           -1.499357104429    -1.510755074461     0.863873441202     1.007825032230
         H            1.796284895571     1.043358925539    -0.883124558798     1.007825032230
         H            1.794470895571     1.044251925539     0.883348441202     1.007825032230
         H           -3.124427104429     0.452903925539    -0.870670558798     1.007825032230
         H           -3.792746104429    -0.939848074461     0.002073441202     1.007825032230
         H           -3.118865104429     0.439382925539     0.891612441202     1.007825032230
         H            3.974467895571     0.136339925539     0.002805441202     1.007825032230
         H            3.085164895571    -1.117693074461     0.889355441202     1.007825032230
         H            3.086984895571    -1.118621074461    -0.884257558798     1.007825032230

  Basis Set: AUG-CC-PVTZ
    Blend: AUG-CC-PVTZ
  Basis Set: (AUG-CC-PVTZ AUX)
    Blend: AUG-CC-PVTZ-JKFIT
	 Reference Energy          =    -345.0318536220380565 [Eh]
	 Singles Energy            =      -0.0000000000000000 [Eh]
	 Same-Spin Energy          =      -0.3384504667767778 [Eh]
	 Opposite-Spin Energy      =      -1.1278848744668344 [Eh]
	 Correlation Energy        =      -1.4663353412436122 [Eh]
	 Total Energy              =    -346.4981889632816774 [Eh]

	 ================> DF-SCS-MP2 Energies <==================
	-----------------------------------------------------------
	 SCS Same-Spin Scale       =       0.3333333333333333 [-]
	 SCS Opposite-Spin Scale   =       1.2000000000000000 [-]
	 SCS Same-Spin Energy      =      -0.1128168222589259 [Eh]
	 SCS Opposite-Spin Energy  =      -1.3534618493602013 [Eh]
	 SCS Correlation Energy    =      -1.4662786716191272 [Eh]
	 SCS Total Energy          =    -346.4981322936571928 [Eh]
	-----------------------------------------------------------

  Dipole Moment: [D]
     X:     1.3752      Y:    -1.2103      Z:    -0.0002     Total:     1.8320

*** Psi4 exiting successfully. Buy a developer a beer!
