                               Psi4 1.3.2 release

  ==> Input File <==

--------------------------------------------------------------------------
#psi4
#
memory 32 gb

molecule  {
0 1
  O        0.6994600    -0.4500560    -0.0003020
  O       -0.6284610     1.3947560    -0.0020030
  C       -1.6317410    -0.8217520    -0.0044580
  C        1.8458840     0.4351200     0.0004070
  C       -0.5130294     0.2801750    -0.0019121
  C       -2.9987110    -0.1525370     0.0051210
  C        3.0735570    -0.4468320     0.0021160
  H       -1.5041170    -1.4634550    -0.8835050
  H       -1.4975140    -1.4764990     0.8637890
  H        1.7981280     1.0776150    -0.8832090
  H        1.7963140     1.0785080     0.8832640
  H       -3.1225840     0.4871600    -0.8707550
  H       -3.7909030    -0.9055920     0.0019890
  H       -3.1170220     0.4736390     0.8915280
  H        3.9763110     0.1705960     0.0027210
  H        3.0870080    -1.0834370     0.8892710
  H        3.0888280    -1.0843650    -0.8843420
units angstrom
no_reorient  #important for SAPT in psi4, default
symmetry c1  #important for SAPT in psi4, default
}

set PROPERTIES_ORIGIN ["COM"]
properties('MP2/aug-cc-pvtz', properties = ['dipole'])
--------------------------------------------------------------------------

    Molecular point group: c1
  Charge       = 0
  Multiplicity = 1
  Basis Set: AUG-CC-PVTZ
    Blend: AUG-CC-PVTZ
  Basis Set: (AUG-CC-PVTZ AUX)
    Blend: AUG-CC-PVTZ-JKFIT

    Orbital Energies [Eh]
    ---------------------

    Doubly Occupied:

       1A    -20.583139     2A    -20.561971     3A    -11.369613
       4A    -11.280063     5A    -11.241428     6A    -11.219756
       7A    -11.217655     8A     -1.484674     9A     -1.370219
      10A     -1.056314    11A     -1.020046    12A     -0.892376
      13A     -0.833246    14A     -0.763425    15A     -0.709448
      16A     -0.678953    17A     -0.675500    18A     -0.626362
      19A     -0.583663    20A     -0.577562    21A     -0.551665
      22A     -0.530837    23A     -0.520530    24A     -0.515963
      25A     -0.506099    26A     -0.499014    27A     -0.455716
      28A     -0.433271

  @DF-RHF Final Energy:  -345.02595394317348

   => Energetics <=

    Nuclear Repulsion Energy =            312.6361788298605120
    One-Electron Energy =               -1089.8072481448082272
    Two-Electron Energy =                 432.1451153717742955
    Total Energy =                       -345.0259539431734765
  Basis Set: (AUG-CC-PVTZ AUX)
    Blend: AUG-CC-PVTZ-RI
    Molecular point group: c1

    Geometry (in Angstrom), charge = 0, multiplicity = 1:

       Center              X                  Y                   Z               Mass
    ------------   -----------------  -----------------  -----------------  -----------------
         O            0.707619478204    -0.488200385103    -0.000196713888    15.994914619570
         O           -0.620301521796     1.356611614897    -0.001897713888    15.994914619570
         C           -1.623581521796    -0.859896385103    -0.004352713888    12.000000000000
         C            1.854043478204     0.396975614897     0.000512286112    12.000000000000
         C           -0.504869921796     0.242030614897    -0.001806813888    12.000000000000
         C           -2.990551521796    -0.190681385103     0.005226286112    12.000000000000
         C            3.081716478204    -0.484976385103     0.002221286112    12.000000000000
         H           -1.495957521796    -1.501599385103    -0.883399713888     1.007825032230
         H           -1.489354521796    -1.514643385103     0.863894286112     1.007825032230
         H            1.806287478204     1.039470614897    -0.883103713888     1.007825032230
         H            1.804473478204     1.040363614897     0.883369286112     1.007825032230
         H           -3.114424521796     0.449015614897    -0.870649713888     1.007825032230
         H           -3.782743521796    -0.943736385103     0.002094286112     1.007825032230
         H           -3.108862521796     0.435494614897     0.891633286112     1.007825032230
         H            3.984470478204     0.132451614897     0.002826286112     1.007825032230
         H            3.095167478204    -1.121581385103     0.889376286112     1.007825032230
         H            3.096987478204    -1.122509385103    -0.884236713888     1.007825032230

  Basis Set: AUG-CC-PVTZ
    Blend: AUG-CC-PVTZ
  Basis Set: (AUG-CC-PVTZ AUX)
    Blend: AUG-CC-PVTZ-JKFIT
	 Reference Energy          =    -345.0259539431734765 [Eh]
	 Singles Energy            =      -0.0000000000000000 [Eh]
	 Same-Spin Energy          =      -0.3382285520525469 [Eh]
	 Opposite-Spin Energy      =      -1.1276868949949233 [Eh]
	 Correlation Energy        =      -1.4659154470474700 [Eh]
	 Total Energy              =    -346.4918693902209270 [Eh]

	 ================> DF-SCS-MP2 Energies <==================
	-----------------------------------------------------------
	 SCS Same-Spin Scale       =       0.3333333333333333 [-]
	 SCS Opposite-Spin Scale   =       1.2000000000000000 [-]
	 SCS Same-Spin Energy      =      -0.1127428506841823 [Eh]
	 SCS Opposite-Spin Energy  =      -1.3532242739939078 [Eh]
	 SCS Correlation Energy    =      -1.4659671246780901 [Eh]
	 SCS Total Energy          =    -346.4919210678515924 [Eh]
	-----------------------------------------------------------

  Dipole Moment: [D]
     X:     0.4898      Y:    -0.9568      Z:    -0.0014     Total:     1.0749

*** Psi4 exiting successfully. Buy a developer a beer!
