                               Psi4 1.3.2 release

  ==> Input File <==

--------------------------------------------------------------------------
#psi4
#
memory 32 gb

molecule  {
0 1
  O        0.6576965    -0.3828801    -0.1296365
  O       -0.6284610     1.3947560    -0.0020030
  C       -1.6317410    -0.8217520    -0.0044580
  C        1.8458840     0.4351200     0.0004070
  C       -0.5027280     0.1807070    -0.0019040
  C       -2.9987110    -0.1525370     0.0051210
  C        3.0735570    -0.4468320     0.0021160
  H       -1.5041170    -1.4634550    -0.8835050
  H       -1.4975140    -1.4764990     0.8637890
  H        1.7981280     1.0776150    -0.8832090
  H        1.7963140     1.0785080     0.8832640
  H       -3.1225840     0.4871600    -0.8707550
  H       -3.7909030    -0.9055920     0.0019890
  H       -3.1170220     0.4736390     0.8915280
  H        3.9763110     0.1705960     0.0027210
  H        3.0870080    -1.0834370     0.8892710
  H        3.0888280    -1.0843650    -0.8843420
units angstrom
no_reorient  #important for SAPT in psi4, default
symmetry c1  #important for SAPT in psi4, default
}

set PROPERTIES_ORIGIN ["COM"]
properties('MP2/aug-cc-pvtz', properties = ['dipole'])
--------------------------------------------------------------------------

    Molecular point group: c1
  Charge       = 0
  Multiplicity = 1
  Basis Set: AUG-CC-PVTZ
    Blend: AUG-CC-PVTZ
  Basis Set: (AUG-CC-PVTZ AUX)
    Blend: AUG-CC-PVTZ-JKFIT

    Orbital Energies [Eh]
    ---------------------

    Doubly Occupied:

       1A    -20.599245     2A    -20.528683     3A    -11.368283
       4A    -11.292269     5A    -11.241878     6A    -11.229222
       7A    -11.217279     8A     -1.470299     9A     -1.343335
      10A     -1.070882    11A     -1.033909    12A     -0.911257
      13A     -0.847210    14A     -0.773759    15A     -0.692554
      16A     -0.690648    17A     -0.663658    18A     -0.627141
      19A     -0.579443    20A     -0.574845    21A     -0.561281
      22A     -0.524656    23A     -0.519343    24A     -0.511499
      25A     -0.501981    26A     -0.489336    27A     -0.450942
      28A     -0.438738

  @DF-RHF Final Energy:  -345.03748979541467

   => Energetics <=

    Nuclear Repulsion Energy =            313.5811587277113404
    One-Electron Energy =               -1091.7301420191620309
    Two-Electron Energy =                 433.1114934960360188
    Total Energy =                       -345.0374897954146718
  Basis Set: (AUG-CC-PVTZ AUX)
    Blend: AUG-CC-PVTZ-RI
    Molecular point group: c1

    Geometry (in Angstrom), charge = 0, multiplicity = 1:

       Center              X                  Y                   Z               Mass
    ------------   -----------------  -----------------  -----------------  -----------------
         O            0.671189543987    -0.419857193472    -0.109264377343    15.994914619570
         O           -0.614967956013     1.357778906528     0.018369122657    15.994914619570
         C           -1.618247956013    -0.858729093472     0.015914122657    12.000000000000
         C            1.859377043987     0.398142906528     0.020779122657    12.000000000000
         C           -0.489234956013     0.143729906528     0.018468122657    12.000000000000
         C           -2.985217956013    -0.189514093472     0.025493122657    12.000000000000
         C            3.087050043987    -0.483809093472     0.022488122657    12.000000000000
         H           -1.490623956013    -1.500432093472    -0.863132877343     1.007825032230
         H           -1.484020956013    -1.513476093472     0.884161122657     1.007825032230
         H            1.811621043987     1.040637906528    -0.862836877343     1.007825032230
         H            1.809807043987     1.041530906528     0.903636122657     1.007825032230
         H           -3.109090956013     0.450182906528    -0.850382877343     1.007825032230
         H           -3.777409956013    -0.942569093472     0.022361122657     1.007825032230
         H           -3.103528956013     0.436661906528     0.911900122657     1.007825032230
         H            3.989804043987     0.133618906528     0.023093122657     1.007825032230
         H            3.100501043987    -1.120414093472     0.909643122657     1.007825032230
         H            3.102321043987    -1.121342093472    -0.863969877343     1.007825032230

  Basis Set: AUG-CC-PVTZ
    Blend: AUG-CC-PVTZ
  Basis Set: (AUG-CC-PVTZ AUX)
    Blend: AUG-CC-PVTZ-JKFIT
	 Reference Energy          =    -345.0374897954146718 [Eh]
	 Singles Energy            =      -0.0000000000000000 [Eh]
	 Same-Spin Energy          =      -0.3388921599047421 [Eh]
	 Opposite-Spin Energy      =      -1.1277037884963272 [Eh]
	 Correlation Energy        =      -1.4665959484010693 [Eh]
	 Total Energy              =    -346.5040857438157218 [Eh]

	 ================> DF-SCS-MP2 Energies <==================
	-----------------------------------------------------------
	 SCS Same-Spin Scale       =       0.3333333333333333 [-]
	 SCS Opposite-Spin Scale   =       1.2000000000000000 [-]
	 SCS Same-Spin Energy      =      -0.1129640533015807 [Eh]
	 SCS Opposite-Spin Energy  =      -1.3532445461955926 [Eh]
	 SCS Correlation Energy    =      -1.4662085994971734 [Eh]
	 SCS Total Energy          =    -346.5036983949118508 [Eh]
	-----------------------------------------------------------

  Dipole Moment: [D]
     X:     1.2384      Y:    -1.8078      Z:     0.1438     Total:     2.1960

*** Psi4 exiting successfully. Buy a developer a beer!
