                               Psi4 1.4a3.dev225

  ==> Input File <==

--------------------------------------------------------------------------
#psi4
#
memory 32 gb

molecule  {
0 1
  O        0.6994210    -0.4500590     0.0000070
  O       -0.6284480     1.3945490     0.0000020
  C       -1.6317860    -0.8218820     0.0000110
  C        1.8459670     0.4353080     0.0000040
  C       -0.5005907     0.1606055     0.0000050
  C       -2.9986830    -0.1522840    -0.0000150
  C        3.0735530    -0.4467850    -0.0000110
  H       -1.5010890    -1.4699950    -0.8737300
  H       -1.5011070    -1.4699580     0.8737830
  H        1.7972070     1.0780770    -0.8832610
  H        1.7972200     1.0780650     0.8832780
  H       -3.1198680     0.4807080    -0.8811490
  H       -3.7908920    -0.9053640    -0.0000550
  H       -3.1199230     0.4806680     0.8811400
  H        3.9762390     0.1706970    -0.0000130
  H        3.0880200    -1.0839810     0.8867310
  H        3.0880080    -1.0839670    -0.8867630
units angstrom
no_reorient  #important for SAPT in psi4, default
symmetry c1  #important for SAPT in psi4, default
}

set PROPERTIES_ORIGIN ["COM"]
properties('MP2/aug-cc-pvtz', properties = ['dipole'])
--------------------------------------------------------------------------

    Molecular point group: c1
  Charge       = 0
  Multiplicity = 1
  Basis Set: AUG-CC-PVTZ
    Blend: AUG-CC-PVTZ
  Basis Set: (AUG-CC-PVTZ AUX)
    Blend: AUG-CC-PVTZ-JKFIT

    Orbital Energies [Eh]
    ---------------------

    Doubly Occupied:

       1A    -20.602390     2A    -20.538602     3A    -11.378952
       4A    -11.288817     5A    -11.244794     6A    -11.225225
       7A    -11.219829     8A     -1.450348     9A     -1.339437
      10A     -1.071655    11A     -1.030618    12A     -0.909329
      13A     -0.844450    14A     -0.771027    15A     -0.693016
      16A     -0.684418    17A     -0.658615    18A     -0.629175
      19A     -0.578644    20A     -0.567985    21A     -0.557963
      22A     -0.520936    23A     -0.520233    24A     -0.511076
      25A     -0.509945    26A     -0.488705    27A     -0.454474
      28A     -0.443035

  @DF-RHF Final Energy:  -345.03699734013776

   => Energetics <=

    Nuclear Repulsion Energy =            312.1206377030508747
    One-Electron Energy =               -1088.8478813595229440
    Two-Electron Energy =                 431.6902463163343100
    Total Energy =                       -345.0369973401377592
  Basis Set: (AUG-CC-PVTZ AUX)
    Blend: AUG-CC-PVTZ-RI
    Molecular point group: c1

    Geometry (in Angstrom), charge = 0, multiplicity = 1:

       Center              X                  Y                   Z               Mass
    ------------   -----------------  -----------------  -----------------  -----------------
         O            0.706121123116    -0.474162650382     0.000006680125    15.994914619570
         O           -0.621747876884     1.370445349618     0.000001680125    15.994914619570
         C           -1.625085876884    -0.845985650382     0.000010680125    12.000000000000
         C            1.852667123116     0.411204349618     0.000003680125    12.000000000000
         C           -0.493890576884     0.136501849618     0.000004680125    12.000000000000
         C           -2.991982876884    -0.176387650382    -0.000015319875    12.000000000000
         C            3.080253123116    -0.470888650382    -0.000011319875    12.000000000000
         H           -1.494388876884    -1.494098650382    -0.873730319875     1.007825032230
         H           -1.494406876884    -1.494061650382     0.873782680125     1.007825032230
         H            1.803907123116     1.053973349618    -0.883261319875     1.007825032230
         H            1.803920123116     1.053961349618     0.883277680125     1.007825032230
         H           -3.113167876884     0.456604349618    -0.881149319875     1.007825032230
         H           -3.784191876884    -0.929467650382    -0.000055319875     1.007825032230
         H           -3.113222876884     0.456564349618     0.881139680125     1.007825032230
         H            3.982939123116     0.146593349618    -0.000013319875     1.007825032230
         H            3.094720123116    -1.108084650382     0.886730680125     1.007825032230
         H            3.094708123116    -1.108070650382    -0.886763319875     1.007825032230

  Basis Set: AUG-CC-PVTZ
    Blend: AUG-CC-PVTZ
  Basis Set: (AUG-CC-PVTZ AUX)
    Blend: AUG-CC-PVTZ-JKFIT
	 Reference Energy          =    -345.0369973401377592 [Eh]
	 Singles Energy            =      -0.0000000000000000 [Eh]
	 Same-Spin Energy          =      -0.3401403738215989 [Eh]
	 Opposite-Spin Energy      =      -1.1309558319191935 [Eh]
	 Correlation Energy        =      -1.4710962057407924 [Eh]
	 Total Energy              =    -346.5080935458785234 [Eh]

	 ================> DF-SCS-MP2 Energies <==================
	-----------------------------------------------------------
	 SCS Same-Spin Scale       =       0.3333333333333333 [-]
	 SCS Opposite-Spin Scale   =       1.2000000000000000 [-]
	 SCS Same-Spin Energy      =      -0.1133801246071996 [Eh]
	 SCS Opposite-Spin Energy  =      -1.3571469983030322 [Eh]
	 SCS Correlation Energy    =      -1.4705271229102319 [Eh]
	 SCS Total Energy          =    -346.5075244630480142 [Eh]
	-----------------------------------------------------------

  Dipole Moment: [D]
     X:     0.9084      Y:    -1.6963      Z:     0.0000     Total:     1.9242

*** Psi4 exiting successfully. Buy a developer a beer!
