                               Psi4 1.3.2 release

  ==> Input File <==

--------------------------------------------------------------------------
#psi4
#
memory 32 gb

molecule  {
0 1
  O        0.6994600    -0.4500560    -0.0003020
  O       -0.6284610     1.3947560    -0.0020030
  C       -1.6317410    -0.8217520    -0.0044580
  C        2.0041875     0.5573492     0.0005049
  C       -0.5027280     0.1807070    -0.0019040
  C       -2.9987110    -0.1525370     0.0051210
  C        3.0735570    -0.4468320     0.0021160
  H       -1.5041170    -1.4634550    -0.8835050
  H       -1.4975140    -1.4764990     0.8637890
  H        1.7981280     1.0776150    -0.8832090
  H        1.7963140     1.0785080     0.8832640
  H       -3.1225840     0.4871600    -0.8707550
  H       -3.7909030    -0.9055920     0.0019890
  H       -3.1170220     0.4736390     0.8915280
  H        3.9763110     0.1705960     0.0027210
  H        3.0870080    -1.0834370     0.8892710
  H        3.0888280    -1.0843650    -0.8843420
units angstrom
no_reorient  #important for SAPT in psi4, default
symmetry c1  #important for SAPT in psi4, default
}

set PROPERTIES_ORIGIN ["COM"]
properties('MP2/aug-cc-pvtz', properties = ['dipole'])
--------------------------------------------------------------------------

    Molecular point group: c1
  Charge       = 0
  Multiplicity = 1
  Basis Set: AUG-CC-PVTZ
    Blend: AUG-CC-PVTZ
  Basis Set: (AUG-CC-PVTZ AUX)
    Blend: AUG-CC-PVTZ-JKFIT

    Orbital Energies [Eh]
    ---------------------

    Doubly Occupied:

       1A    -20.573041     2A    -20.528808     3A    -11.362863
       4A    -11.300637     5A    -11.234819     6A    -11.233829
       7A    -11.212696     8A     -1.414238     9A     -1.317849
      10A     -1.068504    11A     -1.039390    12A     -0.894062
      13A     -0.853692    14A     -0.743985    15A     -0.682275
      16A     -0.676401    17A     -0.641983    18A     -0.630062
      19A     -0.587078    20A     -0.562167    21A     -0.553627
      22A     -0.539790    23A     -0.525998    24A     -0.512289
      25A     -0.488140    26A     -0.477010    27A     -0.448729
      28A     -0.428497

  @DF-RHF Final Energy:  -345.01083852569241

   => Energetics <=

    Nuclear Repulsion Energy =            309.3522267631445857
    One-Electron Energy =               -1083.6612116051246630
    Two-Electron Energy =                 429.2981463162876707
    Total Energy =                       -345.0108385256924066
  Basis Set: (AUG-CC-PVTZ AUX)
    Blend: AUG-CC-PVTZ-RI
    Molecular point group: c1

    Geometry (in Angstrom), charge = 0, multiplicity = 1:

       Center              X                  Y                   Z               Mass
    ------------   -----------------  -----------------  -----------------  -----------------
         O            0.687796838171    -0.490876387249    -0.000209176158    15.994914619570
         O           -0.640124161829     1.353935612751    -0.001910176158    15.994914619570
         C           -1.643404161829    -0.862572387249    -0.004365176158    12.000000000000
         C            1.992524338171     0.516528812751     0.000597723842    12.000000000000
         C           -0.514391161829     0.139886612751    -0.001811176158    12.000000000000
         C           -3.010374161829    -0.193357387249     0.005213823842    12.000000000000
         C            3.061893838171    -0.487652387249     0.002208823842    12.000000000000
         H           -1.515780161829    -1.504275387249    -0.883412176158     1.007825032230
         H           -1.509177161829    -1.517319387249     0.863881823842     1.007825032230
         H            1.786464838171     1.036794612751    -0.883116176158     1.007825032230
         H            1.784650838171     1.037687612751     0.883356823842     1.007825032230
         H           -3.134247161829     0.446339612751    -0.870662176158     1.007825032230
         H           -3.802566161829    -0.946412387249     0.002081823842     1.007825032230
         H           -3.128685161829     0.432818612751     0.891620823842     1.007825032230
         H            3.964647838171     0.129775612751     0.002813823842     1.007825032230
         H            3.075344838171    -1.124257387249     0.889363823842     1.007825032230
         H            3.077164838171    -1.125185387249    -0.884249176158     1.007825032230

  Basis Set: AUG-CC-PVTZ
    Blend: AUG-CC-PVTZ
  Basis Set: (AUG-CC-PVTZ AUX)
    Blend: AUG-CC-PVTZ-JKFIT
	 Reference Energy          =    -345.0108385256924066 [Eh]
	 Singles Energy            =      -0.0000000000000000 [Eh]
	 Same-Spin Energy          =      -0.3410597517251466 [Eh]
	 Opposite-Spin Energy      =      -1.1337432148754747 [Eh]
	 Correlation Energy        =      -1.4748029666006213 [Eh]
	 Total Energy              =    -346.4856414922930412 [Eh]

	 ================> DF-SCS-MP2 Energies <==================
	-----------------------------------------------------------
	 SCS Same-Spin Scale       =       0.3333333333333333 [-]
	 SCS Opposite-Spin Scale   =       1.2000000000000000 [-]
	 SCS Same-Spin Energy      =      -0.1136865839083822 [Eh]
	 SCS Opposite-Spin Energy  =      -1.3604918578505696 [Eh]
	 SCS Correlation Energy    =      -1.4741784417589519 [Eh]
	 SCS Total Energy          =    -346.4850169674513722 [Eh]
	-----------------------------------------------------------

  Dipole Moment: [D]
     X:     1.6777      Y:    -1.4045      Z:    -0.0005     Total:     2.1880

*** Psi4 exiting successfully. Buy a developer a beer!
