                               Psi4 1.3.2 release

  ==> Input File <==

--------------------------------------------------------------------------
#psi4
#
memory 32 gb

molecule  {
0 1
  O        0.6994600    -0.4500560    -0.0003020
  O       -0.6284610     1.3947560    -0.0020030
  C       -1.6317410    -0.8217520    -0.0044580
  C        1.8458840     0.4351200     0.0004070
  C       -0.4924266     0.0812390    -0.0018959
  C       -2.9987110    -0.1525370     0.0051210
  C        3.0735570    -0.4468320     0.0021160
  H       -1.5041170    -1.4634550    -0.8835050
  H       -1.4975140    -1.4764990     0.8637890
  H        1.7981280     1.0776150    -0.8832090
  H        1.7963140     1.0785080     0.8832640
  H       -3.1225840     0.4871600    -0.8707550
  H       -3.7909030    -0.9055920     0.0019890
  H       -3.1170220     0.4736390     0.8915280
  H        3.9763110     0.1705960     0.0027210
  H        3.0870080    -1.0834370     0.8892710
  H        3.0888280    -1.0843650    -0.8843420
units angstrom
no_reorient  #important for SAPT in psi4, default
symmetry c1  #important for SAPT in psi4, default
}

set PROPERTIES_ORIGIN ["COM"]
properties('MP2/aug-cc-pvtz', properties = ['dipole'])
--------------------------------------------------------------------------

    Molecular point group: c1
  Charge       = 0
  Multiplicity = 1
  Basis Set: AUG-CC-PVTZ
    Blend: AUG-CC-PVTZ
  Basis Set: (AUG-CC-PVTZ AUX)
    Blend: AUG-CC-PVTZ-JKFIT

    Orbital Energies [Eh]
    ---------------------

    Doubly Occupied:

       1A    -20.613759     2A    -20.522279     3A    -11.383539
       4A    -11.294535     5A    -11.246735     6A    -11.228586
       7A    -11.221475     8A     -1.463786     9A     -1.292157
      10A     -1.082427    11A     -1.038090    12A     -0.919711
      13A     -0.853429    14A     -0.777925    15A     -0.691606
      16A     -0.690407    17A     -0.655774    18A     -0.632964
      19A     -0.570956    20A     -0.568839    21A     -0.560564
      22A     -0.529291    23A     -0.521008    24A     -0.512567
      25A     -0.502756    26A     -0.485982    27A     -0.434459
      28A     -0.433429

  @DF-RHF Final Energy:  -345.01789798961846

   => Energetics <=

    Nuclear Repulsion Energy =            311.9631853432157413
    One-Electron Energy =               -1088.5040973677062084
    Two-Electron Energy =                 431.5230140348720056
    Total Energy =                       -345.0178979896184615
  Basis Set: (AUG-CC-PVTZ AUX)
    Blend: AUG-CC-PVTZ-RI
    Molecular point group: c1

    Geometry (in Angstrom), charge = 0, multiplicity = 1:

       Center              X                  Y                   Z               Mass
    ------------   -----------------  -----------------  -----------------  -----------------
         O            0.705197236098    -0.464811760469    -0.000198618499    15.994914619570
         O           -0.622723763902     1.380000239531    -0.001899618499    15.994914619570
         C           -1.626003763902    -0.836507760469    -0.004354618499    12.000000000000
         C            1.851621236098     0.420364239531     0.000510381501    12.000000000000
         C           -0.486689363902     0.066483239531    -0.001792518499    12.000000000000
         C           -2.992973763902    -0.167292760469     0.005224381501    12.000000000000
         C            3.079294236098    -0.461587760469     0.002219381501    12.000000000000
         H           -1.498379763902    -1.478210760469    -0.883401618499     1.007825032230
         H           -1.491776763902    -1.491254760469     0.863892381501     1.007825032230
         H            1.803865236098     1.062859239531    -0.883105618499     1.007825032230
         H            1.802051236098     1.063752239531     0.883367381501     1.007825032230
         H           -3.116846763902     0.472404239531    -0.870651618499     1.007825032230
         H           -3.785165763902    -0.920347760469     0.002092381501     1.007825032230
         H           -3.111284763902     0.458883239531     0.891631381501     1.007825032230
         H            3.982048236098     0.155840239531     0.002824381501     1.007825032230
         H            3.092745236098    -1.098192760469     0.889374381501     1.007825032230
         H            3.094565236098    -1.099120760469    -0.884238618499     1.007825032230

  Basis Set: AUG-CC-PVTZ
    Blend: AUG-CC-PVTZ
  Basis Set: (AUG-CC-PVTZ AUX)
    Blend: AUG-CC-PVTZ-JKFIT
	 Reference Energy          =    -345.0178979896184615 [Eh]
	 Singles Energy            =      -0.0000000000000000 [Eh]
	 Same-Spin Energy          =      -0.3417449746070001 [Eh]
	 Opposite-Spin Energy      =      -1.1337197576179818 [Eh]
	 Correlation Energy        =      -1.4754647322249819 [Eh]
	 Total Energy              =    -346.4933627218434253 [Eh]

	 ================> DF-SCS-MP2 Energies <==================
	-----------------------------------------------------------
	 SCS Same-Spin Scale       =       0.3333333333333333 [-]
	 SCS Opposite-Spin Scale   =       1.2000000000000000 [-]
	 SCS Same-Spin Energy      =      -0.1139149915356667 [Eh]
	 SCS Opposite-Spin Energy  =      -1.3604637091415781 [Eh]
	 SCS Correlation Energy    =      -1.4743787006772449 [Eh]
	 SCS Total Energy          =    -346.4922766902956823 [Eh]
	-----------------------------------------------------------

  Dipole Moment: [D]
     X:     1.1588      Y:    -2.1328      Z:    -0.0010     Total:     2.4273

*** Psi4 exiting successfully. Buy a developer a beer!
