                               Psi4 1.3.2 release

  ==> Input File <==

--------------------------------------------------------------------------
#psi4
#
memory 32 gb

molecule  {
0 1
  O        0.6701909    -0.4063063    -0.0866135
  O       -0.6284610     1.3947560    -0.0020030
  C       -1.6317410    -0.8217520    -0.0044580
  C        1.8458840     0.4351200     0.0004070
  C       -0.5027280     0.1807070    -0.0019040
  C       -2.9987110    -0.1525370     0.0051210
  C        3.0735570    -0.4468320     0.0021160
  H       -1.5041170    -1.4634550    -0.8835050
  H       -1.4975140    -1.4764990     0.8637890
  H        1.7981280     1.0776150    -0.8832090
  H        1.7963140     1.0785080     0.8832640
  H       -3.1225840     0.4871600    -0.8707550
  H       -3.7909030    -0.9055920     0.0019890
  H       -3.1170220     0.4736390     0.8915280
  H        3.9763110     0.1705960     0.0027210
  H        3.0870080    -1.0834370     0.8892710
  H        3.0888280    -1.0843650    -0.8843420
units angstrom
no_reorient  #important for SAPT in psi4, default
symmetry c1  #important for SAPT in psi4, default
}

set PROPERTIES_ORIGIN ["COM"]
properties('MP2/aug-cc-pvtz', properties = ['dipole'])
--------------------------------------------------------------------------

    Molecular point group: c1
  Charge       = 0
  Multiplicity = 1
  Basis Set: AUG-CC-PVTZ
    Blend: AUG-CC-PVTZ
  Basis Set: (AUG-CC-PVTZ AUX)
    Blend: AUG-CC-PVTZ-JKFIT

    Orbital Energies [Eh]
    ---------------------

    Doubly Occupied:

       1A    -20.599681     2A    -20.533040     3A    -11.371150
       4A    -11.290783     5A    -11.242473     6A    -11.227733
       7A    -11.217869     8A     -1.463662     9A     -1.345796
      10A     -1.070202    11A     -1.032469    12A     -0.909620
      13A     -0.845631    14A     -0.772679    15A     -0.693151
      16A     -0.688353    17A     -0.662693    18A     -0.627568
      19A     -0.579821    20A     -0.572591    21A     -0.559987
      22A     -0.522879    23A     -0.519717    24A     -0.511368
      25A     -0.504933    26A     -0.489882    27A     -0.453410
      28A     -0.440506

  @DF-RHF Final Energy:  -345.03962236066934

   => Energetics <=

    Nuclear Repulsion Energy =            313.1562741825086960
    One-Electron Energy =               -1090.8924998698576019
    Two-Electron Energy =                 432.6966033266795648
    Total Energy =                       -345.0396223606693411
  Basis Set: (AUG-CC-PVTZ AUX)
    Blend: AUG-CC-PVTZ-RI
    Molecular point group: c1

    Geometry (in Angstrom), charge = 0, multiplicity = 1:

       Center              X                  Y                   Z               Mass
    ------------   -----------------  -----------------  -----------------  -----------------
         O            0.681725967878    -0.439612313636    -0.072983438276    15.994914619570
         O           -0.616925932122     1.361449986364     0.011627061724    15.994914619570
         C           -1.620205932122    -0.855058013636     0.009172061724    12.000000000000
         C            1.857419067878     0.401813986364     0.014037061724    12.000000000000
         C           -0.491192932122     0.147400986364     0.011726061724    12.000000000000
         C           -2.987175932122    -0.185843013636     0.018751061724    12.000000000000
         C            3.085092067878    -0.480138013636     0.015746061724    12.000000000000
         H           -1.492581932122    -1.496761013636    -0.869874938276     1.007825032230
         H           -1.485978932122    -1.509805013636     0.877419061724     1.007825032230
         H            1.809663067878     1.044308986364    -0.869578938276     1.007825032230
         H            1.807849067878     1.045201986364     0.896894061724     1.007825032230
         H           -3.111048932122     0.453853986364    -0.857124938276     1.007825032230
         H           -3.779367932122    -0.938898013636     0.015619061724     1.007825032230
         H           -3.105486932122     0.440332986364     0.905158061724     1.007825032230
         H            3.987846067878     0.137289986364     0.016351061724     1.007825032230
         H            3.098543067878    -1.116743013636     0.902901061724     1.007825032230
         H            3.100363067878    -1.117671013636    -0.870711938276     1.007825032230

  Basis Set: AUG-CC-PVTZ
    Blend: AUG-CC-PVTZ
  Basis Set: (AUG-CC-PVTZ AUX)
    Blend: AUG-CC-PVTZ-JKFIT
	 Reference Energy          =    -345.0396223606693411 [Eh]
	 Singles Energy            =      -0.0000000000000000 [Eh]
	 Same-Spin Energy          =      -0.3391245236491046 [Eh]
	 Opposite-Spin Energy      =      -1.1284157070663863 [Eh]
	 Correlation Energy        =      -1.4675402307154908 [Eh]
	 Total Energy              =    -346.5071625913848266 [Eh]

	 ================> DF-SCS-MP2 Energies <==================
	-----------------------------------------------------------
	 SCS Same-Spin Scale       =       0.3333333333333333 [-]
	 SCS Opposite-Spin Scale   =       1.2000000000000000 [-]
	 SCS Same-Spin Energy      =      -0.1130415078830349 [Eh]
	 SCS Opposite-Spin Energy  =      -1.3540988484796634 [Eh]
	 SCS Correlation Energy    =      -1.4671403563626984 [Eh]
	 SCS Total Energy          =    -346.5067627170320179 [Eh]
	-----------------------------------------------------------

  Dipole Moment: [D]
     X:     1.1241      Y:    -1.7347      Z:     0.0978     Total:     2.0693

*** Psi4 exiting successfully. Buy a developer a beer!
