                               Psi4 1.3.2 release

  ==> Input File <==

--------------------------------------------------------------------------
#psi4
#
memory 32 gb

molecule  {
0 1
  O        0.7207409    -0.4077160    -0.0002384
  O       -0.6284610     1.3947560    -0.0020030
  C       -1.6317410    -0.8217520    -0.0044580
  C        1.8458840     0.4351200     0.0004070
  C       -0.5027280     0.1807070    -0.0019040
  C       -2.9987110    -0.1525370     0.0051210
  C        3.0735570    -0.4468320     0.0021160
  H       -1.5041170    -1.4634550    -0.8835050
  H       -1.4975140    -1.4764990     0.8637890
  H        1.7981280     1.0776150    -0.8832090
  H        1.7963140     1.0785080     0.8832640
  H       -3.1225840     0.4871600    -0.8707550
  H       -3.7909030    -0.9055920     0.0019890
  H       -3.1170220     0.4736390     0.8915280
  H        3.9763110     0.1705960     0.0027210
  H        3.0870080    -1.0834370     0.8892710
  H        3.0888280    -1.0843650    -0.8843420
units angstrom
no_reorient  #important for SAPT in psi4, default
symmetry c1  #important for SAPT in psi4, default
}

set PROPERTIES_ORIGIN ["COM"]
properties('MP2/aug-cc-pvtz', properties = ['dipole'])
--------------------------------------------------------------------------

    Molecular point group: c1
  Charge       = 0
  Multiplicity = 1
  Basis Set: AUG-CC-PVTZ
    Blend: AUG-CC-PVTZ
  Basis Set: (AUG-CC-PVTZ AUX)
    Blend: AUG-CC-PVTZ-JKFIT

    Orbital Energies [Eh]
    ---------------------

    Doubly Occupied:

       1A    -20.597024     2A    -20.542076     3A    -11.379167
       4A    -11.282476     5A    -11.247705     6A    -11.222602
       7A    -11.221521     8A     -1.456761     9A     -1.352337
      10A     -1.071377    11A     -1.028860    12A     -0.910405
      13A     -0.844305    14A     -0.771941    15A     -0.697661
      16A     -0.687453    17A     -0.661824    18A     -0.629928
      19A     -0.583815    20A     -0.567428    21A     -0.555540
      22A     -0.524098    23A     -0.523003    24A     -0.512236
      25A     -0.503921    26A     -0.491646    27A     -0.451924
      28A     -0.445015

  @DF-RHF Final Energy:  -345.03948654899961

   => Energetics <=

    Nuclear Repulsion Energy =            312.8399831250099510
    One-Electron Energy =               -1090.2308445192038562
    Two-Electron Energy =                 432.3513748451943570
    Total Energy =                       -345.0394865489996050
  Basis Set: (AUG-CC-PVTZ AUX)
    Blend: AUG-CC-PVTZ-RI
    Molecular point group: c1

    Geometry (in Angstrom), charge = 0, multiplicity = 1:

       Center              X                  Y                   Z               Mass
    ------------   -----------------  -----------------  -----------------  -----------------
         O            0.724354363617    -0.440801101954    -0.000144032841    15.994914619570
         O           -0.624847536383     1.361670898046    -0.001908632841    15.994914619570
         C           -1.628127536383    -0.854837101954    -0.004363632841    12.000000000000
         C            1.849497463617     0.402034898046     0.000501367159    12.000000000000
         C           -0.499114536383     0.147621898046    -0.001809632841    12.000000000000
         C           -2.995097536383    -0.185622101954     0.005215367159    12.000000000000
         C            3.077170463617    -0.479917101954     0.002210367159    12.000000000000
         H           -1.500503536383    -1.496540101954    -0.883410632841     1.007825032230
         H           -1.493900536383    -1.509584101954     0.863883367159     1.007825032230
         H            1.801741463617     1.044529898046    -0.883114632841     1.007825032230
         H            1.799927463617     1.045422898046     0.883358367159     1.007825032230
         H           -3.118970536383     0.454074898046    -0.870660632841     1.007825032230
         H           -3.787289536383    -0.938677101954     0.002083367159     1.007825032230
         H           -3.113408536383     0.440553898046     0.891622367159     1.007825032230
         H            3.979924463617     0.137510898046     0.002815367159     1.007825032230
         H            3.090621463617    -1.116522101954     0.889365367159     1.007825032230
         H            3.092441463617    -1.117450101954    -0.884247632841     1.007825032230

  Basis Set: AUG-CC-PVTZ
    Blend: AUG-CC-PVTZ
  Basis Set: (AUG-CC-PVTZ AUX)
    Blend: AUG-CC-PVTZ-JKFIT
	 Reference Energy          =    -345.0394865489996050 [Eh]
	 Singles Energy            =      -0.0000000000000000 [Eh]
	 Same-Spin Energy          =      -0.3394843381742680 [Eh]
	 Opposite-Spin Energy      =      -1.1291310187549863 [Eh]
	 Correlation Energy        =      -1.4686153569292544 [Eh]
	 Total Energy              =    -346.5081019059288678 [Eh]

	 ================> DF-SCS-MP2 Energies <==================
	-----------------------------------------------------------
	 SCS Same-Spin Scale       =       0.3333333333333333 [-]
	 SCS Opposite-Spin Scale   =       1.2000000000000000 [-]
	 SCS Same-Spin Energy      =      -0.1131614460580893 [Eh]
	 SCS Opposite-Spin Energy  =      -1.3549572225059836 [Eh]
	 SCS Correlation Energy    =      -1.4681186685640730 [Eh]
	 SCS Total Energy          =    -346.5076052175636505 [Eh]
	-----------------------------------------------------------

  Dipole Moment: [D]
     X:     0.6612      Y:    -1.6900      Z:    -0.0013     Total:     1.8147

*** Psi4 exiting successfully. Buy a developer a beer!
