                               Psi4 1.3.2 release

  ==> Input File <==

--------------------------------------------------------------------------
#psi4
#
memory 32 gb

molecule  {
0 1
  O        0.6994600    -0.4500560    -0.0003020
  O       -0.6284610     1.3947560    -0.0020030
  C       -1.6317410    -0.8217520    -0.0044580
  C        1.9048381     0.3529933     0.0005138
  C       -0.5027280     0.1807070    -0.0019040
  C       -2.9987110    -0.1525370     0.0051210
  C        3.0735570    -0.4468320     0.0021160
  H       -1.5041170    -1.4634550    -0.8835050
  H       -1.4975140    -1.4764990     0.8637890
  H        1.7981280     1.0776150    -0.8832090
  H        1.7963140     1.0785080     0.8832640
  H       -3.1225840     0.4871600    -0.8707550
  H       -3.7909030    -0.9055920     0.0019890
  H       -3.1170220     0.4736390     0.8915280
  H        3.9763110     0.1705960     0.0027210
  H        3.0870080    -1.0834370     0.8892710
  H        3.0888280    -1.0843650    -0.8843420
units angstrom
no_reorient  #important for SAPT in psi4, default
symmetry c1  #important for SAPT in psi4, default
}

set PROPERTIES_ORIGIN ["COM"]
properties('MP2/aug-cc-pvtz', properties = ['dipole'])
--------------------------------------------------------------------------

    Molecular point group: c1
  Charge       = 0
  Multiplicity = 1
  Basis Set: AUG-CC-PVTZ
    Blend: AUG-CC-PVTZ
  Basis Set: (AUG-CC-PVTZ AUX)
    Blend: AUG-CC-PVTZ-JKFIT

    Orbital Energies [Eh]
    ---------------------

    Doubly Occupied:

       1A    -20.596368     2A    -20.541818     3A    -11.378281
       4A    -11.292852     5A    -11.244357     6A    -11.222788
       7A    -11.219291     8A     -1.446561     9A     -1.348997
      10A     -1.076428    11A     -1.044141    12A     -0.908856
      13A     -0.835346    14A     -0.765822    15A     -0.695069
      16A     -0.677977    17A     -0.659103    18A     -0.627894
      19A     -0.590850    20A     -0.571201    21A     -0.568433
      22A     -0.533298    23A     -0.520500    24A     -0.505059
      25A     -0.503258    26A     -0.485505    27A     -0.443266
      28A     -0.441568

  @DF-RHF Final Energy:  -345.02614450544769

   => Energetics <=

    Nuclear Repulsion Energy =            312.3612666933616424
    One-Electron Energy =               -1089.2850488667595528
    Two-Electron Energy =                 431.8976376679502778
    Total Energy =                       -345.0261445054476894
  Basis Set: (AUG-CC-PVTZ AUX)
    Blend: AUG-CC-PVTZ-RI
    Molecular point group: c1

    Geometry (in Angstrom), charge = 0, multiplicity = 1:

       Center              X                  Y                   Z               Mass
    ------------   -----------------  -----------------  -----------------  -----------------
         O            0.699477206853    -0.466850552625    -0.000210222519    15.994914619570
         O           -0.628443793147     1.377961447375    -0.001911222519    15.994914619570
         C           -1.631723793147    -0.838546552625    -0.004366222519    12.000000000000
         C            1.904855306853     0.336198747375     0.000605577481    12.000000000000
         C           -0.502710793147     0.163912447375    -0.001812222519    12.000000000000
         C           -2.998693793147    -0.169331552625     0.005212777481    12.000000000000
         C            3.073574206853    -0.463626552625     0.002207777481    12.000000000000
         H           -1.504099793147    -1.480249552625    -0.883413222519     1.007825032230
         H           -1.497496793147    -1.493293552625     0.863880777481     1.007825032230
         H            1.798145206853     1.060820447375    -0.883117222519     1.007825032230
         H            1.796331206853     1.061713447375     0.883355777481     1.007825032230
         H           -3.122566793147     0.470365447375    -0.870663222519     1.007825032230
         H           -3.790885793147    -0.922386552625     0.002080777481     1.007825032230
         H           -3.117004793147     0.456844447375     0.891619777481     1.007825032230
         H            3.976328206853     0.153801447375     0.002812777481     1.007825032230
         H            3.087025206853    -1.100231552625     0.889362777481     1.007825032230
         H            3.088845206853    -1.101159552625    -0.884250222519     1.007825032230

  Basis Set: AUG-CC-PVTZ
    Blend: AUG-CC-PVTZ
  Basis Set: (AUG-CC-PVTZ AUX)
    Blend: AUG-CC-PVTZ-JKFIT
	 Reference Energy          =    -345.0261445054476894 [Eh]
	 Singles Energy            =      -0.0000000000000000 [Eh]
	 Same-Spin Energy          =      -0.3407018949089831 [Eh]
	 Opposite-Spin Energy      =      -1.1312168233370694 [Eh]
	 Correlation Energy        =      -1.4719187182460525 [Eh]
	 Total Energy              =    -346.4980632236937481 [Eh]

	 ================> DF-SCS-MP2 Energies <==================
	-----------------------------------------------------------
	 SCS Same-Spin Scale       =       0.3333333333333333 [-]
	 SCS Opposite-Spin Scale   =       1.2000000000000000 [-]
	 SCS Same-Spin Energy      =      -0.1135672983029943 [Eh]
	 SCS Opposite-Spin Energy  =      -1.3574601880044832 [Eh]
	 SCS Correlation Energy    =      -1.4710274863074775 [Eh]
	 SCS Total Energy          =    -346.4971719917551809 [Eh]
	-----------------------------------------------------------

  Dipole Moment: [D]
     X:     0.9973      Y:    -1.7010      Z:    -0.0009     Total:     1.9718

*** Psi4 exiting successfully. Buy a developer a beer!
