                               Psi4 1.4a3.dev225

  ==> Input File <==

--------------------------------------------------------------------------
#psi4
#
memory 32 gb

molecule  {
0 1
  O        0.6994210    -0.4500590     0.0000070
  O       -0.6284480     1.3945490     0.0000020
  C       -1.6317860    -0.8218820     0.0000110
  C        1.8459670     0.4353080     0.0000040
  C       -0.5400437     0.1473047     0.0000052
  C       -2.9986830    -0.1522840    -0.0000150
  C        3.0735530    -0.4467850    -0.0000110
  H       -1.5010890    -1.4699950    -0.8737300
  H       -1.5011070    -1.4699580     0.8737830
  H        1.7972070     1.0780770    -0.8832610
  H        1.7972200     1.0780650     0.8832780
  H       -3.1198680     0.4807080    -0.8811490
  H       -3.7908920    -0.9053640    -0.0000550
  H       -3.1199230     0.4806680     0.8811400
  H        3.9762390     0.1706970    -0.0000130
  H        3.0880200    -1.0839810     0.8867310
  H        3.0880080    -1.0839670    -0.8867630
units angstrom
no_reorient  #important for SAPT in psi4, default
symmetry c1  #important for SAPT in psi4, default
}

set PROPERTIES_ORIGIN ["COM"]
properties('MP2/aug-cc-pvtz', properties = ['dipole'])
--------------------------------------------------------------------------

    Molecular point group: c1
  Charge       = 0
  Multiplicity = 1
  Basis Set: AUG-CC-PVTZ
    Blend: AUG-CC-PVTZ
  Basis Set: (AUG-CC-PVTZ AUX)
    Blend: AUG-CC-PVTZ-JKFIT

    Orbital Energies [Eh]
    ---------------------

    Doubly Occupied:

       1A    -20.595548     2A    -20.540641     3A    -11.382075
       4A    -11.285394     5A    -11.247159     6A    -11.222961
       7A    -11.222869     8A     -1.437090     9A     -1.331831
      10A     -1.080015    11A     -1.028315    12A     -0.913476
      13A     -0.843185    14A     -0.764595    15A     -0.696654
      16A     -0.679507    17A     -0.654146    18A     -0.632750
      19A     -0.577401    20A     -0.563523    21A     -0.557310
      22A     -0.523935    23A     -0.521409    24A     -0.512507
      25A     -0.506100    26A     -0.487323    27A     -0.450366
      28A     -0.445963

  @DF-RHF Final Energy:  -345.03169129292564

   => Energetics <=

    Nuclear Repulsion Energy =            311.8535139411185924
    One-Electron Energy =               -1088.3623163786589885
    Two-Electron Energy =                 431.4771111446148097
    Total Energy =                       -345.0316912929256432
  Basis Set: (AUG-CC-PVTZ AUX)
    Blend: AUG-CC-PVTZ-RI
    Molecular point group: c1

    Geometry (in Angstrom), charge = 0, multiplicity = 1:

       Center              X                  Y                   Z               Mass
    ------------   -----------------  -----------------  -----------------  -----------------
         O            0.710759556621    -0.472598894106     0.000006656611    15.994914619570
         O           -0.617109443379     1.372009105894     0.000001656611    15.994914619570
         C           -1.620447443379    -0.844421894106     0.000010656611    12.000000000000
         C            1.857305556621     0.412768105894     0.000003656611    12.000000000000
         C           -0.528705143379     0.124764805894     0.000004856611    12.000000000000
         C           -2.987344443379    -0.174823894106    -0.000015343389    12.000000000000
         C            3.084891556621    -0.469324894106    -0.000011343389    12.000000000000
         H           -1.489750443379    -1.492534894106    -0.873730343389     1.007825032230
         H           -1.489768443379    -1.492497894106     0.873782656611     1.007825032230
         H            1.808545556621     1.055537105894    -0.883261343389     1.007825032230
         H            1.808558556621     1.055525105894     0.883277656611     1.007825032230
         H           -3.108529443379     0.458168105894    -0.881149343389     1.007825032230
         H           -3.779553443379    -0.927903894106    -0.000055343389     1.007825032230
         H           -3.108584443379     0.458128105894     0.881139656611     1.007825032230
         H            3.987577556621     0.148157105894    -0.000013343389     1.007825032230
         H            3.099358556621    -1.106520894106     0.886730656611     1.007825032230
         H            3.099346556621    -1.106506894106    -0.886763343389     1.007825032230

  Basis Set: AUG-CC-PVTZ
    Blend: AUG-CC-PVTZ
  Basis Set: (AUG-CC-PVTZ AUX)
    Blend: AUG-CC-PVTZ-JKFIT
	 Reference Energy          =    -345.0316912929256432 [Eh]
	 Singles Energy            =      -0.0000000000000000 [Eh]
	 Same-Spin Energy          =      -0.3409092410122568 [Eh]
	 Opposite-Spin Energy      =      -1.1324115410814626 [Eh]
	 Correlation Energy        =      -1.4733207820937193 [Eh]
	 Total Energy              =    -346.5050120750193514 [Eh]

	 ================> DF-SCS-MP2 Energies <==================
	-----------------------------------------------------------
	 SCS Same-Spin Scale       =       0.3333333333333333 [-]
	 SCS Opposite-Spin Scale   =       1.2000000000000000 [-]
	 SCS Same-Spin Energy      =      -0.1136364136707523 [Eh]
	 SCS Opposite-Spin Energy  =      -1.3588938492977551 [Eh]
	 SCS Correlation Energy    =      -1.4725302629685073 [Eh]
	 SCS Total Energy          =    -346.5042215558941621 [Eh]
	-----------------------------------------------------------

  Dipole Moment: [D]
     X:     0.5839      Y:    -1.7460      Z:     0.0000     Total:     1.8411

*** Psi4 exiting successfully. Buy a developer a beer!
