                               Psi4 1.3.2 release

  ==> Input File <==

--------------------------------------------------------------------------
#psi4
#
memory 32 gb

molecule  {
0 1
  O        0.6994600    -0.4500560    -0.0003020
  O       -0.6284610     1.3947560    -0.0020030
  C       -1.6317410    -0.8217520    -0.0044580
  C        1.8458840     0.4351200     0.0004070
  C       -0.5912794     0.2271681    -0.0020220
  C       -2.9987110    -0.1525370     0.0051210
  C        3.0735570    -0.4468320     0.0021160
  H       -1.5041170    -1.4634550    -0.8835050
  H       -1.4975140    -1.4764990     0.8637890
  H        1.7981280     1.0776150    -0.8832090
  H        1.7963140     1.0785080     0.8832640
  H       -3.1225840     0.4871600    -0.8707550
  H       -3.7909030    -0.9055920     0.0019890
  H       -3.1170220     0.4736390     0.8915280
  H        3.9763110     0.1705960     0.0027210
  H        3.0870080    -1.0834370     0.8892710
  H        3.0888280    -1.0843650    -0.8843420
units angstrom
no_reorient  #important for SAPT in psi4, default
symmetry c1  #important for SAPT in psi4, default
}

set PROPERTIES_ORIGIN ["COM"]
properties('MP2/aug-cc-pvtz', properties = ['dipole'])
--------------------------------------------------------------------------

    Molecular point group: c1
  Charge       = 0
  Multiplicity = 1
  Basis Set: AUG-CC-PVTZ
    Blend: AUG-CC-PVTZ
  Basis Set: (AUG-CC-PVTZ AUX)
    Blend: AUG-CC-PVTZ-JKFIT

    Orbital Energies [Eh]
    ---------------------

    Doubly Occupied:

       1A    -20.572982     2A    -20.560953     3A    -11.378666
       4A    -11.274899     5A    -11.248902     6A    -11.224712
       7A    -11.216147     8A     -1.452800     9A     -1.344963
      10A     -1.077570    11A     -1.016430    12A     -0.905996
      13A     -0.832076    14A     -0.756273    15A     -0.703840
      16A     -0.671316    17A     -0.668014    18A     -0.631582
      19A     -0.579325    20A     -0.565859    21A     -0.552275
      22A     -0.531924    23A     -0.517744    24A     -0.513207
      25A     -0.503598    26A     -0.501494    27A     -0.446066
      28A     -0.443781

  @DF-RHF Final Energy:  -345.02856385904323

   => Energetics <=

    Nuclear Repulsion Energy =            311.9344251500613154
    One-Electron Energy =               -1088.5391920539775583
    Two-Electron Energy =                 431.5762030448730115
    Total Energy =                       -345.0285638590432313
  Basis Set: (AUG-CC-PVTZ AUX)
    Blend: AUG-CC-PVTZ-RI
    Molecular point group: c1

    Geometry (in Angstrom), charge = 0, multiplicity = 1:

       Center              X                  Y                   Z               Mass
    ------------   -----------------  -----------------  -----------------  -----------------
         O            0.716819220219    -0.481968438712    -0.000183793100    15.994914619570
         O           -0.611101779781     1.362843561288    -0.001884793100    15.994914619570
         C           -1.614381779781    -0.853664438712    -0.004339793100    12.000000000000
         C            1.863243220219     0.403207561288     0.000525206900    12.000000000000
         C           -0.573920179781     0.195255661288    -0.001903793100    12.000000000000
         C           -2.981351779781    -0.184449438712     0.005239206900    12.000000000000
         C            3.090916220219    -0.478744438712     0.002234206900    12.000000000000
         H           -1.486757779781    -1.495367438712    -0.883386793100     1.007825032230
         H           -1.480154779781    -1.508411438712     0.863907206900     1.007825032230
         H            1.815487220219     1.045702561288    -0.883090793100     1.007825032230
         H            1.813673220219     1.046595561288     0.883382206900     1.007825032230
         H           -3.105224779781     0.455247561288    -0.870636793100     1.007825032230
         H           -3.773543779781    -0.937504438712     0.002107206900     1.007825032230
         H           -3.099662779781     0.441726561288     0.891646206900     1.007825032230
         H            3.993670220219     0.138683561288     0.002839206900     1.007825032230
         H            3.104367220219    -1.115349438712     0.889389206900     1.007825032230
         H            3.106187220219    -1.116277438712    -0.884223793100     1.007825032230

  Basis Set: AUG-CC-PVTZ
    Blend: AUG-CC-PVTZ
  Basis Set: (AUG-CC-PVTZ AUX)
    Blend: AUG-CC-PVTZ-JKFIT
	 Reference Energy          =    -345.0285638590432313 [Eh]
	 Singles Energy            =      -0.0000000000000000 [Eh]
	 Same-Spin Energy          =      -0.3400253938351228 [Eh]
	 Opposite-Spin Energy      =      -1.1310193329222518 [Eh]
	 Correlation Energy        =      -1.4710447267573745 [Eh]
	 Total Energy              =    -346.4996085858006154 [Eh]

	 ================> DF-SCS-MP2 Energies <==================
	-----------------------------------------------------------
	 SCS Same-Spin Scale       =       0.3333333333333333 [-]
	 SCS Opposite-Spin Scale   =       1.2000000000000000 [-]
	 SCS Same-Spin Energy      =      -0.1133417979450409 [Eh]
	 SCS Opposite-Spin Energy  =      -1.3572231995067021 [Eh]
	 SCS Correlation Energy    =      -1.4705649974517430 [Eh]
	 SCS Total Energy          =    -346.4991288564949627 [Eh]
	-----------------------------------------------------------

  Dipole Moment: [D]
     X:    -0.1019      Y:    -1.2579      Z:    -0.0024     Total:     1.2621

*** Psi4 exiting successfully. Buy a developer a beer!
