                               Psi4 1.3.2 release

  ==> Input File <==

--------------------------------------------------------------------------
#psi4
#
memory 32 gb

molecule  {
0 1
  O        0.6994600    -0.4500560    -0.0003020
  O       -0.6284610     1.3947560    -0.0020030
  C       -1.6317410    -0.8217520    -0.0044580
  C        1.8458840     0.4351200     0.0004070
  C       -0.4141766     0.1342459    -0.0017860
  C       -2.9987110    -0.1525370     0.0051210
  C        3.0735570    -0.4468320     0.0021160
  H       -1.5041170    -1.4634550    -0.8835050
  H       -1.4975140    -1.4764990     0.8637890
  H        1.7981280     1.0776150    -0.8832090
  H        1.7963140     1.0785080     0.8832640
  H       -3.1225840     0.4871600    -0.8707550
  H       -3.7909030    -0.9055920     0.0019890
  H       -3.1170220     0.4736390     0.8915280
  H        3.9763110     0.1705960     0.0027210
  H        3.0870080    -1.0834370     0.8892710
  H        3.0888280    -1.0843650    -0.8843420
units angstrom
no_reorient  #important for SAPT in psi4, default
symmetry c1  #important for SAPT in psi4, default
}

set PROPERTIES_ORIGIN ["COM"]
properties('MP2/aug-cc-pvtz', properties = ['dipole'])
--------------------------------------------------------------------------

    Molecular point group: c1
  Charge       = 0
  Multiplicity = 1
  Basis Set: AUG-CC-PVTZ
    Blend: AUG-CC-PVTZ
  Basis Set: (AUG-CC-PVTZ AUX)
    Blend: AUG-CC-PVTZ-JKFIT

    Orbital Energies [Eh]
    ---------------------

    Doubly Occupied:

       1A    -20.624124     2A    -20.523360     3A    -11.376785
       4A    -11.299951     5A    -11.241095     6A    -11.232539
       7A    -11.214709     8A     -1.493894     9A     -1.316761
      10A     -1.071720    11A     -1.033407    12A     -0.912252
      13A     -0.849317    14A     -0.792010    15A     -0.703282
      16A     -0.680317    17A     -0.669562    18A     -0.624140
      19A     -0.579241    20A     -0.571905    21A     -0.563379
      22A     -0.528370    23A     -0.518459    24A     -0.510817
      25A     -0.502884    26A     -0.488043    27A     -0.446826
      28A     -0.426961

  @DF-RHF Final Energy:  -345.02558557565982

   => Energetics <=

    Nuclear Repulsion Energy =            312.6161024504401098
    One-Electron Energy =               -1089.6911526774683807
    Two-Electron Energy =                 432.0494646513683961
    Total Energy =                       -345.0255855756598180
  Basis Set: (AUG-CC-PVTZ AUX)
    Blend: AUG-CC-PVTZ-RI
    Molecular point group: c1

    Geometry (in Angstrom), charge = 0, multiplicity = 1:

       Center              X                  Y                   Z               Mass
    ------------   -----------------  -----------------  -----------------  -----------------
         O            0.695997494082    -0.471043706859    -0.000211539287    15.994914619570
         O           -0.631923505918     1.373768293141    -0.001912539287    15.994914619570
         C           -1.635203505918    -0.842739706859    -0.004367539287    12.000000000000
         C            1.842421494082     0.414132293141     0.000497460713    12.000000000000
         C           -0.417639105918     0.113258193141    -0.001695539287    12.000000000000
         C           -3.002173505918    -0.173524706859     0.005211460713    12.000000000000
         C            3.070094494082    -0.467819706859     0.002206460713    12.000000000000
         H           -1.507579505918    -1.484442706859    -0.883414539287     1.007825032230
         H           -1.500976505918    -1.497486706859     0.863879460713     1.007825032230
         H            1.794665494082     1.056627293141    -0.883118539287     1.007825032230
         H            1.792851494082     1.057520293141     0.883354460713     1.007825032230
         H           -3.126046505918     0.466172293141    -0.870664539287     1.007825032230
         H           -3.794365505918    -0.926579706859     0.002079460713     1.007825032230
         H           -3.120484505918     0.452651293141     0.891618460713     1.007825032230
         H            3.972848494082     0.149608293141     0.002811460713     1.007825032230
         H            3.083545494082    -1.104424706859     0.889361460713     1.007825032230
         H            3.085365494082    -1.105352706859    -0.884251539287     1.007825032230

  Basis Set: AUG-CC-PVTZ
    Blend: AUG-CC-PVTZ
  Basis Set: (AUG-CC-PVTZ AUX)
    Blend: AUG-CC-PVTZ-JKFIT
	 Reference Energy          =    -345.0255855756598180 [Eh]
	 Singles Energy            =      -0.0000000000000000 [Eh]
	 Same-Spin Energy          =      -0.3400583822447458 [Eh]
	 Opposite-Spin Energy      =      -1.1305906893345685 [Eh]
	 Correlation Energy        =      -1.4706490715793143 [Eh]
	 Total Energy              =    -346.4962346472391346 [Eh]

	 ================> DF-SCS-MP2 Energies <==================
	-----------------------------------------------------------
	 SCS Same-Spin Scale       =       0.3333333333333333 [-]
	 SCS Opposite-Spin Scale   =       1.2000000000000000 [-]
	 SCS Same-Spin Energy      =      -0.1133527940815819 [Eh]
	 SCS Opposite-Spin Energy  =      -1.3567088272014822 [Eh]
	 SCS Correlation Energy    =      -1.4700616212830642 [Eh]
	 SCS Total Energy          =    -346.4956471969428549 [Eh]
	-----------------------------------------------------------

  Dipole Moment: [D]
     X:     1.7386      Y:    -1.9122      Z:     0.0001     Total:     2.5845

*** Psi4 exiting successfully. Buy a developer a beer!
