                               Psi4 1.3.2 release

  ==> Input File <==

--------------------------------------------------------------------------
#psi4
#
memory 32 gb

molecule  {
0 1
  O        0.6841177    -0.4287074    -0.0434845
  O       -0.6284610     1.3947560    -0.0020030
  C       -1.6317410    -0.8217520    -0.0044580
  C        1.8458840     0.4351200     0.0004070
  C       -0.5027280     0.1807070    -0.0019040
  C       -2.9987110    -0.1525370     0.0051210
  C        3.0735570    -0.4468320     0.0021160
  H       -1.5041170    -1.4634550    -0.8835050
  H       -1.4975140    -1.4764990     0.8637890
  H        1.7981280     1.0776150    -0.8832090
  H        1.7963140     1.0785080     0.8832640
  H       -3.1225840     0.4871600    -0.8707550
  H       -3.7909030    -0.9055920     0.0019890
  H       -3.1170220     0.4736390     0.8915280
  H        3.9763110     0.1705960     0.0027210
  H        3.0870080    -1.0834370     0.8892710
  H        3.0888280    -1.0843650    -0.8843420
units angstrom
no_reorient  #important for SAPT in psi4, default
symmetry c1  #important for SAPT in psi4, default
}

set PROPERTIES_ORIGIN ["COM"]
properties('MP2/aug-cc-pvtz', properties = ['dipole'])
--------------------------------------------------------------------------

    Molecular point group: c1
  Charge       = 0
  Multiplicity = 1
  Basis Set: AUG-CC-PVTZ
    Blend: AUG-CC-PVTZ
  Basis Set: (AUG-CC-PVTZ AUX)
    Blend: AUG-CC-PVTZ-JKFIT

    Orbital Energies [Eh]
    ---------------------

    Doubly Occupied:

       1A    -20.599722     2A    -20.537711     3A    -11.374284
       4A    -11.289128     5A    -11.243284     6A    -11.226095
       7A    -11.218598     8A     -1.456655     9A     -1.348035
      10A     -1.069555    11A     -1.030775    12A     -0.908048
      13A     -0.844020    14A     -0.771205    15A     -0.693869
      16A     -0.685735    17A     -0.661605    18A     -0.627971
      19A     -0.580222    20A     -0.570257    21A     -0.558545
      22A     -0.521544    23A     -0.519843    24A     -0.511265
      25A     -0.507793    26A     -0.490435    27A     -0.455435
      28A     -0.442171

  @DF-RHF Final Energy:  -345.04013972490486

   => Energetics <=

    Nuclear Repulsion Energy =            312.6868763008813517
    One-Electron Energy =               -1089.9664223317083724
    Two-Electron Energy =                 432.2394063059222162
    Total Energy =                       -345.0401397249048614
  Basis Set: (AUG-CC-PVTZ AUX)
    Blend: AUG-CC-PVTZ-RI
    Molecular point group: c1

    Geometry (in Angstrom), charge = 0, multiplicity = 1:

       Center              X                  Y                   Z               Mass
    ------------   -----------------  -----------------  -----------------  -----------------
         O            0.693470322810    -0.458502975471    -0.036613110288    15.994914619570
         O           -0.619108377190     1.364960424529     0.004868389712    15.994914619570
         C           -1.622388377190    -0.851547575471     0.002413389712    12.000000000000
         C            1.855236622810     0.405324424529     0.007278389712    12.000000000000
         C           -0.493375377190     0.150911424529     0.004967389712    12.000000000000
         C           -2.989358377190    -0.182332575471     0.011992389712    12.000000000000
         C            3.082909622810    -0.476627575471     0.008987389712    12.000000000000
         H           -1.494764377190    -1.493250575471    -0.876633610288     1.007825032230
         H           -1.488161377190    -1.506294575471     0.870660389712     1.007825032230
         H            1.807480622810     1.047819424529    -0.876337610288     1.007825032230
         H            1.805666622810     1.048712424529     0.890135389712     1.007825032230
         H           -3.113231377190     0.457364424529    -0.863883610288     1.007825032230
         H           -3.781550377190    -0.935387575471     0.008860389712     1.007825032230
         H           -3.107669377190     0.443843424529     0.898399389712     1.007825032230
         H            3.985663622810     0.140800424529     0.009592389712     1.007825032230
         H            3.096360622810    -1.113232575471     0.896142389712     1.007825032230
         H            3.098180622810    -1.114160575471    -0.877470610288     1.007825032230

  Basis Set: AUG-CC-PVTZ
    Blend: AUG-CC-PVTZ
  Basis Set: (AUG-CC-PVTZ AUX)
    Blend: AUG-CC-PVTZ-JKFIT
	 Reference Energy          =    -345.0401397249048614 [Eh]
	 Singles Energy            =      -0.0000000000000000 [Eh]
	 Same-Spin Energy          =      -0.3394191845882220 [Eh]
	 Opposite-Spin Energy      =      -1.1292928756637770 [Eh]
	 Correlation Energy        =      -1.4687120602519990 [Eh]
	 Total Energy              =    -346.5088517851568781 [Eh]

	 ================> DF-SCS-MP2 Energies <==================
	-----------------------------------------------------------
	 SCS Same-Spin Scale       =       0.3333333333333333 [-]
	 SCS Opposite-Spin Scale   =       1.2000000000000000 [-]
	 SCS Same-Spin Energy      =      -0.1131397281960740 [Eh]
	 SCS Opposite-Spin Energy  =      -1.3551514507965323 [Eh]
	 SCS Correlation Energy    =      -1.4682911789926063 [Eh]
	 SCS Total Energy          =    -346.5084309038974766 [Eh]
	-----------------------------------------------------------

  Dipole Moment: [D]
     X:     0.9908      Y:    -1.6587      Z:     0.0496     Total:     1.9328

*** Psi4 exiting successfully. Buy a developer a beer!
