                               Psi4 1.3.2 release

  ==> Input File <==

--------------------------------------------------------------------------
#psi4
#
memory 32 gb

molecule  {
0 1
  O        0.6994600    -0.4500560    -0.0003020
  O       -0.6284610     1.3947560    -0.0020030
  C       -1.6317410    -0.8217520    -0.0044580
  C        1.8458840     0.4351200     0.0004070
  C       -0.4684309     0.1406958    -0.0023006
  C       -2.9987110    -0.1525370     0.0051210
  C        3.0735570    -0.4468320     0.0021160
  H       -1.5041170    -1.4634550    -0.8835050
  H       -1.4975140    -1.4764990     0.8637890
  H        1.7981280     1.0776150    -0.8832090
  H        1.7963140     1.0785080     0.8832640
  H       -3.1225840     0.4871600    -0.8707550
  H       -3.7909030    -0.9055920     0.0019890
  H       -3.1170220     0.4736390     0.8915280
  H        3.9763110     0.1705960     0.0027210
  H        3.0870080    -1.0834370     0.8892710
  H        3.0888280    -1.0843650    -0.8843420
units angstrom
no_reorient  #important for SAPT in psi4, default
symmetry c1  #important for SAPT in psi4, default
}

set PROPERTIES_ORIGIN ["COM"]
properties('MP2/aug-cc-pvtz', properties = ['dipole'])
--------------------------------------------------------------------------

    Molecular point group: c1
  Charge       = 0
  Multiplicity = 1
  Basis Set: AUG-CC-PVTZ
    Blend: AUG-CC-PVTZ
  Basis Set: (AUG-CC-PVTZ AUX)
    Blend: AUG-CC-PVTZ-JKFIT

    Orbital Energies [Eh]
    ---------------------

    Doubly Occupied:

       1A    -20.611803     2A    -20.531075     3A    -11.378791
       4A    -11.293527     5A    -11.243783     6A    -11.228271
       7A    -11.218185     8A     -1.465559     9A     -1.326339
      10A     -1.071340    11A     -1.033890    12A     -0.911102
      13A     -0.847903    14A     -0.779063    15A     -0.691405
      16A     -0.688042    17A     -0.660971    18A     -0.627699
      19A     -0.575528    20A     -0.572154    21A     -0.560134
      22A     -0.522582    23A     -0.519803    24A     -0.510512
      25A     -0.509027    26A     -0.487463    27A     -0.450750
      28A     -0.437433

  @DF-RHF Final Energy:  -345.03353907506016

   => Energetics <=

    Nuclear Repulsion Energy =            312.2563290054603726
    One-Electron Energy =               -1089.0714663423395905
    Two-Electron Energy =                 431.7815982618189992
    Total Energy =                       -345.0335390750601618
  Basis Set: (AUG-CC-PVTZ AUX)
    Blend: AUG-CC-PVTZ-RI
    Molecular point group: c1

    Geometry (in Angstrom), charge = 0, multiplicity = 1:

       Center              X                  Y                   Z               Mass
    ------------   -----------------  -----------------  -----------------  -----------------
         O            0.702376095529    -0.471802012495    -0.000151038491    15.994914619570
         O           -0.625544904471     1.373009987505    -0.001852038491    15.994914619570
         C           -1.628824904471    -0.843498012495    -0.004307038491    12.000000000000
         C            1.848800095529     0.413373987505     0.000557961509    12.000000000000
         C           -0.465514804471     0.118949787505    -0.002149638491    12.000000000000
         C           -2.995794904471    -0.174283012495     0.005271961509    12.000000000000
         C            3.076473095529    -0.468578012495     0.002266961509    12.000000000000
         H           -1.501200904471    -1.485201012495    -0.883354038491     1.007825032230
         H           -1.494597904471    -1.498245012495     0.863939961509     1.007825032230
         H            1.801044095529     1.055868987505    -0.883058038491     1.007825032230
         H            1.799230095529     1.056761987505     0.883414961509     1.007825032230
         H           -3.119667904471     0.465413987505    -0.870604038491     1.007825032230
         H           -3.787986904471    -0.927338012495     0.002139961509     1.007825032230
         H           -3.114105904471     0.451892987505     0.891678961509     1.007825032230
         H            3.979227095529     0.148849987505     0.002871961509     1.007825032230
         H            3.089924095529    -1.105183012495     0.889421961509     1.007825032230
         H            3.091744095529    -1.106111012495    -0.884191038491     1.007825032230

  Basis Set: AUG-CC-PVTZ
    Blend: AUG-CC-PVTZ
  Basis Set: (AUG-CC-PVTZ AUX)
    Blend: AUG-CC-PVTZ-JKFIT
	 Reference Energy          =    -345.0335390750601618 [Eh]
	 Singles Energy            =      -0.0000000000000000 [Eh]
	 Same-Spin Energy          =      -0.3402483028182988 [Eh]
	 Opposite-Spin Energy      =      -1.1310542994029722 [Eh]
	 Correlation Energy        =      -1.4713026022212710 [Eh]
	 Total Energy              =    -346.5048416772814335 [Eh]

	 ================> DF-SCS-MP2 Energies <==================
	-----------------------------------------------------------
	 SCS Same-Spin Scale       =       0.3333333333333333 [-]
	 SCS Opposite-Spin Scale   =       1.2000000000000000 [-]
	 SCS Same-Spin Energy      =      -0.1134161009394329 [Eh]
	 SCS Opposite-Spin Energy  =      -1.3572651592835665 [Eh]
	 SCS Correlation Energy    =      -1.4706812602229995 [Eh]
	 SCS Total Energy          =    -346.5042203352831507 [Eh]
	-----------------------------------------------------------

  Dipole Moment: [D]
     X:     1.2416      Y:    -1.8317      Z:    -0.0010     Total:     2.2129

*** Psi4 exiting successfully. Buy a developer a beer!
