                               Psi4 1.3.2 release

  ==> Input File <==

--------------------------------------------------------------------------
#psi4
#
memory 32 gb

molecule  {
0 1
  O        0.6405059    -0.3679293    -0.0004047
  O       -0.6284610     1.3947560    -0.0020030
  C       -1.6317410    -0.8217520    -0.0044580
  C        1.8458840     0.4351200     0.0004070
  C       -0.5027280     0.1807070    -0.0019040
  C       -2.9987110    -0.1525370     0.0051210
  C        3.0735570    -0.4468320     0.0021160
  H       -1.5041170    -1.4634550    -0.8835050
  H       -1.4975140    -1.4764990     0.8637890
  H        1.7981280     1.0776150    -0.8832090
  H        1.7963140     1.0785080     0.8832640
  H       -3.1225840     0.4871600    -0.8707550
  H       -3.7909030    -0.9055920     0.0019890
  H       -3.1170220     0.4736390     0.8915280
  H        3.9763110     0.1705960     0.0027210
  H        3.0870080    -1.0834370     0.8892710
  H        3.0888280    -1.0843650    -0.8843420
units angstrom
no_reorient  #important for SAPT in psi4, default
symmetry c1  #important for SAPT in psi4, default
}

set PROPERTIES_ORIGIN ["COM"]
properties('MP2/aug-cc-pvtz', properties = ['dipole'])
--------------------------------------------------------------------------

    Molecular point group: c1
  Charge       = 0
  Multiplicity = 1
  Basis Set: AUG-CC-PVTZ
    Blend: AUG-CC-PVTZ
  Basis Set: (AUG-CC-PVTZ AUX)
    Blend: AUG-CC-PVTZ-JKFIT

    Orbital Energies [Eh]
    ---------------------

    Doubly Occupied:

       1A    -20.600562     2A    -20.522175     3A    -11.363772
       4A    -11.295095     5A    -11.240141     6A    -11.231519
       7A    -11.215923     8A     -1.481762     9A     -1.340409
      10A     -1.072692    11A     -1.035700    12A     -0.913934
      13A     -0.848961    14A     -0.776426    15A     -0.695728
      16A     -0.691456    17A     -0.665540    18A     -0.627269
      19A     -0.578599    20A     -0.577183    21A     -0.563765
      22A     -0.525860    23A     -0.518007    24A     -0.511525
      25A     -0.498796    26A     -0.489383    27A     -0.449647
      28A     -0.436171

  @DF-RHF Final Energy:  -345.03793055397955

   => Energetics <=

    Nuclear Repulsion Energy =            314.2709836275845419
    One-Electron Energy =               -1093.0818245692753408
    Two-Electron Energy =                 433.7729103877112493
    Total Energy =                       -345.0379305539795496
  Basis Set: (AUG-CC-PVTZ AUX)
    Blend: AUG-CC-PVTZ-RI
    Molecular point group: c1

    Geometry (in Angstrom), charge = 0, multiplicity = 1:

       Center              X                  Y                   Z               Mass
    ------------   -----------------  -----------------  -----------------  -----------------
         O            0.656692853586    -0.407249307834    -0.000284272252    15.994914619570
         O           -0.612274046414     1.355435992166    -0.001882572252    15.994914619570
         C           -1.615554046414    -0.861072007834    -0.004337572252    12.000000000000
         C            1.862070953586     0.395799992166     0.000527427748    12.000000000000
         C           -0.486541046414     0.141386992166    -0.001783572252    12.000000000000
         C           -2.982524046414    -0.191857007834     0.005241427748    12.000000000000
         C            3.089743953586    -0.486152007834     0.002236427748    12.000000000000
         H           -1.487930046414    -1.502775007834    -0.883384572252     1.007825032230
         H           -1.481327046414    -1.515819007834     0.863909427748     1.007825032230
         H            1.814314953586     1.038294992166    -0.883088572252     1.007825032230
         H            1.812500953586     1.039187992166     0.883384427748     1.007825032230
         H           -3.106397046414     0.447839992166    -0.870634572252     1.007825032230
         H           -3.774716046414    -0.944912007834     0.002109427748     1.007825032230
         H           -3.100835046414     0.434318992166     0.891648427748     1.007825032230
         H            3.992497953586     0.131275992166     0.002841427748     1.007825032230
         H            3.103194953586    -1.122757007834     0.889391427748     1.007825032230
         H            3.105014953586    -1.123685007834    -0.884221572252     1.007825032230

  Basis Set: AUG-CC-PVTZ
    Blend: AUG-CC-PVTZ
  Basis Set: (AUG-CC-PVTZ AUX)
    Blend: AUG-CC-PVTZ-JKFIT
	 Reference Energy          =    -345.0379305539795496 [Eh]
	 Singles Energy            =      -0.0000000000000000 [Eh]
	 Same-Spin Energy          =      -0.3384898920010680 [Eh]
	 Opposite-Spin Energy      =      -1.1264656819070362 [Eh]
	 Correlation Energy        =      -1.4649555739081044 [Eh]
	 Total Energy              =    -346.5028861278876775 [Eh]

	 ================> DF-SCS-MP2 Energies <==================
	-----------------------------------------------------------
	 SCS Same-Spin Scale       =       0.3333333333333333 [-]
	 SCS Opposite-Spin Scale   =       1.2000000000000000 [-]
	 SCS Same-Spin Energy      =      -0.1128299640003560 [Eh]
	 SCS Opposite-Spin Energy  =      -1.3517588182884435 [Eh]
	 SCS Correlation Energy    =      -1.4645887822887995 [Eh]
	 SCS Total Energy          =    -346.5025193362683353 [Eh]
	-----------------------------------------------------------

  Dipole Moment: [D]
     X:     1.4499      Y:    -1.8959      Z:    -0.0004     Total:     2.3868

*** Psi4 exiting successfully. Buy a developer a beer!
