                               Psi4 1.3.2 release

  ==> Input File <==

--------------------------------------------------------------------------
#psi4
#
memory 32 gb

molecule  {
0 1
  O        0.6994600    -0.4500560    -0.0003020
  O       -0.6284610     1.3947560    -0.0020030
  C       -1.6317410    -0.8217520    -0.0044580
  C        1.8458840     0.4351200     0.0004070
  C       -0.4520924     0.1115600    -0.1346839
  C       -2.9987110    -0.1525370     0.0051210
  C        3.0735570    -0.4468320     0.0021160
  H       -1.5041170    -1.4634550    -0.8835050
  H       -1.4975140    -1.4764990     0.8637890
  H        1.7981280     1.0776150    -0.8832090
  H        1.7963140     1.0785080     0.8832640
  H       -3.1225840     0.4871600    -0.8707550
  H       -3.7909030    -0.9055920     0.0019890
  H       -3.1170220     0.4736390     0.8915280
  H        3.9763110     0.1705960     0.0027210
  H        3.0870080    -1.0834370     0.8892710
  H        3.0888280    -1.0843650    -0.8843420
units angstrom
no_reorient  #important for SAPT in psi4, default
symmetry c1  #important for SAPT in psi4, default
}

set PROPERTIES_ORIGIN ["COM"]
properties('MP2/aug-cc-pvtz', properties = ['dipole'])
--------------------------------------------------------------------------

    Molecular point group: c1
  Charge       = 0
  Multiplicity = 1
  Basis Set: AUG-CC-PVTZ
    Blend: AUG-CC-PVTZ
  Basis Set: (AUG-CC-PVTZ AUX)
    Blend: AUG-CC-PVTZ-JKFIT

    Orbital Energies [Eh]
    ---------------------

    Doubly Occupied:

       1A    -20.618207     2A    -20.525524     3A    -11.381976
       4A    -11.296474     5A    -11.245048     6A    -11.230097
       7A    -11.217958     8A     -1.475157     9A     -1.303968
      10A     -1.073392    11A     -1.035979    12A     -0.914077
      13A     -0.850875    14A     -0.783936    15A     -0.695289
      16A     -0.684280    17A     -0.661525    18A     -0.627250
      19A     -0.575074    20A     -0.570011    21A     -0.561180
      22A     -0.525753    23A     -0.520707    24A     -0.511033
      25A     -0.503200    26A     -0.486683    27A     -0.440356
      28A     -0.431366

  @DF-RHF Final Energy:  -345.01580872588750

   => Energetics <=

    Nuclear Repulsion Energy =            312.0011811382548217
    One-Electron Energy =               -1088.5412312278551781
    Two-Electron Energy =                 431.5242413637128038
    Total Energy =                       -345.0158087258874957
  Basis Set: (AUG-CC-PVTZ AUX)
    Blend: AUG-CC-PVTZ-RI
    Molecular point group: c1

    Geometry (in Angstrom), charge = 0, multiplicity = 1:

       Center              X                  Y                   Z               Mass
    ------------   -----------------  -----------------  -----------------  -----------------
         O            0.700455201153    -0.468376557627     0.015413079172    15.994914619570
         O           -0.627465798847     1.376435442373     0.013712079172    15.994914619570
         C           -1.630745798847    -0.840072557627     0.011257079172    12.000000000000
         C            1.846879201153     0.416799442373     0.016122079172    12.000000000000
         C           -0.451097198847     0.093239442373    -0.118968820828    12.000000000000
         C           -2.997715798847    -0.170857557627     0.020836079172    12.000000000000
         C            3.074552201153    -0.465152557627     0.017831079172    12.000000000000
         H           -1.503121798847    -1.481775557627    -0.867789920828     1.007825032230
         H           -1.496518798847    -1.494819557627     0.879504079172     1.007825032230
         H            1.799123201153     1.059294442373    -0.867493920828     1.007825032230
         H            1.797309201153     1.060187442373     0.898979079172     1.007825032230
         H           -3.121588798847     0.468839442373    -0.855039920828     1.007825032230
         H           -3.789907798847    -0.923912557627     0.017704079172     1.007825032230
         H           -3.116026798847     0.455318442373     0.907243079172     1.007825032230
         H            3.977306201153     0.152275442373     0.018436079172     1.007825032230
         H            3.088003201153    -1.101757557627     0.904986079172     1.007825032230
         H            3.089823201153    -1.102685557627    -0.868626920828     1.007825032230

  Basis Set: AUG-CC-PVTZ
    Blend: AUG-CC-PVTZ
  Basis Set: (AUG-CC-PVTZ AUX)
    Blend: AUG-CC-PVTZ-JKFIT
	 Reference Energy          =    -345.0158087258874957 [Eh]
	 Singles Energy            =      -0.0000000000000000 [Eh]
	 Same-Spin Energy          =      -0.3412704306870447 [Eh]
	 Opposite-Spin Energy      =      -1.1334020315645637 [Eh]
	 Correlation Energy        =      -1.4746724622516083 [Eh]
	 Total Energy              =    -346.4904811881390856 [Eh]

	 ================> DF-SCS-MP2 Energies <==================
	-----------------------------------------------------------
	 SCS Same-Spin Scale       =       0.3333333333333333 [-]
	 SCS Opposite-Spin Scale   =       1.2000000000000000 [-]
	 SCS Same-Spin Energy      =      -0.1137568102290149 [Eh]
	 SCS Opposite-Spin Energy  =      -1.3600824378774763 [Eh]
	 SCS Correlation Energy    =      -1.4738392481064913 [Eh]
	 SCS Total Energy          =    -346.4896479739940105 [Eh]
	-----------------------------------------------------------

  Dipole Moment: [D]
     X:     1.4250      Y:    -1.9736      Z:    -0.0901     Total:     2.4359

*** Psi4 exiting successfully. Buy a developer a beer!
