                               Psi4 1.3.2 release

  ==> Input File <==

--------------------------------------------------------------------------
#psi4
#
memory 32 gb

molecule  {
0 1
  O        0.6994600    -0.4500560    -0.0003020
  O       -0.6284610     1.3947560    -0.0020030
  C       -1.6317410    -0.8217520    -0.0044580
  C        1.9321298     0.3104370     0.0005657
  C       -0.5027280     0.1807070    -0.0019040
  C       -2.9987110    -0.1525370     0.0051210
  C        3.0735570    -0.4468320     0.0021160
  H       -1.5041170    -1.4634550    -0.8835050
  H       -1.4975140    -1.4764990     0.8637890
  H        1.7981280     1.0776150    -0.8832090
  H        1.7963140     1.0785080     0.8832640
  H       -3.1225840     0.4871600    -0.8707550
  H       -3.7909030    -0.9055920     0.0019890
  H       -3.1170220     0.4736390     0.8915280
  H        3.9763110     0.1705960     0.0027210
  H        3.0870080    -1.0834370     0.8892710
  H        3.0888280    -1.0843650    -0.8843420
units angstrom
no_reorient  #important for SAPT in psi4, default
symmetry c1  #important for SAPT in psi4, default
}

set PROPERTIES_ORIGIN ["COM"]
properties('MP2/aug-cc-pvtz', properties = ['dipole'])
--------------------------------------------------------------------------

    Molecular point group: c1
  Charge       = 0
  Multiplicity = 1
  Basis Set: AUG-CC-PVTZ
    Blend: AUG-CC-PVTZ
  Basis Set: (AUG-CC-PVTZ AUX)
    Blend: AUG-CC-PVTZ-JKFIT

    Orbital Energies [Eh]
    ---------------------

    Doubly Occupied:

       1A    -20.595166     2A    -20.541590     3A    -11.378846
       4A    -11.296422     5A    -11.244475     6A    -11.221860
       7A    -11.219267     8A     -1.445344     9A     -1.348745
      10A     -1.084538    11A     -1.049751    12A     -0.910002
      13A     -0.832371    14A     -0.763306    15A     -0.695480
      16A     -0.676791    17A     -0.659451    18A     -0.628633
      19A     -0.600422    20A     -0.573215    21A     -0.572981
      22A     -0.535864    23A     -0.520460    24A     -0.503387
      25A     -0.497778    26A     -0.482864    27A     -0.443191
      28A     -0.430885

  @DF-RHF Final Energy:  -345.00952379738186

   => Energetics <=

    Nuclear Repulsion Energy =            312.5033601363282401
    One-Electron Energy =               -1089.5195978684484999
    Two-Electron Energy =                 432.0067139347384568
    Total Energy =                       -345.0095237973818598
  Basis Set: (AUG-CC-PVTZ AUX)
    Blend: AUG-CC-PVTZ-RI
    Molecular point group: c1

    Geometry (in Angstrom), charge = 0, multiplicity = 1:

       Center              X                  Y                   Z               Mass
    ------------   -----------------  -----------------  -----------------  -----------------
         O            0.696268560219    -0.461847268521    -0.000216324328    15.994914619570
         O           -0.631652439781     1.382964731479    -0.001917324328    15.994914619570
         C           -1.634932439781    -0.833543268521    -0.004372324328    12.000000000000
         C            1.928938360219     0.298645731479     0.000651375672    12.000000000000
         C           -0.505919439781     0.168915731479    -0.001818324328    12.000000000000
         C           -3.001902439781    -0.164328268521     0.005206675672    12.000000000000
         C            3.070365560219    -0.458623268521     0.002201675672    12.000000000000
         H           -1.507308439781    -1.475246268521    -0.883419324328     1.007825032230
         H           -1.500705439781    -1.488290268521     0.863874675672     1.007825032230
         H            1.794936560219     1.065823731479    -0.883123324328     1.007825032230
         H            1.793122560219     1.066716731479     0.883349675672     1.007825032230
         H           -3.125775439781     0.475368731479    -0.870669324328     1.007825032230
         H           -3.794094439781    -0.917383268521     0.002074675672     1.007825032230
         H           -3.120213439781     0.461847731479     0.891613675672     1.007825032230
         H            3.973119560219     0.158804731479     0.002806675672     1.007825032230
         H            3.083816560219    -1.095228268521     0.889356675672     1.007825032230
         H            3.085636560219    -1.096156268521    -0.884256324328     1.007825032230

  Basis Set: AUG-CC-PVTZ
    Blend: AUG-CC-PVTZ
  Basis Set: (AUG-CC-PVTZ AUX)
    Blend: AUG-CC-PVTZ-JKFIT
	 Reference Energy          =    -345.0095237973818598 [Eh]
	 Singles Energy            =      -0.0000000000000000 [Eh]
	 Same-Spin Energy          =      -0.3414872778737990 [Eh]
	 Opposite-Spin Energy      =      -1.1322557113909915 [Eh]
	 Correlation Energy        =      -1.4737429892647904 [Eh]
	 Total Energy              =    -346.4832667866466522 [Eh]

	 ================> DF-SCS-MP2 Energies <==================
	-----------------------------------------------------------
	 SCS Same-Spin Scale       =       0.3333333333333333 [-]
	 SCS Opposite-Spin Scale   =       1.2000000000000000 [-]
	 SCS Same-Spin Energy      =      -0.1138290926245996 [Eh]
	 SCS Opposite-Spin Energy  =      -1.3587068536691898 [Eh]
	 SCS Correlation Energy    =      -1.4725359462937895 [Eh]
	 SCS Total Energy          =    -346.4820597436756771 [Eh]
	-----------------------------------------------------------

  Dipole Moment: [D]
     X:     1.0722      Y:    -1.7721      Z:    -0.0007     Total:     2.0712

*** Psi4 exiting successfully. Buy a developer a beer!
