                               Psi4 1.4a3.dev225

  ==> Input File <==

--------------------------------------------------------------------------
#psi4
#
memory 32 gb

molecule  {
0 1
  O        0.6994210    -0.4500590     0.0000070
  O       -0.6284480     1.3945490     0.0000020
  C       -1.6317860    -0.8218820     0.0000110
  C        1.8459670     0.4353080     0.0000040
  C       -0.4876953     0.1937767     0.0000049
  C       -2.9986830    -0.1522840    -0.0000150
  C        3.0735530    -0.4467850    -0.0000110
  H       -1.5010890    -1.4699950    -0.8737300
  H       -1.5011070    -1.4699580     0.8737830
  H        1.7972070     1.0780770    -0.8832610
  H        1.7972200     1.0780650     0.8832780
  H       -3.1198680     0.4807080    -0.8811490
  H       -3.7908920    -0.9053640    -0.0000550
  H       -3.1199230     0.4806680     0.8811400
  H        3.9762390     0.1706970    -0.0000130
  H        3.0880200    -1.0839810     0.8867310
  H        3.0880080    -1.0839670    -0.8867630
units angstrom
no_reorient  #important for SAPT in psi4, default
symmetry c1  #important for SAPT in psi4, default
}

set PROPERTIES_ORIGIN ["COM"]
properties('MP2/aug-cc-pvtz', properties = ['dipole'])
--------------------------------------------------------------------------

    Molecular point group: c1
  Charge       = 0
  Multiplicity = 1
  Basis Set: AUG-CC-PVTZ
    Blend: AUG-CC-PVTZ
  Basis Set: (AUG-CC-PVTZ AUX)
    Blend: AUG-CC-PVTZ-JKFIT

    Orbital Energies [Eh]
    ---------------------

    Doubly Occupied:

       1A    -20.600924     2A    -20.543391     3A    -11.375942
       4A    -11.288172     5A    -11.242895     6A    -11.224945
       7A    -11.218053     8A     -1.454609     9A     -1.357143
      10A     -1.065401    11A     -1.028603    12A     -0.904118
      13A     -0.841851    14A     -0.771399    15A     -0.694286
      16A     -0.684561    17A     -0.662828    18A     -0.626675
      19A     -0.581659    20A     -0.569704    21A     -0.557018
      22A     -0.521379    23A     -0.517957    24A     -0.511493
      25A     -0.511436    26A     -0.491988    27A     -0.459394
      28A     -0.441360

  @DF-RHF Final Energy:  -345.03980948176684

   => Energetics <=

    Nuclear Repulsion Energy =            312.3176702856530369
    One-Electron Energy =               -1089.2165912860550634
    Two-Electron Energy =                 431.8591115186351317
    Total Energy =                       -345.0398094817668380
  Basis Set: (AUG-CC-PVTZ AUX)
    Blend: AUG-CC-PVTZ-RI
    Molecular point group: c1

    Geometry (in Angstrom), charge = 0, multiplicity = 1:

       Center              X                  Y                   Z               Mass
    ------------   -----------------  -----------------  -----------------  -----------------
         O            0.704605029146    -0.478062541531     0.000006691882    15.994914619570
         O           -0.623263970854     1.366545458469     0.000001691882    15.994914619570
         C           -1.626601970854    -0.849885541531     0.000010691882    12.000000000000
         C            1.851151029146     0.407304458469     0.000003691882    12.000000000000
         C           -0.482511270854     0.165773158469     0.000004591882    12.000000000000
         C           -2.993498970854    -0.180287541531    -0.000015308118    12.000000000000
         C            3.078737029146    -0.474788541531    -0.000011308118    12.000000000000
         H           -1.495904970854    -1.497998541531    -0.873730308118     1.007825032230
         H           -1.495922970854    -1.497961541531     0.873782691882     1.007825032230
         H            1.802391029146     1.050073458469    -0.883261308118     1.007825032230
         H            1.802404029146     1.050061458469     0.883277691882     1.007825032230
         H           -3.114683970854     0.452704458469    -0.881149308118     1.007825032230
         H           -3.785707970854    -0.933367541531    -0.000055308118     1.007825032230
         H           -3.114738970854     0.452664458469     0.881139691882     1.007825032230
         H            3.981423029146     0.142693458469    -0.000013308118     1.007825032230
         H            3.093204029146    -1.111984541531     0.886730691882     1.007825032230
         H            3.093192029146    -1.111970541531    -0.886763308118     1.007825032230

  Basis Set: AUG-CC-PVTZ
    Blend: AUG-CC-PVTZ
  Basis Set: (AUG-CC-PVTZ AUX)
    Blend: AUG-CC-PVTZ-JKFIT
	 Reference Energy          =    -345.0398094817668380 [Eh]
	 Singles Energy            =      -0.0000000000000000 [Eh]
	 Same-Spin Energy          =      -0.3394071344359959 [Eh]
	 Opposite-Spin Energy      =      -1.1296520885240915 [Eh]
	 Correlation Energy        =      -1.4690592229600874 [Eh]
	 Total Energy              =    -346.5088687047269218 [Eh]

	 ================> DF-SCS-MP2 Energies <==================
	-----------------------------------------------------------
	 SCS Same-Spin Scale       =       0.3333333333333333 [-]
	 SCS Opposite-Spin Scale   =       1.2000000000000000 [-]
	 SCS Same-Spin Energy      =      -0.1131357114786653 [Eh]
	 SCS Opposite-Spin Energy  =      -1.3555825062289097 [Eh]
	 SCS Correlation Energy    =      -1.4687182177075750 [Eh]
	 SCS Total Energy          =    -346.5085276994744277 [Eh]
	-----------------------------------------------------------

  Dipole Moment: [D]
     X:     0.9461      Y:    -1.5117      Z:     0.0000     Total:     1.7833

*** Psi4 exiting successfully. Buy a developer a beer!
