                               Psi4 1.3.2 release

  ==> Input File <==

--------------------------------------------------------------------------
#psi4
#
memory 32 gb

molecule  {
0 1
  O        0.6994600    -0.4500560    -0.0003020
  O       -0.6284610     1.3947560    -0.0020030
  C       -1.6317410    -0.8217520    -0.0044580
  C        1.8458840     0.4351200     0.0004070
  C       -0.6522825     0.0479164    -0.0022423
  C       -2.9987110    -0.1525370     0.0051210
  C        3.0735570    -0.4468320     0.0021160
  H       -1.5041170    -1.4634550    -0.8835050
  H       -1.4975140    -1.4764990     0.8637890
  H        1.7981280     1.0776150    -0.8832090
  H        1.7963140     1.0785080     0.8832640
  H       -3.1225840     0.4871600    -0.8707550
  H       -3.7909030    -0.9055920     0.0019890
  H       -3.1170220     0.4736390     0.8915280
  H        3.9763110     0.1705960     0.0027210
  H        3.0870080    -1.0834370     0.8892710
  H        3.0888280    -1.0843650    -0.8843420
units angstrom
no_reorient  #important for SAPT in psi4, default
symmetry c1  #important for SAPT in psi4, default
}

set PROPERTIES_ORIGIN ["COM"]
properties('MP2/aug-cc-pvtz', properties = ['dipole'])
--------------------------------------------------------------------------

    Molecular point group: c1
  Charge       = 0
  Multiplicity = 1
  Basis Set: AUG-CC-PVTZ
    Blend: AUG-CC-PVTZ
  Basis Set: (AUG-CC-PVTZ AUX)
    Blend: AUG-CC-PVTZ-JKFIT

    Orbital Energies [Eh]
    ---------------------

    Doubly Occupied:

       1A    -20.582655     2A    -20.533853     3A    -11.395333
       4A    -11.278901     5A    -11.252314     6A    -11.234899
       7A    -11.217947     8A     -1.399592     9A     -1.280380
      10A     -1.127188    11A     -1.021845    12A     -0.937409
      13A     -0.840488    14A     -0.753716    15A     -0.707504
      16A     -0.680576    17A     -0.641136    18A     -0.634063
      19A     -0.567113    20A     -0.561437    21A     -0.552816
      22A     -0.535563    23A     -0.525592    24A     -0.520872
      25A     -0.488436    26A     -0.469753    27A     -0.434061
      28A     -0.428042

  @DF-RHF Final Energy:  -344.96189199605971

   => Energetics <=

    Nuclear Repulsion Energy =            311.0949678391983753
    One-Electron Energy =               -1086.9067518244987696
    Two-Electron Energy =                 430.8498919892406889
    Total Energy =                       -344.9618919960597054
  Basis Set: (AUG-CC-PVTZ AUX)
    Blend: AUG-CC-PVTZ-RI
    Molecular point group: c1

    Geometry (in Angstrom), charge = 0, multiplicity = 1:

       Center              X                  Y                   Z               Mass
    ------------   -----------------  -----------------  -----------------  -----------------
         O            0.723991268554    -0.460894069436    -0.000157892740    15.994914619570
         O           -0.603929731446     1.383917930564    -0.001858892740    15.994914619570
         C           -1.607209731446    -0.832590069436    -0.004313892740    12.000000000000
         C            1.870415268554     0.424281930564     0.000551107260    12.000000000000
         C           -0.627751231446     0.037078330564    -0.002098192740    12.000000000000
         C           -2.974179731446    -0.163375069436     0.005265107260    12.000000000000
         C            3.098088268554    -0.457670069436     0.002260107260    12.000000000000
         H           -1.479585731446    -1.474293069436    -0.883360892740     1.007825032230
         H           -1.472982731446    -1.487337069436     0.863933107260     1.007825032230
         H            1.822659268554     1.066776930564    -0.883064892740     1.007825032230
         H            1.820845268554     1.067669930564     0.883408107260     1.007825032230
         H           -3.098052731446     0.476321930564    -0.870610892740     1.007825032230
         H           -3.766371731446    -0.916430069436     0.002133107260     1.007825032230
         H           -3.092490731446     0.462800930564     0.891672107260     1.007825032230
         H            4.000842268554     0.159757930564     0.002865107260     1.007825032230
         H            3.111539268554    -1.094275069436     0.889415107260     1.007825032230
         H            3.113359268554    -1.095203069436    -0.884197892740     1.007825032230

  Basis Set: AUG-CC-PVTZ
    Blend: AUG-CC-PVTZ
  Basis Set: (AUG-CC-PVTZ AUX)
    Blend: AUG-CC-PVTZ-JKFIT
	 Reference Energy          =    -344.9618919960597054 [Eh]
	 Singles Energy            =      -0.0000000000000000 [Eh]
	 Same-Spin Energy          =      -0.3460608400710078 [Eh]
	 Opposite-Spin Energy      =      -1.1417920323457926 [Eh]
	 Correlation Energy        =      -1.4878528724168003 [Eh]
	 Total Energy              =    -346.4497448684765004 [Eh]

	 ================> DF-SCS-MP2 Energies <==================
	-----------------------------------------------------------
	 SCS Same-Spin Scale       =       0.3333333333333333 [-]
	 SCS Opposite-Spin Scale   =       1.2000000000000000 [-]
	 SCS Same-Spin Energy      =      -0.1153536133570026 [Eh]
	 SCS Opposite-Spin Energy  =      -1.3701504388149510 [Eh]
	 SCS Correlation Energy    =      -1.4855040521719536 [Eh]
	 SCS Total Energy          =    -346.4473960482316670 [Eh]
	-----------------------------------------------------------

  Dipole Moment: [D]
     X:    -0.2412      Y:    -2.2100      Z:    -0.0033     Total:     2.2231

*** Psi4 exiting successfully. Buy a developer a beer!
