                               Psi4 1.3.2 release

  ==> Input File <==

--------------------------------------------------------------------------
#psi4
#
memory 32 gb

molecule  {
0 1
  O        0.6132142    -0.3253730    -0.0004546
  O       -0.6284610     1.3947560    -0.0020030
  C       -1.6317410    -0.8217520    -0.0044580
  C        1.8458840     0.4351200     0.0004070
  C       -0.5027280     0.1807070    -0.0019040
  C       -2.9987110    -0.1525370     0.0051210
  C        3.0735570    -0.4468320     0.0021160
  H       -1.5041170    -1.4634550    -0.8835050
  H       -1.4975140    -1.4764990     0.8637890
  H        1.7981280     1.0776150    -0.8832090
  H        1.7963140     1.0785080     0.8832640
  H       -3.1225840     0.4871600    -0.8707550
  H       -3.7909030    -0.9055920     0.0019890
  H       -3.1170220     0.4736390     0.8915280
  H        3.9763110     0.1705960     0.0027210
  H        3.0870080    -1.0834370     0.8892710
  H        3.0888280    -1.0843650    -0.8843420
units angstrom
no_reorient  #important for SAPT in psi4, default
symmetry c1  #important for SAPT in psi4, default
}

set PROPERTIES_ORIGIN ["COM"]
properties('MP2/aug-cc-pvtz', properties = ['dipole'])
--------------------------------------------------------------------------

    Molecular point group: c1
  Charge       = 0
  Multiplicity = 1
  Basis Set: AUG-CC-PVTZ
    Blend: AUG-CC-PVTZ
  Basis Set: (AUG-CC-PVTZ AUX)
    Blend: AUG-CC-PVTZ-JKFIT

    Orbital Energies [Eh]
    ---------------------

    Doubly Occupied:

       1A    -20.600513     2A    -20.511088     3A    -11.356468
       4A    -11.299499     5A    -11.238129     6A    -11.235251
       7A    -11.214139     8A     -1.500996     9A     -1.333829
      10A     -1.076126    11A     -1.038024    12A     -0.919266
      13A     -0.852196    14A     -0.779309    15A     -0.703432
      16A     -0.690833    17A     -0.667554    18A     -0.627267
      19A     -0.581745    20A     -0.577715    21A     -0.567019
      22A     -0.528979    23A     -0.516473    24A     -0.512379
      25A     -0.491168    26A     -0.489125    27A     -0.444085
      28A     -0.430937

  @DF-RHF Final Energy:  -345.02944298888696

   => Energetics <=

    Nuclear Repulsion Energy =            315.3683321037685232
    One-Electron Energy =               -1095.2284618824844529
    Two-Electron Energy =                 434.8306867898289170
    Total Energy =                       -345.0294429888869558
  Basis Set: (AUG-CC-PVTZ AUX)
    Blend: AUG-CC-PVTZ-RI
    Molecular point group: c1

    Geometry (in Angstrom), charge = 0, multiplicity = 1:

       Center              X                  Y                   Z               Mass
    ------------   -----------------  -----------------  -----------------  -----------------
         O            0.633677989333    -0.371361933006    -0.000326352508    15.994914619570
         O           -0.607997210667     1.348767066994    -0.001874752508    15.994914619570
         C           -1.611277210667    -0.867740933006    -0.004329752508    12.000000000000
         C            1.866347789333     0.389131066994     0.000535247492    12.000000000000
         C           -0.482264210667     0.134718066994    -0.001775752508    12.000000000000
         C           -2.978247210667    -0.198525933006     0.005249247492    12.000000000000
         C            3.094020789333    -0.492820933006     0.002244247492    12.000000000000
         H           -1.483653210667    -1.509443933006    -0.883376752508     1.007825032230
         H           -1.477050210667    -1.522487933006     0.863917247492     1.007825032230
         H            1.818591789333     1.031626066994    -0.883080752508     1.007825032230
         H            1.816777789333     1.032519066994     0.883392247492     1.007825032230
         H           -3.102120210667     0.441171066994    -0.870626752508     1.007825032230
         H           -3.770439210667    -0.951580933006     0.002117247492     1.007825032230
         H           -3.096558210667     0.427650066994     0.891656247492     1.007825032230
         H            3.996774789333     0.124607066994     0.002849247492     1.007825032230
         H            3.107471789333    -1.129425933006     0.889399247492     1.007825032230
         H            3.109291789333    -1.130353933006    -0.884213752508     1.007825032230

  Basis Set: AUG-CC-PVTZ
    Blend: AUG-CC-PVTZ
  Basis Set: (AUG-CC-PVTZ AUX)
    Blend: AUG-CC-PVTZ-JKFIT
	 Reference Energy          =    -345.0294429888869558 [Eh]
	 Singles Energy            =      -0.0000000000000000 [Eh]
	 Same-Spin Energy          =      -0.3379988579177015 [Eh]
	 Opposite-Spin Energy      =      -1.1248575917280221 [Eh]
	 Correlation Energy        =      -1.4628564496457237 [Eh]
	 Total Energy              =    -346.4922994385326547 [Eh]

	 ================> DF-SCS-MP2 Energies <==================
	-----------------------------------------------------------
	 SCS Same-Spin Scale       =       0.3333333333333333 [-]
	 SCS Opposite-Spin Scale   =       1.2000000000000000 [-]
	 SCS Same-Spin Energy      =      -0.1126662859725671 [Eh]
	 SCS Opposite-Spin Energy  =      -1.3498291100736266 [Eh]
	 SCS Correlation Energy    =      -1.4624953960461937 [Eh]
	 SCS Total Energy          =    -346.4919383849331780 [Eh]
	-----------------------------------------------------------

  Dipole Moment: [D]
     X:     1.7563      Y:    -2.0634      Z:    -0.0000     Total:     2.7097

*** Psi4 exiting successfully. Buy a developer a beer!
