                               Psi4 1.3.2 release

  ==> Input File <==

--------------------------------------------------------------------------
#psi4
#
memory 32 gb

molecule  {
0 1
  O        0.6994600    -0.4500560    -0.0003020
  O       -0.6284610     1.3947560    -0.0020030
  C       -1.6317410    -0.8217520    -0.0044580
  C        1.8458840     0.4351200     0.0004070
  C       -0.5203951     0.2002576    -0.0017068
  C       -2.9987110    -0.1525370     0.0051210
  C        3.0735570    -0.4468320     0.0021160
  H       -1.5041170    -1.4634550    -0.8835050
  H       -1.4975140    -1.4764990     0.8637890
  H        1.7981280     1.0776150    -0.8832090
  H        1.7963140     1.0785080     0.8832640
  H       -3.1225840     0.4871600    -0.8707550
  H       -3.7909030    -0.9055920     0.0019890
  H       -3.1170220     0.4736390     0.8915280
  H        3.9763110     0.1705960     0.0027210
  H        3.0870080    -1.0834370     0.8892710
  H        3.0888280    -1.0843650    -0.8843420
units angstrom
no_reorient  #important for SAPT in psi4, default
symmetry c1  #important for SAPT in psi4, default
}

set PROPERTIES_ORIGIN ["COM"]
properties('MP2/aug-cc-pvtz', properties = ['dipole'])
--------------------------------------------------------------------------

    Molecular point group: c1
  Charge       = 0
  Multiplicity = 1
  Basis Set: AUG-CC-PVTZ
    Blend: AUG-CC-PVTZ
  Basis Set: (AUG-CC-PVTZ AUX)
    Blend: AUG-CC-PVTZ-JKFIT

    Orbital Energies [Eh]
    ---------------------

    Doubly Occupied:

       1A    -20.592922     2A    -20.548183     3A    -11.376908
       4A    -11.284231     5A    -11.244775     6A    -11.222334
       7A    -11.220173     8A     -1.447585     9A     -1.356648
      10A     -1.068594    11A     -1.025838    12A     -0.904681
      13A     -0.839592    14A     -0.765257    15A     -0.697894
      16A     -0.679323    17A     -0.662269    18A     -0.628826
      19A     -0.581643    20A     -0.566999    21A     -0.555467
      22A     -0.524349    23A     -0.517909    24A     -0.512222
      25A     -0.508262    26A     -0.494851    27A     -0.456373
      28A     -0.444858

  @DF-RHF Final Energy:  -345.03880569798014

   => Energetics <=

    Nuclear Repulsion Energy =            312.1614307857423114
    One-Electron Energy =               -1088.9425445352719635
    Two-Electron Energy =                 431.7423080515494576
    Total Energy =                       -345.0388056979801377
  Basis Set: (AUG-CC-PVTZ AUX)
    Blend: AUG-CC-PVTZ-RI
    Molecular point group: c1

    Geometry (in Angstrom), charge = 0, multiplicity = 1:

       Center              X                  Y                   Z               Mass
    ------------   -----------------  -----------------  -----------------  -----------------
         O            0.708485453153    -0.478804609223    -0.000220850719    15.994914619570
         O           -0.619435546847     1.366007390777    -0.001921850719    15.994914619570
         C           -1.622715546847    -0.850500609223    -0.004376850719    12.000000000000
         C            1.854909453153     0.406371390777     0.000488149281    12.000000000000
         C           -0.511369646847     0.171508990777    -0.001625650719    12.000000000000
         C           -2.989685546847    -0.181285609223     0.005202149281    12.000000000000
         C            3.082582453153    -0.475580609223     0.002197149281    12.000000000000
         H           -1.495091546847    -1.492203609223    -0.883423850719     1.007825032230
         H           -1.488488546847    -1.505247609223     0.863870149281     1.007825032230
         H            1.807153453153     1.048866390777    -0.883127850719     1.007825032230
         H            1.805339453153     1.049759390777     0.883345149281     1.007825032230
         H           -3.113558546847     0.458411390777    -0.870673850719     1.007825032230
         H           -3.781877546847    -0.934340609223     0.002070149281     1.007825032230
         H           -3.107996546847     0.444890390777     0.891609149281     1.007825032230
         H            3.985336453153     0.141847390777     0.002802149281     1.007825032230
         H            3.096033453153    -1.112185609223     0.889352149281     1.007825032230
         H            3.097853453153    -1.113113609223    -0.884260850719     1.007825032230

  Basis Set: AUG-CC-PVTZ
    Blend: AUG-CC-PVTZ
  Basis Set: (AUG-CC-PVTZ AUX)
    Blend: AUG-CC-PVTZ-JKFIT
	 Reference Energy          =    -345.0388056979801377 [Eh]
	 Singles Energy            =      -0.0000000000000000 [Eh]
	 Same-Spin Energy          =      -0.3395830643326350 [Eh]
	 Opposite-Spin Energy      =      -1.1300452777751939 [Eh]
	 Correlation Energy        =      -1.4696283421078289 [Eh]
	 Total Energy              =    -346.5084340400879910 [Eh]

	 ================> DF-SCS-MP2 Energies <==================
	-----------------------------------------------------------
	 SCS Same-Spin Scale       =       0.3333333333333333 [-]
	 SCS Opposite-Spin Scale   =       1.2000000000000000 [-]
	 SCS Same-Spin Energy      =      -0.1131943547775450 [Eh]
	 SCS Opposite-Spin Energy  =      -1.3560543333302326 [Eh]
	 SCS Correlation Energy    =      -1.4692486881077775 [Eh]
	 SCS Total Energy          =    -346.5080543860879061 [Eh]
	-----------------------------------------------------------

  Dipole Moment: [D]
     X:     0.6307      Y:    -1.4559      Z:    -0.0012     Total:     1.5867

*** Psi4 exiting successfully. Buy a developer a beer!
