                               Psi4 1.4a3.dev225

  ==> Input File <==

--------------------------------------------------------------------------
#psi4
#
memory 32 gb

molecule  {
0 1
  O        0.6994210    -0.4500590     0.0000070
  O       -0.6284480     1.3945490     0.0000020
  C       -1.6317860    -0.8218820     0.0000110
  C        1.8459670     0.4353080     0.0000040
  C       -0.5469299     0.2037254     0.0000049
  C       -2.9986830    -0.1522840    -0.0000150
  C        3.0735530    -0.4467850    -0.0000110
  H       -1.5010890    -1.4699950    -0.8737300
  H       -1.5011070    -1.4699580     0.8737830
  H        1.7972070     1.0780770    -0.8832610
  H        1.7972200     1.0780650     0.8832780
  H       -3.1198680     0.4807080    -0.8811490
  H       -3.7908920    -0.9053640    -0.0000550
  H       -3.1199230     0.4806680     0.8811400
  H        3.9762390     0.1706970    -0.0000130
  H        3.0880200    -1.0839810     0.8867310
  H        3.0880080    -1.0839670    -0.8867630
units angstrom
no_reorient  #important for SAPT in psi4, default
symmetry c1  #important for SAPT in psi4, default
}

set PROPERTIES_ORIGIN ["COM"]
properties('MP2/aug-cc-pvtz', properties = ['dipole'])
--------------------------------------------------------------------------

    Molecular point group: c1
  Charge       = 0
  Multiplicity = 1
  Basis Set: AUG-CC-PVTZ
    Blend: AUG-CC-PVTZ
  Basis Set: (AUG-CC-PVTZ AUX)
    Blend: AUG-CC-PVTZ-JKFIT

    Orbital Energies [Eh]
    ---------------------

    Doubly Occupied:

       1A    -20.586496     2A    -20.551742     3A    -11.377937
       4A    -11.281170     5A    -11.246341     6A    -11.221964
       7A    -11.220295     8A     -1.444419     9A     -1.353187
      10A     -1.072415    11A     -1.023085    12A     -0.905817
      13A     -0.837545    14A     -0.761133    15A     -0.700097
      16A     -0.675831    17A     -0.662518    18A     -0.630467
      19A     -0.580923    20A     -0.565177    21A     -0.554473
      22A     -0.526872    23A     -0.517906    24A     -0.512661
      25A     -0.505619    26A     -0.497162    27A     -0.453165
      28A     -0.446303

  @DF-RHF Final Energy:  -345.03633620777339

   => Energetics <=

    Nuclear Repulsion Energy =            312.0387399580894225
    One-Electron Energy =               -1088.7247075742889137
    Two-Electron Energy =                 431.6496314084261030
    Total Energy =                       -345.0363362077733882
  Basis Set: (AUG-CC-PVTZ AUX)
    Blend: AUG-CC-PVTZ-RI
    Molecular point group: c1

    Geometry (in Angstrom), charge = 0, multiplicity = 1:

       Center              X                  Y                   Z               Mass
    ------------   -----------------  -----------------  -----------------  -----------------
         O            0.711569157432    -0.479232196143     0.000006691882    15.994914619570
         O           -0.616299842568     1.365375803857     0.000001691882    15.994914619570
         C           -1.619637842568    -0.851055196143     0.000010691882    12.000000000000
         C            1.858115157432     0.406134803857     0.000003691882    12.000000000000
         C           -0.534781742568     0.174552203857     0.000004591882    12.000000000000
         C           -2.986534842568    -0.181457196143    -0.000015308118    12.000000000000
         C            3.085701157432    -0.475958196143    -0.000011308118    12.000000000000
         H           -1.488940842568    -1.499168196143    -0.873730308118     1.007825032230
         H           -1.488958842568    -1.499131196143     0.873782691882     1.007825032230
         H            1.809355157432     1.048903803857    -0.883261308118     1.007825032230
         H            1.809368157432     1.048891803857     0.883277691882     1.007825032230
         H           -3.107719842568     0.451534803857    -0.881149308118     1.007825032230
         H           -3.778743842568    -0.934537196143    -0.000055308118     1.007825032230
         H           -3.107774842568     0.451494803857     0.881139691882     1.007825032230
         H            3.988387157432     0.141523803857    -0.000013308118     1.007825032230
         H            3.100168157432    -1.113154196143     0.886730691882     1.007825032230
         H            3.100156157432    -1.113140196143    -0.886763308118     1.007825032230

  Basis Set: AUG-CC-PVTZ
    Blend: AUG-CC-PVTZ
  Basis Set: (AUG-CC-PVTZ AUX)
    Blend: AUG-CC-PVTZ-JKFIT
	 Reference Energy          =    -345.0363362077733882 [Eh]
	 Singles Energy            =      -0.0000000000000000 [Eh]
	 Same-Spin Energy          =      -0.3398209559662767 [Eh]
	 Opposite-Spin Energy      =      -1.1305357302938881 [Eh]
	 Correlation Energy        =      -1.4703566862601649 [Eh]
	 Total Energy              =    -346.5066928940335629 [Eh]

	 ================> DF-SCS-MP2 Energies <==================
	-----------------------------------------------------------
	 SCS Same-Spin Scale       =       0.3333333333333333 [-]
	 SCS Opposite-Spin Scale   =       1.2000000000000000 [-]
	 SCS Same-Spin Energy      =      -0.1132736519887589 [Eh]
	 SCS Opposite-Spin Energy  =      -1.3566428763526657 [Eh]
	 SCS Correlation Energy    =      -1.4699165283414246 [Eh]
	 SCS Total Energy          =    -346.5062527361147886 [Eh]
	-----------------------------------------------------------

  Dipole Moment: [D]
     X:     0.3782      Y:    -1.4197      Z:     0.0000     Total:     1.4692

*** Psi4 exiting successfully. Buy a developer a beer!
