                               Psi4 1.3.2 release

  ==> Input File <==

--------------------------------------------------------------------------
#psi4
#
memory 32 gb

molecule  {
0 1
  O        0.6692662    -0.4095072    -0.0003538
  O       -0.6284610     1.3947560    -0.0020030
  C       -1.6317410    -0.8217520    -0.0044580
  C        1.8458840     0.4351200     0.0004070
  C       -0.5027280     0.1807070    -0.0019040
  C       -2.9987110    -0.1525370     0.0051210
  C        3.0735570    -0.4468320     0.0021160
  H       -1.5041170    -1.4634550    -0.8835050
  H       -1.4975140    -1.4764990     0.8637890
  H        1.7981280     1.0776150    -0.8832090
  H        1.7963140     1.0785080     0.8832640
  H       -3.1225840     0.4871600    -0.8707550
  H       -3.7909030    -0.9055920     0.0019890
  H       -3.1170220     0.4736390     0.8915280
  H        3.9763110     0.1705960     0.0027210
  H        3.0870080    -1.0834370     0.8892710
  H        3.0888280    -1.0843650    -0.8843420
units angstrom
no_reorient  #important for SAPT in psi4, default
symmetry c1  #important for SAPT in psi4, default
}

set PROPERTIES_ORIGIN ["COM"]
properties('MP2/aug-cc-pvtz', properties = ['dipole'])
--------------------------------------------------------------------------

    Molecular point group: c1
  Charge       = 0
  Multiplicity = 1
  Basis Set: AUG-CC-PVTZ
    Blend: AUG-CC-PVTZ
  Basis Set: (AUG-CC-PVTZ AUX)
    Blend: AUG-CC-PVTZ-JKFIT

    Orbital Energies [Eh]
    ---------------------

    Doubly Occupied:

       1A    -20.600178     2A    -20.532698     3A    -11.370859
       4A    -11.291044     5A    -11.242193     6A    -11.227876
       7A    -11.217695     8A     -1.464445     9A     -1.345893
      10A     -1.070348    11A     -1.032592    12A     -0.909714
      13A     -0.845639    14A     -0.773061    15A     -0.693032
      16A     -0.688894    17A     -0.662901    18A     -0.627677
      19A     -0.579751    20A     -0.572502    21A     -0.560237
      22A     -0.522577    23A     -0.519479    24A     -0.511210
      25A     -0.505269    26A     -0.489964    27A     -0.453976
      28A     -0.440469

  @DF-RHF Final Energy:  -345.04080667420044

   => Energetics <=

    Nuclear Repulsion Energy =            313.2067023104764303
    One-Electron Energy =               -1090.9906745067139582
    Two-Electron Energy =                 432.7431655220370885
    Total Energy =                       -345.0408066742004394
  Basis Set: (AUG-CC-PVTZ AUX)
    Blend: AUG-CC-PVTZ-RI
    Molecular point group: c1

    Geometry (in Angstrom), charge = 0, multiplicity = 1:

       Center              X                  Y                   Z               Mass
    ------------   -----------------  -----------------  -----------------  -----------------
         O            0.680946176038    -0.442311606057    -0.000241348704    15.994914619570
         O           -0.616781023962     1.361951593943    -0.001890548704    15.994914619570
         C           -1.620061023962    -0.854556406057    -0.004345548704    12.000000000000
         C            1.857563976038     0.402315593943     0.000519451296    12.000000000000
         C           -0.491048023962     0.147902593943    -0.001791548704    12.000000000000
         C           -2.987031023962    -0.185341406057     0.005233451296    12.000000000000
         C            3.085236976038    -0.479636406057     0.002228451296    12.000000000000
         H           -1.492437023962    -1.496259406057    -0.883392548704     1.007825032230
         H           -1.485834023962    -1.509303406057     0.863901451296     1.007825032230
         H            1.809807976038     1.044810593943    -0.883096548704     1.007825032230
         H            1.807993976038     1.045703593943     0.883376451296     1.007825032230
         H           -3.110904023962     0.454355593943    -0.870642548704     1.007825032230
         H           -3.779223023962    -0.938396406057     0.002101451296     1.007825032230
         H           -3.105342023962     0.440834593943     0.891640451296     1.007825032230
         H            3.987990976038     0.137791593943     0.002833451296     1.007825032230
         H            3.098687976038    -1.116241406057     0.889383451296     1.007825032230
         H            3.100507976038    -1.117169406057    -0.884229548704     1.007825032230

  Basis Set: AUG-CC-PVTZ
    Blend: AUG-CC-PVTZ
  Basis Set: (AUG-CC-PVTZ AUX)
    Blend: AUG-CC-PVTZ-JKFIT
	 Reference Energy          =    -345.0408066742004394 [Eh]
	 Singles Energy            =      -0.0000000000000000 [Eh]
	 Same-Spin Energy          =      -0.3390815301272550 [Eh]
	 Opposite-Spin Energy      =      -1.1282903715436416 [Eh]
	 Correlation Energy        =      -1.4673719016708966 [Eh]
	 Total Energy              =    -346.5081785758713409 [Eh]

	 ================> DF-SCS-MP2 Energies <==================
	-----------------------------------------------------------
	 SCS Same-Spin Scale       =       0.3333333333333333 [-]
	 SCS Opposite-Spin Scale   =       1.2000000000000000 [-]
	 SCS Same-Spin Energy      =      -0.1130271767090850 [Eh]
	 SCS Opposite-Spin Energy  =      -1.3539484458523698 [Eh]
	 SCS Correlation Energy    =      -1.4669756225614548 [Eh]
	 SCS Total Energy          =    -346.5077822967618886 [Eh]
	-----------------------------------------------------------

  Dipole Moment: [D]
     X:     1.1449      Y:    -1.7350      Z:    -0.0008     Total:     2.0787

*** Psi4 exiting successfully. Buy a developer a beer!
