                               Psi4 1.3.2 release

  ==> Input File <==

--------------------------------------------------------------------------
#psi4
#
memory 32 gb

molecule  {
0 1
  O        0.6994600    -0.4500560    -0.0003020
  O       -0.6284610     1.3947560    -0.0020030
  C       -1.6317410    -0.8217520    -0.0044580
  C        1.8760778     0.3945712     0.0004608
  C       -0.5027280     0.1807070    -0.0019040
  C       -2.9987110    -0.1525370     0.0051210
  C        3.0735570    -0.4468320     0.0021160
  H       -1.5041170    -1.4634550    -0.8835050
  H       -1.4975140    -1.4764990     0.8637890
  H        1.7981280     1.0776150    -0.8832090
  H        1.7963140     1.0785080     0.8832640
  H       -3.1225840     0.4871600    -0.8707550
  H       -3.7909030    -0.9055920     0.0019890
  H       -3.1170220     0.4736390     0.8915280
  H        3.9763110     0.1705960     0.0027210
  H        3.0870080    -1.0834370     0.8892710
  H        3.0888280    -1.0843650    -0.8843420
units angstrom
no_reorient  #important for SAPT in psi4, default
symmetry c1  #important for SAPT in psi4, default
}

set PROPERTIES_ORIGIN ["COM"]
properties('MP2/aug-cc-pvtz', properties = ['dipole'])
--------------------------------------------------------------------------

    Molecular point group: c1
  Charge       = 0
  Multiplicity = 1
  Basis Set: AUG-CC-PVTZ
    Blend: AUG-CC-PVTZ
  Basis Set: (AUG-CC-PVTZ AUX)
    Blend: AUG-CC-PVTZ-JKFIT

    Orbital Energies [Eh]
    ---------------------

    Doubly Occupied:

       1A    -20.597777     2A    -20.542153     3A    -11.377868
       4A    -11.289801     5A    -11.244296     6A    -11.223643
       7A    -11.219351     8A     -1.447964     9A     -1.349376
      10A     -1.071622    11A     -1.036786    12A     -0.907729
      13A     -0.838742    14A     -0.767854    15A     -0.694775
      16A     -0.680016    17A     -0.659499    18A     -0.627835
      19A     -0.584194    20A     -0.569484    21A     -0.562490
      22A     -0.528164    23A     -0.520495    24A     -0.507762
      25A     -0.507577    26A     -0.488402    27A     -0.450241
      28A     -0.443397

  @DF-RHF Final Energy:  -345.03575369795618

   => Energetics <=

    Nuclear Repulsion Energy =            312.2535592466691696
    One-Electron Energy =               -1089.1000355297262558
    Two-Electron Energy =                 431.8107225851009048
    Total Energy =                       -345.0357536979561814
  Basis Set: (AUG-CC-PVTZ AUX)
    Blend: AUG-CC-PVTZ-RI
    Molecular point group: c1

    Geometry (in Angstrom), charge = 0, multiplicity = 1:

       Center              X                  Y                   Z               Mass
    ------------   -----------------  -----------------  -----------------  -----------------
         O            0.702858514716    -0.471738807622    -0.000203991383    15.994914619570
         O           -0.625062485284     1.373073192378    -0.001904991383    15.994914619570
         C           -1.628342485284    -0.843434807622    -0.004359991383    12.000000000000
         C            1.879476314716     0.372888392378     0.000558808617    12.000000000000
         C           -0.499329485284     0.159024192378    -0.001805991383    12.000000000000
         C           -2.995312485284    -0.174219807622     0.005219008617    12.000000000000
         C            3.076955514716    -0.468514807622     0.002214008617    12.000000000000
         H           -1.500718485284    -1.485137807622    -0.883406991383     1.007825032230
         H           -1.494115485284    -1.498181807622     0.863887008617     1.007825032230
         H            1.801526514716     1.055932192378    -0.883110991383     1.007825032230
         H            1.799712514716     1.056825192378     0.883362008617     1.007825032230
         H           -3.119185485284     0.465477192378    -0.870656991383     1.007825032230
         H           -3.787504485284    -0.927274807622     0.002087008617     1.007825032230
         H           -3.113623485284     0.451956192378     0.891626008617     1.007825032230
         H            3.979709514716     0.148913192378     0.002819008617     1.007825032230
         H            3.090406514716    -1.105119807622     0.889369008617     1.007825032230
         H            3.092226514716    -1.106047807622    -0.884243991383     1.007825032230

  Basis Set: AUG-CC-PVTZ
    Blend: AUG-CC-PVTZ
  Basis Set: (AUG-CC-PVTZ AUX)
    Blend: AUG-CC-PVTZ-JKFIT
	 Reference Energy          =    -345.0357536979561814 [Eh]
	 Singles Energy            =      -0.0000000000000000 [Eh]
	 Same-Spin Energy          =      -0.3401326296349734 [Eh]
	 Opposite-Spin Energy      =      -1.1305767298129081 [Eh]
	 Correlation Energy        =      -1.4707093594478815 [Eh]
	 Total Energy              =    -346.5064630574040621 [Eh]

	 ================> DF-SCS-MP2 Energies <==================
	-----------------------------------------------------------
	 SCS Same-Spin Scale       =       0.3333333333333333 [-]
	 SCS Opposite-Spin Scale   =       1.2000000000000000 [-]
	 SCS Same-Spin Energy      =      -0.1133775432116578 [Eh]
	 SCS Opposite-Spin Energy  =      -1.3566920757754897 [Eh]
	 SCS Correlation Energy    =      -1.4700696189871474 [Eh]
	 SCS Total Energy          =    -346.5058233169433493 [Eh]
	-----------------------------------------------------------

  Dipole Moment: [D]
     X:     0.9205      Y:    -1.6378      Z:    -0.0010     Total:     1.8787

*** Psi4 exiting successfully. Buy a developer a beer!
