                               Psi4 1.4a3.dev225

  ==> Input File <==

--------------------------------------------------------------------------
#psi4
#
memory 32 gb

molecule  {
0 1
  O        0.6994210    -0.4500590     0.0000070
  O       -0.6284480     1.3945490     0.0000020
  C       -1.6317860    -0.8218820     0.0000110
  C        1.8617967     0.4475318     0.0000040
  C       -0.5026520     0.1804990     0.0000050
  C       -2.9986830    -0.1522840    -0.0000150
  C        3.0735530    -0.4467850    -0.0000110
  H       -1.5010890    -1.4699950    -0.8737300
  H       -1.5011070    -1.4699580     0.8737830
  H        1.7972070     1.0780770    -0.8832610
  H        1.7972200     1.0780650     0.8832780
  H       -3.1198680     0.4807080    -0.8811490
  H       -3.7908920    -0.9053640    -0.0000550
  H       -3.1199230     0.4806680     0.8811400
  H        3.9762390     0.1706970    -0.0000130
  H        3.0880200    -1.0839810     0.8867310
  H        3.0880080    -1.0839670    -0.8867630
units angstrom
no_reorient  #important for SAPT in psi4, default
symmetry c1  #important for SAPT in psi4, default
}

set PROPERTIES_ORIGIN ["COM"]
properties('MP2/aug-cc-pvtz', properties = ['dipole'])
--------------------------------------------------------------------------

    Molecular point group: c1
  Charge       = 0
  Multiplicity = 1
  Basis Set: AUG-CC-PVTZ
    Blend: AUG-CC-PVTZ
  Basis Set: (AUG-CC-PVTZ AUX)
    Blend: AUG-CC-PVTZ-JKFIT

    Orbital Energies [Eh]
    ---------------------

    Doubly Occupied:

       1A    -20.597100     2A    -20.541178     3A    -11.376175
       4A    -11.288016     5A    -11.243394     6A    -11.225060
       7A    -11.218809     8A     -1.445072     9A     -1.346647
      10A     -1.068287    11A     -1.030340    12A     -0.905048
      13A     -0.843262    14A     -0.766819    15A     -0.692839
      16A     -0.681703    17A     -0.658394    18A     -0.628718
      19A     -0.578794    20A     -0.567827    21A     -0.557035
      22A     -0.522679    23A     -0.518499    24A     -0.511967
      25A     -0.510157    26A     -0.491236    27A     -0.457434
      28A     -0.442133

  @DF-RHF Final Energy:  -345.03833939431576

   => Energetics <=

    Nuclear Repulsion Energy =            311.8835376966352442
    One-Electron Energy =               -1088.4145023536823373
    Two-Electron Energy =                 431.4926252627313374
    Total Energy =                       -345.0383393943157557
  Basis Set: (AUG-CC-PVTZ AUX)
    Blend: AUG-CC-PVTZ-RI
    Molecular point group: c1

    Geometry (in Angstrom), charge = 0, multiplicity = 1:

       Center              X                  Y                   Z               Mass
    ------------   -----------------  -----------------  -----------------  -----------------
         O            0.704502391769    -0.477938635996     0.000006680125    15.994914619570
         O           -0.623366608231     1.366669364004     0.000001680125    15.994914619570
         C           -1.626704608231    -0.849761635996     0.000010680125    12.000000000000
         C            1.866878091769     0.419652164004     0.000003680125    12.000000000000
         C           -0.497570608231     0.152619364004     0.000004680125    12.000000000000
         C           -2.993601608231    -0.180163635996    -0.000015319875    12.000000000000
         C            3.078634391769    -0.474664635996    -0.000011319875    12.000000000000
         H           -1.496007608231    -1.497874635996    -0.873730319875     1.007825032230
         H           -1.496025608231    -1.497837635996     0.873782680125     1.007825032230
         H            1.802288391769     1.050197364004    -0.883261319875     1.007825032230
         H            1.802301391769     1.050185364004     0.883277680125     1.007825032230
         H           -3.114786608231     0.452828364004    -0.881149319875     1.007825032230
         H           -3.785810608231    -0.933243635996    -0.000055319875     1.007825032230
         H           -3.114841608231     0.452788364004     0.881139680125     1.007825032230
         H            3.981320391769     0.142817364004    -0.000013319875     1.007825032230
         H            3.093101391769    -1.111860635996     0.886730680125     1.007825032230
         H            3.093089391769    -1.111846635996    -0.886763319875     1.007825032230

  Basis Set: AUG-CC-PVTZ
    Blend: AUG-CC-PVTZ
  Basis Set: (AUG-CC-PVTZ AUX)
    Blend: AUG-CC-PVTZ-JKFIT
	 Reference Energy          =    -345.0383393943157557 [Eh]
	 Singles Energy            =      -0.0000000000000000 [Eh]
	 Same-Spin Energy          =      -0.3398262519030005 [Eh]
	 Opposite-Spin Energy      =      -1.1305633973265474 [Eh]
	 Correlation Energy        =      -1.4703896492295478 [Eh]
	 Total Energy              =    -346.5087290435453156 [Eh]

	 ================> DF-SCS-MP2 Energies <==================
	-----------------------------------------------------------
	 SCS Same-Spin Scale       =       0.3333333333333333 [-]
	 SCS Opposite-Spin Scale   =       1.2000000000000000 [-]
	 SCS Same-Spin Energy      =      -0.1132754173010002 [Eh]
	 SCS Opposite-Spin Energy  =      -1.3566760767918569 [Eh]
	 SCS Correlation Energy    =      -1.4699514940928571 [Eh]
	 SCS Total Energy          =    -346.5082908884086237 [Eh]
	-----------------------------------------------------------

  Dipole Moment: [D]
     X:     0.9281      Y:    -1.5601      Z:     0.0000     Total:     1.8153

*** Psi4 exiting successfully. Buy a developer a beer!
