                               Psi4 1.3.2 release

  ==> Input File <==

--------------------------------------------------------------------------
#psi4
#
memory 32 gb

molecule  {
0 1
  O        0.6994600    -0.4500560    -0.0003020
  O       -0.6284610     1.3947560    -0.0020030
  C       -1.6317410    -0.8217520    -0.0044580
  C        1.8458840     0.4351200     0.0004070
  C       -0.6136971     0.2932249    -0.0007348
  C       -2.9987110    -0.1525370     0.0051210
  C        3.0735570    -0.4468320     0.0021160
  H       -1.5041170    -1.4634550    -0.8835050
  H       -1.4975140    -1.4764990     0.8637890
  H        1.7981280     1.0776150    -0.8832090
  H        1.7963140     1.0785080     0.8832640
  H       -3.1225840     0.4871600    -0.8707550
  H       -3.7909030    -0.9055920     0.0019890
  H       -3.1170220     0.4736390     0.8915280
  H        3.9763110     0.1705960     0.0027210
  H        3.0870080    -1.0834370     0.8892710
  H        3.0888280    -1.0843650    -0.8843420
units angstrom
no_reorient  #important for SAPT in psi4, default
symmetry c1  #important for SAPT in psi4, default
}

set PROPERTIES_ORIGIN ["COM"]
properties('MP2/aug-cc-pvtz', properties = ['dipole'])
--------------------------------------------------------------------------

    Molecular point group: c1
  Charge       = 0
  Multiplicity = 1
  Basis Set: AUG-CC-PVTZ
    Blend: AUG-CC-PVTZ
  Basis Set: (AUG-CC-PVTZ AUX)
    Blend: AUG-CC-PVTZ-JKFIT

    Orbital Energies [Eh]
    ---------------------

    Doubly Occupied:

       1A    -20.575350     2A    -20.556452     3A    -11.373693
       4A    -11.267970     5A    -11.250260     6A    -11.225178
       7A    -11.211545     8A     -1.501452     9A     -1.333167
      10A     -1.072199    11A     -1.008559    12A     -0.898050
      13A     -0.825023    14A     -0.758047    15A     -0.712399
      16A     -0.683201    17A     -0.673053    18A     -0.629075
      19A     -0.582820    20A     -0.578220    21A     -0.547946
      22A     -0.536572    23A     -0.519957    24A     -0.514951
      25A     -0.507696    26A     -0.496087    27A     -0.437344
      28A     -0.430612

  @DF-RHF Final Energy:  -345.00927226058701

   => Energetics <=

    Nuclear Repulsion Energy =            312.2526054476592208
    One-Electron Energy =               -1089.1099994390885968
    Two-Electron Energy =                 431.8481217308423652
    Total Energy =                       -345.0092722605870108
  Basis Set: (AUG-CC-PVTZ AUX)
    Blend: AUG-CC-PVTZ-RI
    Molecular point group: c1

    Geometry (in Angstrom), charge = 0, multiplicity = 1:

       Center              X                  Y                   Z               Mass
    ------------   -----------------  -----------------  -----------------  -----------------
         O            0.719454837556    -0.489734643420    -0.000335127387    15.994914619570
         O           -0.608466162444     1.355077356580    -0.002036127387    15.994914619570
         C           -1.611746162444    -0.861430643420    -0.004491127387    12.000000000000
         C            1.865878837556     0.395441356580     0.000373872613    12.000000000000
         C           -0.593702262444     0.253546256580    -0.000767927387    12.000000000000
         C           -2.978716162444    -0.192215643420     0.005087872613    12.000000000000
         C            3.093551837556    -0.486510643420     0.002082872613    12.000000000000
         H           -1.484122162444    -1.503133643420    -0.883538127387     1.007825032230
         H           -1.477519162444    -1.516177643420     0.863755872613     1.007825032230
         H            1.818122837556     1.037936356580    -0.883242127387     1.007825032230
         H            1.816308837556     1.038829356580     0.883230872613     1.007825032230
         H           -3.102589162444     0.447481356580    -0.870788127387     1.007825032230
         H           -3.770908162444    -0.945270643420     0.001955872613     1.007825032230
         H           -3.097027162444     0.433960356580     0.891494872613     1.007825032230
         H            3.996305837556     0.130917356580     0.002687872613     1.007825032230
         H            3.107002837556    -1.123115643420     0.889237872613     1.007825032230
         H            3.108822837556    -1.124043643420    -0.884375127387     1.007825032230

  Basis Set: AUG-CC-PVTZ
    Blend: AUG-CC-PVTZ
  Basis Set: (AUG-CC-PVTZ AUX)
    Blend: AUG-CC-PVTZ-JKFIT
	 Reference Energy          =    -345.0092722605870108 [Eh]
	 Singles Energy            =      -0.0000000000000000 [Eh]
	 Same-Spin Energy          =      -0.3391450431581998 [Eh]
	 Opposite-Spin Energy      =      -1.1295076748050521 [Eh]
	 Correlation Energy        =      -1.4686527179632518 [Eh]
	 Total Energy              =    -346.4779249785502770 [Eh]

	 ================> DF-SCS-MP2 Energies <==================
	-----------------------------------------------------------
	 SCS Same-Spin Scale       =       0.3333333333333333 [-]
	 SCS Opposite-Spin Scale   =       1.2000000000000000 [-]
	 SCS Same-Spin Energy      =      -0.1130483477193999 [Eh]
	 SCS Opposite-Spin Energy  =      -1.3554092097660624 [Eh]
	 SCS Correlation Energy    =      -1.4684575574854624 [Eh]
	 SCS Total Energy          =    -346.4777298180724756 [Eh]
	-----------------------------------------------------------

  Dipole Moment: [D]
     X:    -0.5274      Y:    -0.8294      Z:    -0.0012     Total:     0.9828

*** Psi4 exiting successfully. Buy a developer a beer!
