                               Psi4 1.3.2 release

  ==> Input File <==

--------------------------------------------------------------------------
#psi4
#
memory 32 gb

molecule  {
0 1
  O        0.6994600    -0.4500560    -0.0003020
  O       -0.6284610     1.3947560    -0.0020030
  C       -1.6317410    -0.8217520    -0.0044580
  C        1.8458840     0.4351200     0.0004070
  C       -0.4934130     0.1699262    -0.0240714
  C       -2.9987110    -0.1525370     0.0051210
  C        3.0735570    -0.4468320     0.0021160
  H       -1.5041170    -1.4634550    -0.8835050
  H       -1.4975140    -1.4764990     0.8637890
  H        1.7981280     1.0776150    -0.8832090
  H        1.7963140     1.0785080     0.8832640
  H       -3.1225840     0.4871600    -0.8707550
  H       -3.7909030    -0.9055920     0.0019890
  H       -3.1170220     0.4736390     0.8915280
  H        3.9763110     0.1705960     0.0027210
  H        3.0870080    -1.0834370     0.8892710
  H        3.0888280    -1.0843650    -0.8843420
units angstrom
no_reorient  #important for SAPT in psi4, default
symmetry c1  #important for SAPT in psi4, default
}

set PROPERTIES_ORIGIN ["COM"]
properties('MP2/aug-cc-pvtz', properties = ['dipole'])
--------------------------------------------------------------------------

    Molecular point group: c1
  Charge       = 0
  Multiplicity = 1
  Basis Set: AUG-CC-PVTZ
    Blend: AUG-CC-PVTZ
  Basis Set: (AUG-CC-PVTZ AUX)
    Blend: AUG-CC-PVTZ-JKFIT

    Orbital Energies [Eh]
    ---------------------

    Doubly Occupied:

       1A    -20.602785     2A    -20.539607     3A    -11.378066
       4A    -11.288993     5A    -11.244148     6A    -11.225388
       7A    -11.219106     8A     -1.452485     9A     -1.344412
      10A     -1.069445    11A     -1.030274    12A     -0.907759
      13A     -0.843873    14A     -0.771835    15A     -0.692787
      16A     -0.684970    17A     -0.660024    18A     -0.628150
      19A     -0.579536    20A     -0.568781    21A     -0.557838
      22A     -0.520641    23A     -0.519639    24A     -0.510993
      25A     -0.510612    26A     -0.489454    27A     -0.456181
      28A     -0.442372

  @DF-RHF Final Energy:  -345.03795932380410

   => Energetics <=

    Nuclear Repulsion Energy =            312.1849901127508815
    One-Electron Energy =               -1088.9655922289171031
    Two-Electron Energy =                 431.7426427923620622
    Total Energy =                       -345.0379593238041025
  Basis Set: (AUG-CC-PVTZ AUX)
    Blend: AUG-CC-PVTZ-RI
    Molecular point group: c1

    Geometry (in Angstrom), charge = 0, multiplicity = 1:

       Center              X                  Y                   Z               Mass
    ------------   -----------------  -----------------  -----------------  -----------------
         O            0.705313205753    -0.475238589352     0.002408523726    15.994914619570
         O           -0.622607794247     1.369573410648     0.000707523726    15.994914619570
         C           -1.625887794247    -0.846934589352    -0.001747476274    12.000000000000
         C            1.851737205753     0.409937410648     0.003117523726    12.000000000000
         C           -0.487559794247     0.144743610648    -0.021360876274    12.000000000000
         C           -2.992857794247    -0.177719589352     0.007831523726    12.000000000000
         C            3.079410205753    -0.472014589352     0.004826523726    12.000000000000
         H           -1.498263794247    -1.488637589352    -0.880794476274     1.007825032230
         H           -1.491660794247    -1.501681589352     0.866499523726     1.007825032230
         H            1.803981205753     1.052432410648    -0.880498476274     1.007825032230
         H            1.802167205753     1.053325410648     0.885974523726     1.007825032230
         H           -3.116730794247     0.461977410648    -0.868044476274     1.007825032230
         H           -3.785049794247    -0.930774589352     0.004699523726     1.007825032230
         H           -3.111168794247     0.448456410648     0.894238523726     1.007825032230
         H            3.982164205753     0.145413410648     0.005431523726     1.007825032230
         H            3.092861205753    -1.108619589352     0.891981523726     1.007825032230
         H            3.094681205753    -1.109547589352    -0.881631476274     1.007825032230

  Basis Set: AUG-CC-PVTZ
    Blend: AUG-CC-PVTZ
  Basis Set: (AUG-CC-PVTZ AUX)
    Blend: AUG-CC-PVTZ-JKFIT
	 Reference Energy          =    -345.0379593238041025 [Eh]
	 Singles Energy            =      -0.0000000000000000 [Eh]
	 Same-Spin Energy          =      -0.3399139832977583 [Eh]
	 Opposite-Spin Energy      =      -1.1305585874024440 [Eh]
	 Correlation Energy        =      -1.4704725707002022 [Eh]
	 Total Energy              =    -346.5084318945043265 [Eh]

	 ================> DF-SCS-MP2 Energies <==================
	-----------------------------------------------------------
	 SCS Same-Spin Scale       =       0.3333333333333333 [-]
	 SCS Opposite-Spin Scale   =       1.2000000000000000 [-]
	 SCS Same-Spin Energy      =      -0.1133046610992528 [Eh]
	 SCS Opposite-Spin Energy  =      -1.3566703048829327 [Eh]
	 SCS Correlation Energy    =      -1.4699749659821855 [Eh]
	 SCS Total Energy          =    -346.5079342897863057 [Eh]
	-----------------------------------------------------------

  Dipole Moment: [D]
     X:     0.9494      Y:    -1.6484      Z:    -0.0203     Total:     1.9024

*** Psi4 exiting successfully. Buy a developer a beer!
