                               Psi4 1.3.2 release

  ==> Input File <==

--------------------------------------------------------------------------
#psi4
#
memory 32 gb

molecule  {
0 1
  O        0.7639993    -0.5278702    -0.0001958
  O       -0.6284610     1.3947560    -0.0020030
  C       -1.6317410    -0.8217520    -0.0044580
  C        1.8458840     0.4351200     0.0004070
  C       -0.5027280     0.1807070    -0.0019040
  C       -2.9987110    -0.1525370     0.0051210
  C        3.0735570    -0.4468320     0.0021160
  H       -1.5041170    -1.4634550    -0.8835050
  H       -1.4975140    -1.4764990     0.8637890
  H        1.7981280     1.0776150    -0.8832090
  H        1.7963140     1.0785080     0.8832640
  H       -3.1225840     0.4871600    -0.8707550
  H       -3.7909030    -0.9055920     0.0019890
  H       -3.1170220     0.4736390     0.8915280
  H        3.9763110     0.1705960     0.0027210
  H        3.0870080    -1.0834370     0.8892710
  H        3.0888280    -1.0843650    -0.8843420
units angstrom
no_reorient  #important for SAPT in psi4, default
symmetry c1  #important for SAPT in psi4, default
}

set PROPERTIES_ORIGIN ["COM"]
properties('MP2/aug-cc-pvtz', properties = ['dipole'])
--------------------------------------------------------------------------

    Molecular point group: c1
  Charge       = 0
  Multiplicity = 1
  Basis Set: AUG-CC-PVTZ
    Blend: AUG-CC-PVTZ
  Basis Set: (AUG-CC-PVTZ AUX)
    Blend: AUG-CC-PVTZ-JKFIT

    Orbital Energies [Eh]
    ---------------------

    Doubly Occupied:

       1A    -20.596792     2A    -20.560613     3A    -11.389963
       4A    -11.280912     5A    -11.248731     6A    -11.222935
       7A    -11.217587     8A     -1.429281     9A     -1.351751
      10A     -1.068676    11A     -1.019904    12A     -0.903416
      13A     -0.836669    14A     -0.762592    15A     -0.695577
      16A     -0.673191    17A     -0.657649    18A     -0.630290
      19A     -0.580445    20A     -0.560012    21A     -0.552433
      22A     -0.525862    23A     -0.520251    24A     -0.511871
      25A     -0.508725    26A     -0.495214    27A     -0.458853
      28A     -0.445384

  @DF-RHF Final Energy:  -345.02429955569846

   => Energetics <=

    Nuclear Repulsion Energy =            310.2440507731636785
    One-Electron Energy =               -1085.1255450705416479
    Two-Electron Energy =                 429.8571947416794501
    Total Energy =                       -345.0242995556984624
  Basis Set: (AUG-CC-PVTZ AUX)
    Blend: AUG-CC-PVTZ-RI
    Molecular point group: c1

    Geometry (in Angstrom), charge = 0, multiplicity = 1:

       Center              X                  Y                   Z               Mass
    ------------   -----------------  -----------------  -----------------  -----------------
         O            0.760833813552    -0.542126142255    -0.000108108614    15.994914619570
         O           -0.631626486448     1.380500057745    -0.001915308614    15.994914619570
         C           -1.634906486448    -0.836007942255    -0.004370308614    12.000000000000
         C            1.842718513552     0.420864057745     0.000494691386    12.000000000000
         C           -0.505893486448     0.166451057745    -0.001816308614    12.000000000000
         C           -3.001876486448    -0.166792942255     0.005208691386    12.000000000000
         C            3.070391513552    -0.461087942255     0.002203691386    12.000000000000
         H           -1.507282486448    -1.477710942255    -0.883417308614     1.007825032230
         H           -1.500679486448    -1.490754942255     0.863876691386     1.007825032230
         H            1.794962513552     1.063359057745    -0.883121308614     1.007825032230
         H            1.793148513552     1.064252057745     0.883351691386     1.007825032230
         H           -3.125749486448     0.472904057745    -0.870667308614     1.007825032230
         H           -3.794068486448    -0.919847942255     0.002076691386     1.007825032230
         H           -3.120187486448     0.459383057745     0.891615691386     1.007825032230
         H            3.973145513552     0.156340057745     0.002808691386     1.007825032230
         H            3.083842513552    -1.097692942255     0.889358691386     1.007825032230
         H            3.085662513552    -1.098620942255    -0.884254308614     1.007825032230

  Basis Set: AUG-CC-PVTZ
    Blend: AUG-CC-PVTZ
  Basis Set: (AUG-CC-PVTZ AUX)
    Blend: AUG-CC-PVTZ-JKFIT
	 Reference Energy          =    -345.0242995556984624 [Eh]
	 Singles Energy            =      -0.0000000000000000 [Eh]
	 Same-Spin Energy          =      -0.3414878073961475 [Eh]
	 Opposite-Spin Energy      =      -1.1350608399013520 [Eh]
	 Correlation Energy        =      -1.4765486472974996 [Eh]
	 Total Energy              =    -346.5008482029959396 [Eh]

	 ================> DF-SCS-MP2 Energies <==================
	-----------------------------------------------------------
	 SCS Same-Spin Scale       =       0.3333333333333333 [-]
	 SCS Opposite-Spin Scale   =       1.2000000000000000 [-]
	 SCS Same-Spin Energy      =      -0.1138292691320492 [Eh]
	 SCS Opposite-Spin Energy  =      -1.3620730078816223 [Eh]
	 SCS Correlation Energy    =      -1.4759022770136716 [Eh]
	 SCS Total Energy          =    -346.5002018327121505 [Eh]
	-----------------------------------------------------------

  Dipole Moment: [D]
     X:     0.2289      Y:    -1.2934      Z:    -0.0019     Total:     1.3135

*** Psi4 exiting successfully. Buy a developer a beer!
