                               Psi4 1.3.2 release

  ==> Input File <==

--------------------------------------------------------------------------
#psi4
#
memory 32 gb

molecule  {
0 1
  O        0.6994600    -0.4500560    -0.0003020
  O       -0.6284610     1.3947560    -0.0020030
  C       -1.6317410    -0.8217520    -0.0044580
  C        1.8458840     0.4351200     0.0004070
  C       -0.4355511     0.0995121    -0.0026998
  C       -2.9987110    -0.1525370     0.0051210
  C        3.0735570    -0.4468320     0.0021160
  H       -1.5041170    -1.4634550    -0.8835050
  H       -1.4975140    -1.4764990     0.8637890
  H        1.7981280     1.0776150    -0.8832090
  H        1.7963140     1.0785080     0.8832640
  H       -3.1225840     0.4871600    -0.8707550
  H       -3.7909030    -0.9055920     0.0019890
  H       -3.1170220     0.4736390     0.8915280
  H        3.9763110     0.1705960     0.0027210
  H        3.0870080    -1.0834370     0.8892710
  H        3.0888280    -1.0843650    -0.8843420
units angstrom
no_reorient  #important for SAPT in psi4, default
symmetry c1  #important for SAPT in psi4, default
}

set PROPERTIES_ORIGIN ["COM"]
properties('MP2/aug-cc-pvtz', properties = ['dipole'])
--------------------------------------------------------------------------

    Molecular point group: c1
  Charge       = 0
  Multiplicity = 1
  Basis Set: AUG-CC-PVTZ
    Blend: AUG-CC-PVTZ
  Basis Set: (AUG-CC-PVTZ AUX)
    Blend: AUG-CC-PVTZ-JKFIT

    Orbital Energies [Eh]
    ---------------------

    Doubly Occupied:

       1A    -20.623688     2A    -20.518874     3A    -11.379339
       4A    -11.299714     5A    -11.243711     6A    -11.232179
       7A    -11.217073     8A     -1.490081     9A     -1.297144
      10A     -1.075831    11A     -1.037621    12A     -0.916374
      13A     -0.853341    14A     -0.789693    15A     -0.701563
      16A     -0.682286    17A     -0.665933    18A     -0.627523
      19A     -0.578098    20A     -0.568515    21A     -0.562793
      22A     -0.528520    23A     -0.521612    24A     -0.511185
      25A     -0.500210    26A     -0.488729    27A     -0.436883
      28A     -0.427627

  @DF-RHF Final Energy:  -345.02048788150165

   => Energetics <=

    Nuclear Repulsion Energy =            312.3915535405458854
    One-Electron Energy =               -1089.2718023156294294
    Two-Electron Energy =                 431.8597608935819494
    Total Energy =                       -345.0204878815016514
  Basis Set: (AUG-CC-PVTZ AUX)
    Blend: AUG-CC-PVTZ-RI
    Molecular point group: c1

    Geometry (in Angstrom), charge = 0, multiplicity = 1:

       Center              X                  Y                   Z               Mass
    ------------   -----------------  -----------------  -----------------  -----------------
         O            0.698510463867    -0.466960103035    -0.000104105111    15.994914619570
         O           -0.629410536133     1.377851896965    -0.001805105111    15.994914619570
         C           -1.632690536133    -0.838656103035    -0.004260105111    12.000000000000
         C            1.844934463867     0.418215896965     0.000604894889    12.000000000000
         C           -0.436500636133     0.082607996965    -0.002501905111    12.000000000000
         C           -2.999660536133    -0.169441103035     0.005318894889    12.000000000000
         C            3.072607463867    -0.463736103035     0.002313894889    12.000000000000
         H           -1.505066536133    -1.480359103035    -0.883307105111     1.007825032230
         H           -1.498463536133    -1.493403103035     0.863986894889     1.007825032230
         H            1.797178463867     1.060710896965    -0.883011105111     1.007825032230
         H            1.795364463867     1.061603896965     0.883461894889     1.007825032230
         H           -3.123533536133     0.470255896965    -0.870557105111     1.007825032230
         H           -3.791852536133    -0.922496103035     0.002186894889     1.007825032230
         H           -3.117971536133     0.456734896965     0.891725894889     1.007825032230
         H            3.975361463867     0.153691896965     0.002918894889     1.007825032230
         H            3.086058463867    -1.100341103035     0.889468894889     1.007825032230
         H            3.087878463867    -1.101269103035    -0.884144105111     1.007825032230

  Basis Set: AUG-CC-PVTZ
    Blend: AUG-CC-PVTZ
  Basis Set: (AUG-CC-PVTZ AUX)
    Blend: AUG-CC-PVTZ-JKFIT
	 Reference Energy          =    -345.0204878815016514 [Eh]
	 Singles Energy            =      -0.0000000000000000 [Eh]
	 Same-Spin Energy          =      -0.3407764511596734 [Eh]
	 Opposite-Spin Energy      =      -1.1318895899047674 [Eh]
	 Correlation Energy        =      -1.4726660410644408 [Eh]
	 Total Energy              =    -346.4931539225660799 [Eh]

	 ================> DF-SCS-MP2 Energies <==================
	-----------------------------------------------------------
	 SCS Same-Spin Scale       =       0.3333333333333333 [-]
	 SCS Opposite-Spin Scale   =       1.2000000000000000 [-]
	 SCS Same-Spin Energy      =      -0.1135921503865578 [Eh]
	 SCS Opposite-Spin Energy  =      -1.3582675078857209 [Eh]
	 SCS Correlation Energy    =      -1.4718596582722787 [Eh]
	 SCS Total Energy          =    -346.4923475397739026 [Eh]
	-----------------------------------------------------------

  Dipole Moment: [D]
     X:     1.6235      Y:    -2.0870      Z:    -0.0008     Total:     2.6441

*** Psi4 exiting successfully. Buy a developer a beer!
