                               Psi4 1.4a3.dev225

  ==> Input File <==

--------------------------------------------------------------------------
#psi4
#
memory 32 gb

molecule  {
0 1
  O        0.6994210    -0.4500590     0.0000070
  O       -0.6284480     1.3945490     0.0000020
  C       -1.6317860    -0.8218820     0.0000110
  C        1.8459670     0.4353080     0.0000040
  C       -0.4849408     0.1712084     0.0000050
  C       -2.9986830    -0.1522840    -0.0000150
  C        3.0735530    -0.4467850    -0.0000110
  H       -1.5010890    -1.4699950    -0.8737300
  H       -1.5011070    -1.4699580     0.8737830
  H        1.7972070     1.0780770    -0.8832610
  H        1.7972200     1.0780650     0.8832780
  H       -3.1198680     0.4807080    -0.8811490
  H       -3.7908920    -0.9053640    -0.0000550
  H       -3.1199230     0.4806680     0.8811400
  H        3.9762390     0.1706970    -0.0000130
  H        3.0880200    -1.0839810     0.8867310
  H        3.0880080    -1.0839670    -0.8867630
units angstrom
no_reorient  #important for SAPT in psi4, default
symmetry c1  #important for SAPT in psi4, default
}

set PROPERTIES_ORIGIN ["COM"]
properties('MP2/aug-cc-pvtz', properties = ['dipole'])
--------------------------------------------------------------------------

    Molecular point group: c1
  Charge       = 0
  Multiplicity = 1
  Basis Set: AUG-CC-PVTZ
    Blend: AUG-CC-PVTZ
  Basis Set: (AUG-CC-PVTZ AUX)
    Blend: AUG-CC-PVTZ-JKFIT

    Orbital Energies [Eh]
    ---------------------

    Doubly Occupied:

       1A    -20.604424     2A    -20.538830     3A    -11.377470
       4A    -11.289859     5A    -11.243562     6A    -11.225972
       7A    -11.218468     8A     -1.455537     9A     -1.345291
      10A     -1.068346    11A     -1.030630    12A     -0.907244
      13A     -0.844142    14A     -0.773424    15A     -0.691952
      16A     -0.686338    17A     -0.660920    18A     -0.627461
      19A     -0.579572    20A     -0.569737    21A     -0.558143
      22A     -0.520301    23A     -0.519406    24A     -0.511226
      25A     -0.510793    26A     -0.489435    27A     -0.456902
      28A     -0.441246

  @DF-RHF Final Energy:  -345.03842025045503

   => Energetics <=

    Nuclear Repulsion Energy =            312.2494890554788185
    One-Electron Energy =               -1089.0825552242079084
    Two-Electron Energy =                 431.7946459182741137
    Total Energy =                       -345.0384202504550331
  Basis Set: (AUG-CC-PVTZ AUX)
    Blend: AUG-CC-PVTZ-RI
    Molecular point group: c1

    Geometry (in Angstrom), charge = 0, multiplicity = 1:

       Center              X                  Y                   Z               Mass
    ------------   -----------------  -----------------  -----------------  -----------------
         O            0.704281186470    -0.475409218365     0.000006680125    15.994914619570
         O           -0.623587813530     1.369198781635     0.000001680125    15.994914619570
         C           -1.626925813530    -0.847232218365     0.000010680125    12.000000000000
         C            1.850827186470     0.409957781635     0.000003680125    12.000000000000
         C           -0.480080613530     0.145858181635     0.000004680125    12.000000000000
         C           -2.993822813530    -0.177634218365    -0.000015319875    12.000000000000
         C            3.078413186470    -0.472135218365    -0.000011319875    12.000000000000
         H           -1.496228813530    -1.495345218365    -0.873730319875     1.007825032230
         H           -1.496246813530    -1.495308218365     0.873782680125     1.007825032230
         H            1.802067186470     1.052726781635    -0.883261319875     1.007825032230
         H            1.802080186470     1.052714781635     0.883277680125     1.007825032230
         H           -3.115007813530     0.455357781635    -0.881149319875     1.007825032230
         H           -3.786031813530    -0.930714218365    -0.000055319875     1.007825032230
         H           -3.115062813530     0.455317781635     0.881139680125     1.007825032230
         H            3.981099186470     0.145346781635    -0.000013319875     1.007825032230
         H            3.092880186470    -1.109331218365     0.886730680125     1.007825032230
         H            3.092868186470    -1.109317218365    -0.886763319875     1.007825032230

  Basis Set: AUG-CC-PVTZ
    Blend: AUG-CC-PVTZ
  Basis Set: (AUG-CC-PVTZ AUX)
    Blend: AUG-CC-PVTZ-JKFIT
	 Reference Energy          =    -345.0384202504550331 [Eh]
	 Singles Energy            =      -0.0000000000000000 [Eh]
	 Same-Spin Energy          =      -0.3397949976874066 [Eh]
	 Opposite-Spin Energy      =      -1.1303144274279500 [Eh]
	 Correlation Energy        =      -1.4701094251153566 [Eh]
	 Total Energy              =    -346.5085296755704007 [Eh]

	 ================> DF-SCS-MP2 Energies <==================
	-----------------------------------------------------------
	 SCS Same-Spin Scale       =       0.3333333333333333 [-]
	 SCS Opposite-Spin Scale   =       1.2000000000000000 [-]
	 SCS Same-Spin Energy      =      -0.1132649992291355 [Eh]
	 SCS Opposite-Spin Energy  =      -1.3563773129135399 [Eh]
	 SCS Correlation Energy    =      -1.4696423121426754 [Eh]
	 SCS Total Energy          =    -346.5080625625977291 [Eh]
	-----------------------------------------------------------

  Dipole Moment: [D]
     X:     1.0245      Y:    -1.6457      Z:     0.0000     Total:     1.9385

*** Psi4 exiting successfully. Buy a developer a beer!
