                               Psi4 1.3.2 release

  ==> Input File <==

--------------------------------------------------------------------------
#psi4
#
memory 32 gb

molecule  {
0 1
  O        0.7310505    -0.4895264    -0.0002493
  O       -0.6284610     1.3947560    -0.0020030
  C       -1.6317410    -0.8217520    -0.0044580
  C        1.8458840     0.4351200     0.0004070
  C       -0.5027280     0.1807070    -0.0019040
  C       -2.9987110    -0.1525370     0.0051210
  C        3.0735570    -0.4468320     0.0021160
  H       -1.5041170    -1.4634550    -0.8835050
  H       -1.4975140    -1.4764990     0.8637890
  H        1.7981280     1.0776150    -0.8832090
  H        1.7963140     1.0785080     0.8832640
  H       -3.1225840     0.4871600    -0.8707550
  H       -3.7909030    -0.9055920     0.0019890
  H       -3.1170220     0.4736390     0.8915280
  H        3.9763110     0.1705960     0.0027210
  H        3.0870080    -1.0834370     0.8892710
  H        3.0888280    -1.0843650    -0.8843420
units angstrom
no_reorient  #important for SAPT in psi4, default
symmetry c1  #important for SAPT in psi4, default
}

set PROPERTIES_ORIGIN ["COM"]
properties('MP2/aug-cc-pvtz', properties = ['dipole'])
--------------------------------------------------------------------------

    Molecular point group: c1
  Charge       = 0
  Multiplicity = 1
  Basis Set: AUG-CC-PVTZ
    Blend: AUG-CC-PVTZ
  Basis Set: (AUG-CC-PVTZ AUX)
    Blend: AUG-CC-PVTZ-JKFIT

    Orbital Energies [Eh]
    ---------------------

    Doubly Occupied:

       1A    -20.598250     2A    -20.551921     3A    -11.384006
       4A    -11.283972     5A    -11.246476     6A    -11.221199
       7A    -11.220902     8A     -1.437706     9A     -1.351986
      10A     -1.068528    11A     -1.024506    12A     -0.904570
      13A     -0.839357    14A     -0.765792    15A     -0.695568
      16A     -0.677677    17A     -0.658696    18A     -0.629270
      19A     -0.580796    20A     -0.563698    21A     -0.554353
      22A     -0.523585    23A     -0.518372    24A     -0.511575
      25A     -0.511231    26A     -0.492919    27A     -0.458445
      28A     -0.445349

  @DF-RHF Final Energy:  -345.03321237639881

   => Energetics <=

    Nuclear Repulsion Energy =            311.1909118758748036
    One-Electron Energy =               -1087.0068367899200439
    Two-Electron Energy =                 430.7827125376464323
    Total Energy =                       -345.0332123763988079
  Basis Set: (AUG-CC-PVTZ AUX)
    Blend: AUG-CC-PVTZ-RI
    Molecular point group: c1

    Geometry (in Angstrom), charge = 0, multiplicity = 1:

       Center              X                  Y                   Z               Mass
    ------------   -----------------  -----------------  -----------------  -----------------
         O            0.733048363789    -0.509791133738    -0.000153224720    15.994914619570
         O           -0.626463136211     1.374491266262    -0.001906924720    15.994914619570
         C           -1.629743136211    -0.842016733738    -0.004361924720    12.000000000000
         C            1.847881863789     0.414855266262     0.000503075280    12.000000000000
         C           -0.500730136211     0.160442266262    -0.001807924720    12.000000000000
         C           -2.996713136211    -0.172801733738     0.005217075280    12.000000000000
         C            3.075554863789    -0.467096733738     0.002212075280    12.000000000000
         H           -1.502119136211    -1.483719733738    -0.883408924720     1.007825032230
         H           -1.495516136211    -1.496763733738     0.863885075280     1.007825032230
         H            1.800125863789     1.057350266262    -0.883112924720     1.007825032230
         H            1.798311863789     1.058243266262     0.883360075280     1.007825032230
         H           -3.120586136211     0.466895266262    -0.870658924720     1.007825032230
         H           -3.788905136211    -0.925856733738     0.002085075280     1.007825032230
         H           -3.115024136211     0.453374266262     0.891624075280     1.007825032230
         H            3.978308863789     0.150331266262     0.002817075280     1.007825032230
         H            3.089005863789    -1.103701733738     0.889367075280     1.007825032230
         H            3.090825863789    -1.104629733738    -0.884245924720     1.007825032230

  Basis Set: AUG-CC-PVTZ
    Blend: AUG-CC-PVTZ
  Basis Set: (AUG-CC-PVTZ AUX)
    Blend: AUG-CC-PVTZ-JKFIT
	 Reference Energy          =    -345.0332123763988079 [Eh]
	 Singles Energy            =      -0.0000000000000000 [Eh]
	 Same-Spin Energy          =      -0.3405787230298549 [Eh]
	 Opposite-Spin Energy      =      -1.1325889538380682 [Eh]
	 Correlation Energy        =      -1.4731676768679232 [Eh]
	 Total Energy              =    -346.5063800532667528 [Eh]

	 ================> DF-SCS-MP2 Energies <==================
	-----------------------------------------------------------
	 SCS Same-Spin Scale       =       0.3333333333333333 [-]
	 SCS Opposite-Spin Scale   =       1.2000000000000000 [-]
	 SCS Same-Spin Energy      =      -0.1135262410099516 [Eh]
	 SCS Opposite-Spin Energy  =      -1.3591067446056819 [Eh]
	 SCS Correlation Energy    =      -1.4726329856156335 [Eh]
	 SCS Total Energy          =    -346.5058453620144405 [Eh]
	-----------------------------------------------------------

  Dipole Moment: [D]
     X:     0.5351      Y:    -1.4338      Z:    -0.0015     Total:     1.5304

*** Psi4 exiting successfully. Buy a developer a beer!
