                               Psi4 1.4a3.dev225

  ==> Input File <==

--------------------------------------------------------------------------
#psi4
#
memory 32 gb

molecule  {
0 1
  O        0.6994210    -0.4500590     0.0000070
  O       -0.6284480     1.3945490     0.0000020
  C       -1.6317860    -0.8218820     0.0000110
  C        1.8459670     0.4353080     0.0000040
  C       -0.5078053     0.2302327     0.0000049
  C       -2.9986830    -0.1522840    -0.0000150
  C        3.0735530    -0.4467850    -0.0000110
  H       -1.5010890    -1.4699950    -0.8737300
  H       -1.5011070    -1.4699580     0.8737830
  H        1.7972070     1.0780770    -0.8832610
  H        1.7972200     1.0780650     0.8832780
  H       -3.1198680     0.4807080    -0.8811490
  H       -3.7908920    -0.9053640    -0.0000550
  H       -3.1199230     0.4806680     0.8811400
  H        3.9762390     0.1706970    -0.0000130
  H        3.0880200    -1.0839810     0.8867310
  H        3.0880080    -1.0839670    -0.8867630
units angstrom
no_reorient  #important for SAPT in psi4, default
symmetry c1  #important for SAPT in psi4, default
}

set PROPERTIES_ORIGIN ["COM"]
properties('MP2/aug-cc-pvtz', properties = ['dipole'])
--------------------------------------------------------------------------

    Molecular point group: c1
  Charge       = 0
  Multiplicity = 1
  Basis Set: AUG-CC-PVTZ
    Blend: AUG-CC-PVTZ
  Basis Set: (AUG-CC-PVTZ AUX)
    Blend: AUG-CC-PVTZ-JKFIT

    Orbital Energies [Eh]
    ---------------------

    Doubly Occupied:

       1A    -20.591556     2A    -20.552294     3A    -11.373797
       4A    -11.283742     5A    -11.242909     6A    -11.222112
       7A    -11.218501     8A     -1.458074     9A     -1.367633
      10A     -1.062495    11A     -1.024394    12A     -0.899579
      13A     -0.837646    14A     -0.765815    15A     -0.700501
      16A     -0.679950    17A     -0.666969    18A     -0.626858
      19A     -0.583292    20A     -0.570213    21A     -0.554447
      22A     -0.525575    23A     -0.516639    24A     -0.514561
      25A     -0.508829    26A     -0.497217    27A     -0.458300
      28A     -0.441009

  @DF-RHF Final Energy:  -345.03778635401841

   => Energetics <=

    Nuclear Repulsion Energy =            312.3723789927124699
    One-Electron Energy =               -1089.3305186001300626
    Two-Electron Energy =                 431.9203532533991847
    Total Energy =                       -345.0377863540184080
  Basis Set: (AUG-CC-PVTZ AUX)
    Blend: AUG-CC-PVTZ-RI
    Molecular point group: c1

    Geometry (in Angstrom), charge = 0, multiplicity = 1:

       Center              X                  Y                   Z               Mass
    ------------   -----------------  -----------------  -----------------  -----------------
         O            0.706969333452    -0.482348621977     0.000006691882    15.994914619570
         O           -0.620899666548     1.362259378023     0.000001691882    15.994914619570
         C           -1.624237666548    -0.854171621977     0.000010691882    12.000000000000
         C            1.853515333452     0.403018378023     0.000003691882    12.000000000000
         C           -0.500256966548     0.197943078023     0.000004591882    12.000000000000
         C           -2.991134666548    -0.184573621977    -0.000015308118    12.000000000000
         C            3.081101333452    -0.479074621977    -0.000011308118    12.000000000000
         H           -1.493540666548    -1.502284621977    -0.873730308118     1.007825032230
         H           -1.493558666548    -1.502247621977     0.873782691882     1.007825032230
         H            1.804755333452     1.045787378023    -0.883261308118     1.007825032230
         H            1.804768333452     1.045775378023     0.883277691882     1.007825032230
         H           -3.112319666548     0.448418378023    -0.881149308118     1.007825032230
         H           -3.783343666548    -0.937653621977    -0.000055308118     1.007825032230
         H           -3.112374666548     0.448378378023     0.881139691882     1.007825032230
         H            3.983787333452     0.138407378023    -0.000013308118     1.007825032230
         H            3.095568333452    -1.116270621977     0.886730691882     1.007825032230
         H            3.095556333452    -1.116256621977    -0.886763308118     1.007825032230

  Basis Set: AUG-CC-PVTZ
    Blend: AUG-CC-PVTZ
  Basis Set: (AUG-CC-PVTZ AUX)
    Blend: AUG-CC-PVTZ-JKFIT
	 Reference Energy          =    -345.0377863540184080 [Eh]
	 Singles Energy            =      -0.0000000000000000 [Eh]
	 Same-Spin Energy          =      -0.3389375256635079 [Eh]
	 Opposite-Spin Energy      =      -1.1288952126560203 [Eh]
	 Correlation Energy        =      -1.4678327383195282 [Eh]
	 Total Energy              =    -346.5056190923379518 [Eh]

	 ================> DF-SCS-MP2 Energies <==================
	-----------------------------------------------------------
	 SCS Same-Spin Scale       =       0.3333333333333333 [-]
	 SCS Opposite-Spin Scale   =       1.2000000000000000 [-]
	 SCS Same-Spin Energy      =      -0.1129791752211693 [Eh]
	 SCS Opposite-Spin Energy  =      -1.3546742551872244 [Eh]
	 SCS Correlation Energy    =      -1.4676534304083937 [Eh]
	 SCS Total Energy          =    -346.5054397844268124 [Eh]
	-----------------------------------------------------------

  Dipole Moment: [D]
     X:     0.6711      Y:    -1.2789      Z:     0.0000     Total:     1.4442

*** Psi4 exiting successfully. Buy a developer a beer!
