                               Psi4 1.3.2 release

  ==> Input File <==

--------------------------------------------------------------------------
#psi4
#
memory 32 gb

molecule  {
0 1
  O        0.6994600    -0.4500560    -0.0003020
  O       -0.6284610     1.3947560    -0.0020030
  C       -1.6317410    -0.8217520    -0.0044580
  C        1.6875805     0.3128908     0.0003091
  C       -0.5027280     0.1807070    -0.0019040
  C       -2.9987110    -0.1525370     0.0051210
  C        3.0735570    -0.4468320     0.0021160
  H       -1.5041170    -1.4634550    -0.8835050
  H       -1.4975140    -1.4764990     0.8637890
  H        1.7981280     1.0776150    -0.8832090
  H        1.7963140     1.0785080     0.8832640
  H       -3.1225840     0.4871600    -0.8707550
  H       -3.7909030    -0.9055920     0.0019890
  H       -3.1170220     0.4736390     0.8915280
  H        3.9763110     0.1705960     0.0027210
  H        3.0870080    -1.0834370     0.8892710
  H        3.0888280    -1.0843650    -0.8843420
units angstrom
no_reorient  #important for SAPT in psi4, default
symmetry c1  #important for SAPT in psi4, default
}

set PROPERTIES_ORIGIN ["COM"]
properties('MP2/aug-cc-pvtz', properties = ['dipole'])
--------------------------------------------------------------------------

    Molecular point group: c1
  Charge       = 0
  Multiplicity = 1
  Basis Set: AUG-CC-PVTZ
    Blend: AUG-CC-PVTZ
  Basis Set: (AUG-CC-PVTZ AUX)
    Blend: AUG-CC-PVTZ-JKFIT

    Orbital Energies [Eh]
    ---------------------

    Doubly Occupied:

       1A    -20.620105     2A    -20.557912     3A    -11.392112
       4A    -11.289611     5A    -11.253374     6A    -11.225816
       7A    -11.219126     8A     -1.518148     9A     -1.380746
      10A     -1.080908    11A     -1.016169    12A     -0.925430
      13A     -0.845669    14A     -0.789788    15A     -0.711429
      16A     -0.710195    17A     -0.683890    18A     -0.631054
      19A     -0.608895    20A     -0.562864    21A     -0.554003
      22A     -0.537549    23A     -0.528405    24A     -0.515769
      25A     -0.496377    26A     -0.464453    27A     -0.453870
      28A     -0.423679

  @DF-RHF Final Energy:  -344.99760472529488

   => Energetics <=

    Nuclear Repulsion Energy =            315.4720591065517965
    One-Electron Energy =               -1094.9446360262063536
    Two-Electron Energy =                 434.4749721943596796
    Total Energy =                       -344.9976047252948774
  Basis Set: (AUG-CC-PVTZ AUX)
    Blend: AUG-CC-PVTZ-RI
    Molecular point group: c1

    Geometry (in Angstrom), charge = 0, multiplicity = 1:

       Center              X                  Y                   Z               Mass
    ------------   -----------------  -----------------  -----------------  -----------------
         O            0.725019876131    -0.462135758322    -0.000186156229    15.994914619570
         O           -0.602901123869     1.382676241678    -0.001887156229    15.994914619570
         C           -1.606181123869    -0.833831758322    -0.004342156229    12.000000000000
         C            1.713140376131     0.300811041678     0.000424943771    12.000000000000
         C           -0.477168123869     0.168627241678    -0.001788156229    12.000000000000
         C           -2.973151123869    -0.164616758322     0.005236843771    12.000000000000
         C            3.099116876131    -0.458911758322     0.002231843771    12.000000000000
         H           -1.478557123869    -1.475534758322    -0.883389156229     1.007825032230
         H           -1.471954123869    -1.488578758322     0.863904843771     1.007825032230
         H            1.823687876131     1.065535241678    -0.883093156229     1.007825032230
         H            1.821873876131     1.066428241678     0.883379843771     1.007825032230
         H           -3.097024123869     0.475080241678    -0.870639156229     1.007825032230
         H           -3.765343123869    -0.917671758322     0.002104843771     1.007825032230
         H           -3.091462123869     0.461559241678     0.891643843771     1.007825032230
         H            4.001870876131     0.158516241678     0.002836843771     1.007825032230
         H            3.112567876131    -1.095516758322     0.889386843771     1.007825032230
         H            3.114387876131    -1.096444758322    -0.884226156229     1.007825032230

  Basis Set: AUG-CC-PVTZ
    Blend: AUG-CC-PVTZ
  Basis Set: (AUG-CC-PVTZ AUX)
    Blend: AUG-CC-PVTZ-JKFIT
	 Reference Energy          =    -344.9976047252948774 [Eh]
	 Singles Energy            =      -0.0000000000000000 [Eh]
	 Same-Spin Energy          =      -0.3407425154734923 [Eh]
	 Opposite-Spin Energy      =      -1.1304362821130625 [Eh]
	 Correlation Energy        =      -1.4711787975865547 [Eh]
	 Total Energy              =    -346.4687835228814379 [Eh]

	 ================> DF-SCS-MP2 Energies <==================
	-----------------------------------------------------------
	 SCS Same-Spin Scale       =       0.3333333333333333 [-]
	 SCS Opposite-Spin Scale   =       1.2000000000000000 [-]
	 SCS Same-Spin Energy      =      -0.1135808384911641 [Eh]
	 SCS Opposite-Spin Energy  =      -1.3565235385356749 [Eh]
	 SCS Correlation Energy    =      -1.4701043770268389 [Eh]
	 SCS Total Energy          =    -346.4677091023216917 [Eh]
	-----------------------------------------------------------

  Dipole Moment: [D]
     X:    -0.0973      Y:    -1.8584      Z:    -0.0017     Total:     1.8610

*** Psi4 exiting successfully. Buy a developer a beer!
