                               Psi4 1.3.2 release

  ==> Input File <==

--------------------------------------------------------------------------
#psi4
#
memory 32 gb

molecule  {
0 1
  O        0.7537840    -0.5075337     0.1290403
  O       -0.6284610     1.3947560    -0.0020030
  C       -1.6317410    -0.8217520    -0.0044580
  C        1.8458840     0.4351200     0.0004070
  C       -0.5027280     0.1807070    -0.0019040
  C       -2.9987110    -0.1525370     0.0051210
  C        3.0735570    -0.4468320     0.0021160
  H       -1.5041170    -1.4634550    -0.8835050
  H       -1.4975140    -1.4764990     0.8637890
  H        1.7981280     1.0776150    -0.8832090
  H        1.7963140     1.0785080     0.8832640
  H       -3.1225840     0.4871600    -0.8707550
  H       -3.7909030    -0.9055920     0.0019890
  H       -3.1170220     0.4736390     0.8915280
  H        3.9763110     0.1705960     0.0027210
  H        3.0870080    -1.0834370     0.8892710
  H        3.0888280    -1.0843650    -0.8843420
units angstrom
no_reorient  #important for SAPT in psi4, default
symmetry c1  #important for SAPT in psi4, default
}

set PROPERTIES_ORIGIN ["COM"]
properties('MP2/aug-cc-pvtz', properties = ['dipole'])
--------------------------------------------------------------------------

    Molecular point group: c1
  Charge       = 0
  Multiplicity = 1
  Basis Set: AUG-CC-PVTZ
    Blend: AUG-CC-PVTZ
  Basis Set: (AUG-CC-PVTZ AUX)
    Blend: AUG-CC-PVTZ-JKFIT

    Orbital Energies [Eh]
    ---------------------

    Doubly Occupied:

       1A    -20.596486     2A    -20.558056     3A    -11.388334
       4A    -11.281527     5A    -11.248479     6A    -11.222666
       7A    -11.218530     8A     -1.431218     9A     -1.351437
      10A     -1.068632    11A     -1.021142    12A     -0.903834
      13A     -0.837442    14A     -0.763270    15A     -0.695693
      16A     -0.673886    17A     -0.657773    18A     -0.629716
      19A     -0.580561    20A     -0.562089    21A     -0.552315
      22A     -0.525359    23A     -0.520596    24A     -0.512286
      25A     -0.508749    26A     -0.494267    27A     -0.457192
      28A     -0.445335

  @DF-RHF Final Energy:  -345.02509850264079

   => Energetics <=

    Nuclear Repulsion Energy =            310.4866554022458445
    One-Electron Energy =               -1085.6097617910156714
    Two-Electron Energy =                 430.0980078861290963
    Total Energy =                       -345.0250985026407875
  Basis Set: (AUG-CC-PVTZ AUX)
    Blend: AUG-CC-PVTZ-RI
    Molecular point group: c1

    Geometry (in Angstrom), charge = 0, multiplicity = 1:

       Center              X                  Y                   Z               Mass
    ------------   -----------------  -----------------  -----------------  -----------------
         O            0.752219335788    -0.524976540476     0.108875622632    15.994914619570
         O           -0.630025664212     1.377313159524    -0.022167677368    15.994914619570
         C           -1.633305664212    -0.839194840476    -0.024622677368    12.000000000000
         C            1.844319335788     0.417677159524    -0.019757677368    12.000000000000
         C           -0.504292664212     0.163264159524    -0.022068677368    12.000000000000
         C           -3.000275664212    -0.169979840476    -0.015043677368    12.000000000000
         C            3.071992335788    -0.464274840476    -0.018048677368    12.000000000000
         H           -1.505681664212    -1.480897840476    -0.903669677368     1.007825032230
         H           -1.499078664212    -1.493941840476     0.843624322632     1.007825032230
         H            1.796563335788     1.060172159524    -0.903373677368     1.007825032230
         H            1.794749335788     1.061065159524     0.863099322632     1.007825032230
         H           -3.124148664212     0.469717159524    -0.890919677368     1.007825032230
         H           -3.792467664212    -0.923034840476    -0.018175677368     1.007825032230
         H           -3.118586664212     0.456196159524     0.871363322632     1.007825032230
         H            3.974746335788     0.153153159524    -0.017443677368     1.007825032230
         H            3.085443335788    -1.100879840476     0.869106322632     1.007825032230
         H            3.087263335788    -1.101807840476    -0.904506677368     1.007825032230

  Basis Set: AUG-CC-PVTZ
    Blend: AUG-CC-PVTZ
  Basis Set: (AUG-CC-PVTZ AUX)
    Blend: AUG-CC-PVTZ-JKFIT
	 Reference Energy          =    -345.0250985026407875 [Eh]
	 Singles Energy            =      -0.0000000000000000 [Eh]
	 Same-Spin Energy          =      -0.3412442079476100 [Eh]
	 Opposite-Spin Energy      =      -1.1344105097301704 [Eh]
	 Correlation Energy        =      -1.4756547176777803 [Eh]
	 Total Energy              =    -346.5007532203185860 [Eh]

	 ================> DF-SCS-MP2 Energies <==================
	-----------------------------------------------------------
	 SCS Same-Spin Scale       =       0.3333333333333333 [-]
	 SCS Opposite-Spin Scale   =       1.2000000000000000 [-]
	 SCS Same-Spin Energy      =      -0.1137480693158700 [Eh]
	 SCS Opposite-Spin Energy  =      -1.3612926116762045 [Eh]
	 SCS Correlation Energy    =      -1.4750406809920746 [Eh]
	 SCS Total Energy          =    -346.5001391836328821 [Eh]
	-----------------------------------------------------------

  Dipole Moment: [D]
     X:     0.3002      Y:    -1.3458      Z:    -0.1699     Total:     1.3893

*** Psi4 exiting successfully. Buy a developer a beer!
