                               Psi4 1.3.2 release

  ==> Input File <==

--------------------------------------------------------------------------
#psi4
#
memory 32 gb

molecule  {
0 1
  O        0.7150830    -0.4699290    -0.0002758
  O       -0.6284610     1.3947560    -0.0020030
  C       -1.6317410    -0.8217520    -0.0044580
  C        1.8458840     0.4351200     0.0004070
  C       -0.5027280     0.1807070    -0.0019040
  C       -2.9987110    -0.1525370     0.0051210
  C        3.0735570    -0.4468320     0.0021160
  H       -1.5041170    -1.4634550    -0.8835050
  H       -1.4975140    -1.4764990     0.8637890
  H        1.7981280     1.0776150    -0.8832090
  H        1.7963140     1.0785080     0.8832640
  H       -3.1225840     0.4871600    -0.8707550
  H       -3.7909030    -0.9055920     0.0019890
  H       -3.1170220     0.4736390     0.8915280
  H        3.9763110     0.1705960     0.0027210
  H        3.0870080    -1.0834370     0.8892710
  H        3.0888280    -1.0843650    -0.8843420
units angstrom
no_reorient  #important for SAPT in psi4, default
symmetry c1  #important for SAPT in psi4, default
}

set PROPERTIES_ORIGIN ["COM"]
properties('MP2/aug-cc-pvtz', properties = ['dipole'])
--------------------------------------------------------------------------

    Molecular point group: c1
  Charge       = 0
  Multiplicity = 1
  Basis Set: AUG-CC-PVTZ
    Blend: AUG-CC-PVTZ
  Basis Set: (AUG-CC-PVTZ AUX)
    Blend: AUG-CC-PVTZ-JKFIT

    Orbital Energies [Eh]
    ---------------------

    Doubly Occupied:

       1A    -20.598864     2A    -20.547347     3A    -11.380868
       4A    -11.285617     5A    -11.245378     6A    -11.222603
       7A    -11.220327     8A     -1.443233     9A     -1.351214
      10A     -1.068682    11A     -1.026702    12A     -0.905474
      13A     -0.840834    14A     -0.767574    15A     -0.695186
      16A     -0.680191    17A     -0.659500    18A     -0.628802
      19A     -0.580752    20A     -0.565760    21A     -0.555600
      22A     -0.522601    23A     -0.518145    24A     -0.511423
      25A     -0.511334    26A     -0.491943    27A     -0.457835
      28A     -0.444677

  @DF-RHF Final Energy:  -345.03652493255481

   => Energetics <=

    Nuclear Repulsion Energy =            311.6799557882488330
    One-Electron Energy =               -1087.9760269948656060
    Two-Electron Energy =                 431.2595462740619041
    Total Energy =                       -345.0365249325548120
  Basis Set: (AUG-CC-PVTZ AUX)
    Blend: AUG-CC-PVTZ-RI
    Molecular point group: c1

    Geometry (in Angstrom), charge = 0, multiplicity = 1:

       Center              X                  Y                   Z               Mass
    ------------   -----------------  -----------------  -----------------  -----------------
         O            0.719583103474    -0.493264808859    -0.000175571951    15.994914619570
         O           -0.623960896526     1.371420191141    -0.001902771951    15.994914619570
         C           -1.627240896526    -0.845087808859    -0.004357771951    12.000000000000
         C            1.850384103474     0.411784191141     0.000507228049    12.000000000000
         C           -0.498227896526     0.157371191141    -0.001803771951    12.000000000000
         C           -2.994210896526    -0.175872808859     0.005221228049    12.000000000000
         C            3.078057103474    -0.470167808859     0.002216228049    12.000000000000
         H           -1.499616896526    -1.486790808859    -0.883404771951     1.007825032230
         H           -1.493013896526    -1.499834808859     0.863889228049     1.007825032230
         H            1.802628103474     1.054279191141    -0.883108771951     1.007825032230
         H            1.800814103474     1.055172191141     0.883364228049     1.007825032230
         H           -3.118083896526     0.463824191141    -0.870654771951     1.007825032230
         H           -3.786402896526    -0.928927808859     0.002089228049     1.007825032230
         H           -3.112521896526     0.450303191141     0.891628228049     1.007825032230
         H            3.980811103474     0.147260191141     0.002821228049     1.007825032230
         H            3.091508103474    -1.106772808859     0.889371228049     1.007825032230
         H            3.093328103474    -1.107700808859    -0.884241771951     1.007825032230

  Basis Set: AUG-CC-PVTZ
    Blend: AUG-CC-PVTZ
  Basis Set: (AUG-CC-PVTZ AUX)
    Blend: AUG-CC-PVTZ-JKFIT
	 Reference Energy          =    -345.0365249325548120 [Eh]
	 Singles Energy            =      -0.0000000000000000 [Eh]
	 Same-Spin Energy          =      -0.3401644854354405 [Eh]
	 Opposite-Spin Energy      =      -1.1314334560855002 [Eh]
	 Correlation Energy        =      -1.4715979415209408 [Eh]
	 Total Energy              =    -346.5081228740757524 [Eh]

	 ================> DF-SCS-MP2 Energies <==================
	-----------------------------------------------------------
	 SCS Same-Spin Scale       =       0.3333333333333333 [-]
	 SCS Opposite-Spin Scale   =       1.2000000000000000 [-]
	 SCS Same-Spin Energy      =      -0.1133881618118135 [Eh]
	 SCS Opposite-Spin Energy  =      -1.3577201473026002 [Eh]
	 SCS Correlation Energy    =      -1.4711083091144137 [Eh]
	 SCS Total Energy          =    -346.5076332416692253 [Eh]
	-----------------------------------------------------------

  Dipole Moment: [D]
     X:     0.6878      Y:    -1.5065      Z:    -0.0013     Total:     1.6561

*** Psi4 exiting successfully. Buy a developer a beer!
