                               Psi4 1.3.2 release

  ==> Input File <==

--------------------------------------------------------------------------
#psi4
#
memory 32 gb

molecule  {
0 1
  O        0.7102852    -0.4289788    -0.0002860
  O       -0.6284610     1.3947560    -0.0020030
  C       -1.6317410    -0.8217520    -0.0044580
  C        1.8458840     0.4351200     0.0004070
  C       -0.5027280     0.1807070    -0.0019040
  C       -2.9987110    -0.1525370     0.0051210
  C        3.0735570    -0.4468320     0.0021160
  H       -1.5041170    -1.4634550    -0.8835050
  H       -1.4975140    -1.4764990     0.8637890
  H        1.7981280     1.0776150    -0.8832090
  H        1.7963140     1.0785080     0.8832640
  H       -3.1225840     0.4871600    -0.8707550
  H       -3.7909030    -0.9055920     0.0019890
  H       -3.1170220     0.4736390     0.8915280
  H        3.9763110     0.1705960     0.0027210
  H        3.0870080    -1.0834370     0.8892710
  H        3.0888280    -1.0843650    -0.8843420
units angstrom
no_reorient  #important for SAPT in psi4, default
symmetry c1  #important for SAPT in psi4, default
}

set PROPERTIES_ORIGIN ["COM"]
properties('MP2/aug-cc-pvtz', properties = ['dipole'])
--------------------------------------------------------------------------

    Molecular point group: c1
  Charge       = 0
  Multiplicity = 1
  Basis Set: AUG-CC-PVTZ
    Blend: AUG-CC-PVTZ
  Basis Set: (AUG-CC-PVTZ AUX)
    Blend: AUG-CC-PVTZ-JKFIT

    Orbital Energies [Eh]
    ---------------------

    Doubly Occupied:

       1A    -20.598270     2A    -20.542346     3A    -11.378367
       4A    -11.284879     5A    -11.246001     6A    -11.223463
       7A    -11.220491     8A     -1.453056     9A     -1.351091
      10A     -1.070194    11A     -1.028803    12A     -0.908490
      13A     -0.843207    14A     -0.770764    15A     -0.696138
      16A     -0.685096    17A     -0.661160    18A     -0.629112
      19A     -0.582102    20A     -0.567707    21A     -0.556301
      22A     -0.522528    23A     -0.521239    24A     -0.511706
      25A     -0.507237    26A     -0.491392    27A     -0.454522
      28A     -0.444380

  @DF-RHF Final Energy:  -345.03965564597752

   => Energetics <=

    Nuclear Repulsion Energy =            312.5060581099770616
    One-Electron Energy =               -1089.5913438716154360
    Two-Electron Energy =                 432.0456301156608561
    Total Energy =                       -345.0396556459775184
  Basis Set: (AUG-CC-PVTZ AUX)
    Blend: AUG-CC-PVTZ-RI
    Molecular point group: c1

    Geometry (in Angstrom), charge = 0, multiplicity = 1:

       Center              X                  Y                   Z               Mass
    ------------   -----------------  -----------------  -----------------  -----------------
         O            0.715537158526    -0.458731844840    -0.000184173526    15.994914619570
         O           -0.623209041474     1.365002955160    -0.001901173526    15.994914619570
         C           -1.626489041474    -0.851505044840    -0.004356173526    12.000000000000
         C            1.851135958526     0.405366955160     0.000508826474    12.000000000000
         C           -0.497476041474     0.150953955160    -0.001802173526    12.000000000000
         C           -2.993459041474    -0.182290044840     0.005222826474    12.000000000000
         C            3.078808958526    -0.476585044840     0.002217826474    12.000000000000
         H           -1.498865041474    -1.493208044840    -0.883403173526     1.007825032230
         H           -1.492262041474    -1.506252044840     0.863890826474     1.007825032230
         H            1.803379958526     1.047861955160    -0.883107173526     1.007825032230
         H            1.801565958526     1.048754955160     0.883365826474     1.007825032230
         H           -3.117332041474     0.457406955160    -0.870653173526     1.007825032230
         H           -3.785651041474    -0.935345044840     0.002090826474     1.007825032230
         H           -3.111770041474     0.443885955160     0.891629826474     1.007825032230
         H            3.981562958526     0.140842955160     0.002822826474     1.007825032230
         H            3.092259958526    -1.113190044840     0.889372826474     1.007825032230
         H            3.094079958526    -1.114118044840    -0.884240173526     1.007825032230

  Basis Set: AUG-CC-PVTZ
    Blend: AUG-CC-PVTZ
  Basis Set: (AUG-CC-PVTZ AUX)
    Blend: AUG-CC-PVTZ-JKFIT
	 Reference Energy          =    -345.0396556459775184 [Eh]
	 Singles Energy            =      -0.0000000000000000 [Eh]
	 Same-Spin Energy          =      -0.3396158549525951 [Eh]
	 Opposite-Spin Energy      =      -1.1297025867483588 [Eh]
	 Correlation Energy        =      -1.4693184417009539 [Eh]
	 Total Energy              =    -346.5089740876784958 [Eh]

	 ================> DF-SCS-MP2 Energies <==================
	-----------------------------------------------------------
	 SCS Same-Spin Scale       =       0.3333333333333333 [-]
	 SCS Opposite-Spin Scale   =       1.2000000000000000 [-]
	 SCS Same-Spin Energy      =      -0.1132052849841984 [Eh]
	 SCS Opposite-Spin Energy  =      -1.3556431040980306 [Eh]
	 SCS Correlation Energy    =      -1.4688483890822290 [Eh]
	 SCS Total Energy          =    -346.5085040350597296 [Eh]
	-----------------------------------------------------------

  Dipole Moment: [D]
     X:     0.7512      Y:    -1.6346      Z:    -0.0012     Total:     1.7990

*** Psi4 exiting successfully. Buy a developer a beer!
