                               Psi4 1.3.2 release

  ==> Input File <==

--------------------------------------------------------------------------
#psi4
#
memory 32 gb

molecule  {
0 1
  O        0.6994600    -0.4500560    -0.0003020
  O       -0.6284610     1.3947560    -0.0020030
  C       -1.6317410    -0.8217520    -0.0044580
  C        1.8302610     0.4549930     0.0003798
  C       -0.5027280     0.1807070    -0.0019040
  C       -2.9987110    -0.1525370     0.0051210
  C        3.0735570    -0.4468320     0.0021160
  H       -1.5041170    -1.4634550    -0.8835050
  H       -1.4975140    -1.4764990     0.8637890
  H        1.7981280     1.0776150    -0.8832090
  H        1.7963140     1.0785080     0.8832640
  H       -3.1225840     0.4871600    -0.8707550
  H       -3.7909030    -0.9055920     0.0019890
  H       -3.1170220     0.4736390     0.8915280
  H        3.9763110     0.1705960     0.0027210
  H        3.0870080    -1.0834370     0.8892710
  H        3.0888280    -1.0843650    -0.8843420
units angstrom
no_reorient  #important for SAPT in psi4, default
symmetry c1  #important for SAPT in psi4, default
}

set PROPERTIES_ORIGIN ["COM"]
properties('MP2/aug-cc-pvtz', properties = ['dipole'])
--------------------------------------------------------------------------

    Molecular point group: c1
  Charge       = 0
  Multiplicity = 1
  Basis Set: AUG-CC-PVTZ
    Blend: AUG-CC-PVTZ
  Basis Set: (AUG-CC-PVTZ AUX)
    Blend: AUG-CC-PVTZ-JKFIT

    Orbital Energies [Eh]
    ---------------------

    Doubly Occupied:

       1A    -20.600280     2A    -20.542908     3A    -11.377576
       4A    -11.286359     5A    -11.244329     6A    -11.224594
       7A    -11.219523     8A     -1.450467     9A     -1.350227
      10A     -1.068222    11A     -1.024879    12A     -0.906076
      13A     -0.844241    14A     -0.770027    15A     -0.694560
      16A     -0.684640    17A     -0.661166    18A     -0.628832
      19A     -0.579568    20A     -0.567251    21A     -0.554860
      22A     -0.521314    23A     -0.516907    24A     -0.513479
      25A     -0.507903    26A     -0.492288    27A     -0.459579
      28A     -0.443765

  @DF-RHF Final Energy:  -345.03836412604875

   => Energetics <=

    Nuclear Repulsion Energy =            312.1538636237584683
    One-Electron Energy =               -1088.9128166820648858
    Two-Electron Energy =                 431.7205889322576127
    Total Energy =                       -345.0383641260487479
  Basis Set: (AUG-CC-PVTZ AUX)
    Blend: AUG-CC-PVTZ-RI
    Molecular point group: c1

    Geometry (in Angstrom), charge = 0, multiplicity = 1:

       Center              X                  Y                   Z               Mass
    ------------   -----------------  -----------------  -----------------  -----------------
         O            0.708245131202    -0.478842513336    -0.000194468328    15.994914619570
         O           -0.619675868798     1.365969486664    -0.001895468328    15.994914619570
         C           -1.622955868798    -0.850538513336    -0.004350468328    12.000000000000
         C            1.839046131202     0.426206486664     0.000487331672    12.000000000000
         C           -0.493942868798     0.151920486664    -0.001796468328    12.000000000000
         C           -2.989925868798    -0.181323513336     0.005228531672    12.000000000000
         C            3.082342131202    -0.475618513336     0.002223531672    12.000000000000
         H           -1.495331868798    -1.492241513336    -0.883397468328     1.007825032230
         H           -1.488728868798    -1.505285513336     0.863896531672     1.007825032230
         H            1.806913131202     1.048828486664    -0.883101468328     1.007825032230
         H            1.805099131202     1.049721486664     0.883371531672     1.007825032230
         H           -3.113798868798     0.458373486664    -0.870647468328     1.007825032230
         H           -3.782117868798    -0.934378513336     0.002096531672     1.007825032230
         H           -3.108236868798     0.444852486664     0.891635531672     1.007825032230
         H            3.985096131202     0.141809486664     0.002828531672     1.007825032230
         H            3.095793131202    -1.112223513336     0.889378531672     1.007825032230
         H            3.097613131202    -1.113151513336    -0.884234468328     1.007825032230

  Basis Set: AUG-CC-PVTZ
    Blend: AUG-CC-PVTZ
  Basis Set: (AUG-CC-PVTZ AUX)
    Blend: AUG-CC-PVTZ-JKFIT
	 Reference Energy          =    -345.0383641260487479 [Eh]
	 Singles Energy            =      -0.0000000000000000 [Eh]
	 Same-Spin Energy          =      -0.3396785144957185 [Eh]
	 Opposite-Spin Energy      =      -1.1303558640289992 [Eh]
	 Correlation Energy        =      -1.4700343785247179 [Eh]
	 Total Energy              =    -346.5083985045734494 [Eh]

	 ================> DF-SCS-MP2 Energies <==================
	-----------------------------------------------------------
	 SCS Same-Spin Scale       =       0.3333333333333333 [-]
	 SCS Opposite-Spin Scale   =       1.2000000000000000 [-]
	 SCS Same-Spin Energy      =      -0.1132261714985728 [Eh]
	 SCS Opposite-Spin Energy  =      -1.3564270368347990 [Eh]
	 SCS Correlation Energy    =      -1.4696532083333720 [Eh]
	 SCS Total Energy          =    -346.5080173343821457 [Eh]
	-----------------------------------------------------------

  Dipole Moment: [D]
     X:     0.7984      Y:    -1.5547      Z:    -0.0012     Total:     1.7477

*** Psi4 exiting successfully. Buy a developer a beer!
