                               Psi4 1.3.2 release

  ==> Input File <==

--------------------------------------------------------------------------
#psi4
#
memory 32 gb

molecule  {
0 1
  O        0.7982662    -0.5650408    -0.0001416
  O       -0.6284610     1.3947560    -0.0020030
  C       -1.6317410    -0.8217520    -0.0044580
  C        1.8458840     0.4351200     0.0004070
  C       -0.5027280     0.1807070    -0.0019040
  C       -2.9987110    -0.1525370     0.0051210
  C        3.0735570    -0.4468320     0.0021160
  H       -1.5041170    -1.4634550    -0.8835050
  H       -1.4975140    -1.4764990     0.8637890
  H        1.7981280     1.0776150    -0.8832090
  H        1.7963140     1.0785080     0.8832640
  H       -3.1225840     0.4871600    -0.8707550
  H       -3.7909030    -0.9055920     0.0019890
  H       -3.1170220     0.4736390     0.8915280
  H        3.9763110     0.1705960     0.0027210
  H        3.0870080    -1.0834370     0.8892710
  H        3.0888280    -1.0843650    -0.8843420
units angstrom
no_reorient  #important for SAPT in psi4, default
symmetry c1  #important for SAPT in psi4, default
}

set PROPERTIES_ORIGIN ["COM"]
properties('MP2/aug-cc-pvtz', properties = ['dipole'])
--------------------------------------------------------------------------

    Molecular point group: c1
  Charge       = 0
  Multiplicity = 1
  Basis Set: AUG-CC-PVTZ
    Blend: AUG-CC-PVTZ
  Basis Set: (AUG-CC-PVTZ AUX)
    Blend: AUG-CC-PVTZ-JKFIT

    Orbital Energies [Eh]
    ---------------------

    Doubly Occupied:

       1A    -20.595063     2A    -20.568723     3A    -11.395488
       4A    -11.278130     5A    -11.251072     6A    -11.224667
       7A    -11.214391     8A     -1.424355     9A     -1.349156
      10A     -1.069299    11A     -1.015139    12A     -0.903000
      13A     -0.834374    14A     -0.760161    15A     -0.694455
      16A     -0.669388    17A     -0.657299    18A     -0.631372
      19A     -0.579601    20A     -0.557084    21A     -0.551387
      22A     -0.528281    23A     -0.521803    24A     -0.511958
      25A     -0.505836    26A     -0.497740    27A     -0.458465
      28A     -0.443480

  @DF-RHF Final Energy:  -345.01284839056638

   => Energetics <=

    Nuclear Repulsion Energy =            309.3399546410779521
    One-Electron Energy =               -1083.3232746889875671
    Two-Electron Energy =                 428.9704716573432393
    Total Energy =                       -345.0128483905663757
  Basis Set: (AUG-CC-PVTZ AUX)
    Blend: AUG-CC-PVTZ-RI
    Molecular point group: c1

    Geometry (in Angstrom), charge = 0, multiplicity = 1:

       Center              X                  Y                   Z               Mass
    ------------   -----------------  -----------------  -----------------  -----------------
         O            0.789730806112    -0.573471800942    -0.000062402204    15.994914619570
         O           -0.636996393888     1.386324999058    -0.001923802204    15.994914619570
         C           -1.640276393888    -0.830183000942    -0.004378802204    12.000000000000
         C            1.837348606112     0.426688999058     0.000486197796    12.000000000000
         C           -0.511263393888     0.172275999058    -0.001824802204    12.000000000000
         C           -3.007246393888    -0.160968000942     0.005200197796    12.000000000000
         C            3.065021606112    -0.455263000942     0.002195197796    12.000000000000
         H           -1.512652393888    -1.471886000942    -0.883425802204     1.007825032230
         H           -1.506049393888    -1.484930000942     0.863868197796     1.007825032230
         H            1.789592606112     1.069183999058    -0.883129802204     1.007825032230
         H            1.787778606112     1.070076999058     0.883343197796     1.007825032230
         H           -3.131119393888     0.478728999058    -0.870675802204     1.007825032230
         H           -3.799438393888    -0.914023000942     0.002068197796     1.007825032230
         H           -3.125557393888     0.465207999058     0.891607197796     1.007825032230
         H            3.967775606112     0.162164999058     0.002800197796     1.007825032230
         H            3.078472606112    -1.091868000942     0.889350197796     1.007825032230
         H            3.080292606112    -1.092796000942    -0.884262802204     1.007825032230

  Basis Set: AUG-CC-PVTZ
    Blend: AUG-CC-PVTZ
  Basis Set: (AUG-CC-PVTZ AUX)
    Blend: AUG-CC-PVTZ-JKFIT
	 Reference Energy          =    -345.0128483905663757 [Eh]
	 Singles Energy            =      -0.0000000000000000 [Eh]
	 Same-Spin Energy          =      -0.3425039150715758 [Eh]
	 Opposite-Spin Energy      =      -1.1377462457214045 [Eh]
	 Correlation Energy        =      -1.4802501607929803 [Eh]
	 Total Energy              =    -346.4930985513593669 [Eh]

	 ================> DF-SCS-MP2 Energies <==================
	-----------------------------------------------------------
	 SCS Same-Spin Scale       =       0.3333333333333333 [-]
	 SCS Opposite-Spin Scale   =       1.2000000000000000 [-]
	 SCS Same-Spin Energy      =      -0.1141679716905253 [Eh]
	 SCS Opposite-Spin Energy  =      -1.3652954948656852 [Eh]
	 SCS Correlation Energy    =      -1.4794634665562105 [Eh]
	 SCS Total Energy          =    -346.4923118571225586 [Eh]
	-----------------------------------------------------------

  Dipole Moment: [D]
     X:    -0.0785      Y:    -1.1597      Z:    -0.0023     Total:     1.1624

*** Psi4 exiting successfully. Buy a developer a beer!
