                               Psi4 1.3.2 release

  ==> Input File <==

--------------------------------------------------------------------------
#psi4
#
memory 32 gb

molecule  {
0 1
  O        0.6841862    -0.4299133    -0.0003280
  O       -0.6284610     1.3947560    -0.0020030
  C       -1.6317410    -0.8217520    -0.0044580
  C        1.8458840     0.4351200     0.0004070
  C       -0.5027280     0.1807070    -0.0019040
  C       -2.9987110    -0.1525370     0.0051210
  C        3.0735570    -0.4468320     0.0021160
  H       -1.5041170    -1.4634550    -0.8835050
  H       -1.4975140    -1.4764990     0.8637890
  H        1.7981280     1.0776150    -0.8832090
  H        1.7963140     1.0785080     0.8832640
  H       -3.1225840     0.4871600    -0.8707550
  H       -3.7909030    -0.9055920     0.0019890
  H       -3.1170220     0.4736390     0.8915280
  H        3.9763110     0.1705960     0.0027210
  H        3.0870080    -1.0834370     0.8892710
  H        3.0888280    -1.0843650    -0.8843420
units angstrom
no_reorient  #important for SAPT in psi4, default
symmetry c1  #important for SAPT in psi4, default
}

set PROPERTIES_ORIGIN ["COM"]
properties('MP2/aug-cc-pvtz', properties = ['dipole'])
--------------------------------------------------------------------------

    Molecular point group: c1
  Charge       = 0
  Multiplicity = 1
  Basis Set: AUG-CC-PVTZ
    Blend: AUG-CC-PVTZ
  Basis Set: (AUG-CC-PVTZ AUX)
    Blend: AUG-CC-PVTZ-JKFIT

    Orbital Energies [Eh]
    ---------------------

    Doubly Occupied:

       1A    -20.599833     2A    -20.537736     3A    -11.374288
       4A    -11.289150     5A    -11.243238     6A    -11.226091
       7A    -11.218576     8A     -1.456670     9A     -1.348109
      10A     -1.069567    11A     -1.030771    12A     -0.908030
      13A     -0.843993    14A     -0.771254    15A     -0.693860
      16A     -0.685793    17A     -0.661632    18A     -0.627996
      19A     -0.580217    20A     -0.570189    21A     -0.558567
      22A     -0.521472    23A     -0.519747    24A     -0.511211
      25A     -0.507964    26A     -0.490460    27A     -0.455618
      28A     -0.442202

  @DF-RHF Final Energy:  -345.04041989478662

   => Energetics <=

    Nuclear Repulsion Energy =            312.6881364970977870
    One-Electron Energy =               -1089.9686487341318752
    Two-Electron Energy =                 432.2400923422475216
    Total Energy =                       -345.0404198947866234
  Basis Set: (AUG-CC-PVTZ AUX)
    Blend: AUG-CC-PVTZ-RI
    Molecular point group: c1

    Geometry (in Angstrom), charge = 0, multiplicity = 1:

       Center              X                  Y                   Z               Mass
    ------------   -----------------  -----------------  -----------------  -----------------
         O            0.693528088291    -0.459519900939    -0.000219591778    15.994914619570
         O           -0.619119111709     1.365149399061    -0.001894591778    15.994914619570
         C           -1.622399111709    -0.851358600939    -0.004349591778    12.000000000000
         C            1.855225888291     0.405513399061     0.000515408222    12.000000000000
         C           -0.493386111709     0.151100399061    -0.001795591778    12.000000000000
         C           -2.989369111709    -0.182143600939     0.005229408222    12.000000000000
         C            3.082898888291    -0.476438600939     0.002224408222    12.000000000000
         H           -1.494775111709    -1.493061600939    -0.883396591778     1.007825032230
         H           -1.488172111709    -1.506105600939     0.863897408222     1.007825032230
         H            1.807469888291     1.048008399061    -0.883100591778     1.007825032230
         H            1.805655888291     1.048901399061     0.883372408222     1.007825032230
         H           -3.113242111709     0.457553399061    -0.870646591778     1.007825032230
         H           -3.781561111709    -0.935198600939     0.002097408222     1.007825032230
         H           -3.107680111709     0.444032399061     0.891636408222     1.007825032230
         H            3.985652888291     0.140989399061     0.002829408222     1.007825032230
         H            3.096349888291    -1.113043600939     0.889379408222     1.007825032230
         H            3.098169888291    -1.113971600939    -0.884233591778     1.007825032230

  Basis Set: AUG-CC-PVTZ
    Blend: AUG-CC-PVTZ
  Basis Set: (AUG-CC-PVTZ AUX)
    Blend: AUG-CC-PVTZ-JKFIT
	 Reference Energy          =    -345.0404198947866234 [Eh]
	 Singles Energy            =      -0.0000000000000000 [Eh]
	 Same-Spin Energy          =      -0.3394161174360253 [Eh]
	 Opposite-Spin Energy      =      -1.1292840268344624 [Eh]
	 Correlation Energy        =      -1.4687001442704877 [Eh]
	 Total Energy              =    -346.5091200390571089 [Eh]

	 ================> DF-SCS-MP2 Energies <==================
	-----------------------------------------------------------
	 SCS Same-Spin Scale       =       0.3333333333333333 [-]
	 SCS Opposite-Spin Scale   =       1.2000000000000000 [-]
	 SCS Same-Spin Energy      =      -0.1131387058120084 [Eh]
	 SCS Opposite-Spin Energy  =      -1.3551408322013547 [Eh]
	 SCS Correlation Energy    =      -1.4682795380133631 [Eh]
	 SCS Total Energy          =    -346.5086994327999719 [Eh]
	-----------------------------------------------------------

  Dipole Moment: [D]
     X:     0.9926      Y:    -1.6571      Z:    -0.0010     Total:     1.9317

*** Psi4 exiting successfully. Buy a developer a beer!
