                               Psi4 1.4a3.dev225

  ==> Input File <==

--------------------------------------------------------------------------
#psi4
#
memory 32 gb

molecule  {
0 1
  O        0.6994210    -0.4500590     0.0000070
  O       -0.6284480     1.3945490     0.0000020
  C       -1.6317860    -0.8218820     0.0000110
  C        1.8459670     0.4353080     0.0000040
  C       -0.4974987     0.1307653     0.0000051
  C       -2.9986830    -0.1522840    -0.0000150
  C        3.0735530    -0.4467850    -0.0000110
  H       -1.5010890    -1.4699950    -0.8737300
  H       -1.5011070    -1.4699580     0.8737830
  H        1.7972070     1.0780770    -0.8832610
  H        1.7972200     1.0780650     0.8832780
  H       -3.1198680     0.4807080    -0.8811490
  H       -3.7908920    -0.9053640    -0.0000550
  H       -3.1199230     0.4806680     0.8811400
  H        3.9762390     0.1706970    -0.0000130
  H        3.0880200    -1.0839810     0.8867310
  H        3.0880080    -1.0839670    -0.8867630
units angstrom
no_reorient  #important for SAPT in psi4, default
symmetry c1  #important for SAPT in psi4, default
}

set PROPERTIES_ORIGIN ["COM"]
properties('MP2/aug-cc-pvtz', properties = ['dipole'])
--------------------------------------------------------------------------

    Molecular point group: c1
  Charge       = 0
  Multiplicity = 1
  Basis Set: AUG-CC-PVTZ
    Blend: AUG-CC-PVTZ
  Basis Set: (AUG-CC-PVTZ AUX)
    Blend: AUG-CC-PVTZ-JKFIT

    Orbital Energies [Eh]
    ---------------------

    Doubly Occupied:

       1A    -20.606763     2A    -20.532566     3A    -11.380835
       4A    -11.290982     5A    -11.245534     6A    -11.226513
       7A    -11.220429     8A     -1.454036     9A     -1.322156
      10A     -1.075680    11A     -1.033371    12A     -0.913325
      13A     -0.847661    14A     -0.773562    15A     -0.691436
      16A     -0.686930    17A     -0.656691    18A     -0.630497
      19A     -0.575147    20A     -0.568707    21A     -0.559263
      22A     -0.523230    23A     -0.520251    24A     -0.511355
      25A     -0.508522    26A     -0.486448    27A     -0.448505
      28A     -0.440650

  @DF-RHF Final Energy:  -345.03178865216154

   => Energetics <=

    Nuclear Repulsion Energy =            312.0478132651779219
    One-Electron Energy =               -1088.6971101976912450
    Two-Electron Energy =                 431.6175082803518421
    Total Energy =                       -345.0317886521615378
  Basis Set: (AUG-CC-PVTZ AUX)
    Blend: AUG-CC-PVTZ-RI
    Molecular point group: c1

    Geometry (in Angstrom), charge = 0, multiplicity = 1:

       Center              X                  Y                   Z               Mass
    ------------   -----------------  -----------------  -----------------  -----------------
         O            0.705757601042    -0.470654380201     0.000006668368    15.994914619570
         O           -0.622111398958     1.373953619799     0.000001668368    15.994914619570
         C           -1.625449398958    -0.842477380201     0.000010668368    12.000000000000
         C            1.852303601042     0.414712619799     0.000003668368    12.000000000000
         C           -0.491162098958     0.110169919799     0.000004768368    12.000000000000
         C           -2.992346398958    -0.172879380201    -0.000015331632    12.000000000000
         C            3.079889601042    -0.467380380201    -0.000011331632    12.000000000000
         H           -1.494752398958    -1.490590380201    -0.873730331632     1.007825032230
         H           -1.494770398958    -1.490553380201     0.873782668368     1.007825032230
         H            1.803543601042     1.057481619799    -0.883261331632     1.007825032230
         H            1.803556601042     1.057469619799     0.883277668368     1.007825032230
         H           -3.113531398958     0.460112619799    -0.881149331632     1.007825032230
         H           -3.784555398958    -0.925959380201    -0.000055331632     1.007825032230
         H           -3.113586398958     0.460072619799     0.881139668368     1.007825032230
         H            3.982575601042     0.150101619799    -0.000013331632     1.007825032230
         H            3.094356601042    -1.104576380201     0.886730668368     1.007825032230
         H            3.094344601042    -1.104562380201    -0.886763331632     1.007825032230

  Basis Set: AUG-CC-PVTZ
    Blend: AUG-CC-PVTZ
  Basis Set: (AUG-CC-PVTZ AUX)
    Blend: AUG-CC-PVTZ-JKFIT
	 Reference Energy          =    -345.0317886521615378 [Eh]
	 Singles Energy            =      -0.0000000000000000 [Eh]
	 Same-Spin Energy          =      -0.3407193422151739 [Eh]
	 Opposite-Spin Energy      =      -1.1319517183438863 [Eh]
	 Correlation Energy        =      -1.4726710605590601 [Eh]
	 Total Energy              =    -346.5044597127205748 [Eh]

	 ================> DF-SCS-MP2 Energies <==================
	-----------------------------------------------------------
	 SCS Same-Spin Scale       =       0.3333333333333333 [-]
	 SCS Opposite-Spin Scale   =       1.2000000000000000 [-]
	 SCS Same-Spin Energy      =      -0.1135731140717246 [Eh]
	 SCS Opposite-Spin Energy  =      -1.3583420620126636 [Eh]
	 SCS Correlation Energy    =      -1.4719151760843883 [Eh]
	 SCS Total Energy          =    -346.5037038282459321 [Eh]
	-----------------------------------------------------------

  Dipole Moment: [D]
     X:     1.0053      Y:    -1.8641      Z:     0.0000     Total:     2.1179

*** Psi4 exiting successfully. Buy a developer a beer!
