                               Psi4 1.3.2 release

  ==> Input File <==

--------------------------------------------------------------------------
#psi4
#
memory 32 gb

molecule  {
0 1
  O        0.6994600    -0.4500560    -0.0003020
  O       -0.6284610     1.3947560    -0.0020030
  C       -1.6317410    -0.8217520    -0.0044580
  C        1.8458840     0.4351200     0.0004070
  C       -0.4844448     0.1588433    -0.0462329
  C       -2.9987110    -0.1525370     0.0051210
  C        3.0735570    -0.4468320     0.0021160
  H       -1.5041170    -1.4634550    -0.8835050
  H       -1.4975140    -1.4764990     0.8637890
  H        1.7981280     1.0776150    -0.8832090
  H        1.7963140     1.0785080     0.8832640
  H       -3.1225840     0.4871600    -0.8707550
  H       -3.7909030    -0.9055920     0.0019890
  H       -3.1170220     0.4736390     0.8915280
  H        3.9763110     0.1705960     0.0027210
  H        3.0870080    -1.0834370     0.8892710
  H        3.0888280    -1.0843650    -0.8843420
units angstrom
no_reorient  #important for SAPT in psi4, default
symmetry c1  #important for SAPT in psi4, default
}

set PROPERTIES_ORIGIN ["COM"]
properties('MP2/aug-cc-pvtz', properties = ['dipole'])
--------------------------------------------------------------------------

    Molecular point group: c1
  Charge       = 0
  Multiplicity = 1
  Basis Set: AUG-CC-PVTZ
    Blend: AUG-CC-PVTZ
  Basis Set: (AUG-CC-PVTZ AUX)
    Blend: AUG-CC-PVTZ-JKFIT

    Orbital Energies [Eh]
    ---------------------

    Doubly Occupied:

       1A    -20.606078     2A    -20.536654     3A    -11.378637
       4A    -11.290598     5A    -11.244118     6A    -11.226407
       7A    -11.218800     8A     -1.456220     9A     -1.337744
      10A     -1.070010    11A     -1.031635    12A     -0.908951
      13A     -0.845330    14A     -0.774302    15A     -0.690971
      16A     -0.687056    17A     -0.659852    18A     -0.627939
      19A     -0.578189    20A     -0.569771    21A     -0.558634
      22A     -0.520605    23A     -0.519885    24A     -0.511074
      25A     -0.510205    26A     -0.488172    27A     -0.454547
      28A     -0.440751

  @DF-RHF Final Energy:  -345.03581092562990

   => Energetics <=

    Nuclear Repulsion Energy =            312.1763858830702816
    One-Electron Energy =               -1088.9381272600874127
    Two-Electron Energy =                 431.7259304513872848
    Total Energy =                       -345.0358109256299031
  Basis Set: (AUG-CC-PVTZ AUX)
    Blend: AUG-CC-PVTZ-RI
    Molecular point group: c1

    Geometry (in Angstrom), charge = 0, multiplicity = 1:

       Center              X                  Y                   Z               Mass
    ------------   -----------------  -----------------  -----------------  -----------------
         O            0.704258827141    -0.473935588447     0.005014019990    15.994914619570
         O           -0.623662172859     1.370876411553     0.003313019990    15.994914619570
         C           -1.626942172859    -0.845631588447     0.000858019990    12.000000000000
         C            1.850682827141     0.411240411553     0.005723019990    12.000000000000
         C           -0.479645972859     0.134963711553    -0.040916880010    12.000000000000
         C           -2.993912172859    -0.176416588447     0.010437019990    12.000000000000
         C            3.078355827141    -0.470711588447     0.007432019990    12.000000000000
         H           -1.499318172859    -1.487334588447    -0.878188980010     1.007825032230
         H           -1.492715172859    -1.500378588447     0.869105019990     1.007825032230
         H            1.802926827141     1.053735411553    -0.877892980010     1.007825032230
         H            1.801112827141     1.054628411553     0.888580019990     1.007825032230
         H           -3.117785172859     0.463280411553    -0.865438980010     1.007825032230
         H           -3.786104172859    -0.929471588447     0.007305019990     1.007825032230
         H           -3.112223172859     0.449759411553     0.896844019990     1.007825032230
         H            3.981109827141     0.146716411553     0.008037019990     1.007825032230
         H            3.091806827141    -1.107316588447     0.894587019990     1.007825032230
         H            3.093626827141    -1.108244588447    -0.879025980010     1.007825032230

  Basis Set: AUG-CC-PVTZ
    Blend: AUG-CC-PVTZ
  Basis Set: (AUG-CC-PVTZ AUX)
    Blend: AUG-CC-PVTZ-JKFIT
	 Reference Energy          =    -345.0358109256299031 [Eh]
	 Singles Energy            =      -0.0000000000000000 [Eh]
	 Same-Spin Energy          =      -0.3400978617282836 [Eh]
	 Opposite-Spin Energy      =      -1.1309016800837683 [Eh]
	 Correlation Energy        =      -1.4709995418120521 [Eh]
	 Total Energy              =    -346.5068104674419374 [Eh]

	 ================> DF-SCS-MP2 Energies <==================
	-----------------------------------------------------------
	 SCS Same-Spin Scale       =       0.3333333333333333 [-]
	 SCS Opposite-Spin Scale   =       1.2000000000000000 [-]
	 SCS Same-Spin Energy      =      -0.1133659539094279 [Eh]
	 SCS Opposite-Spin Energy  =      -1.3570820161005219 [Eh]
	 SCS Correlation Energy    =      -1.4704479700099498 [Eh]
	 SCS Total Energy          =    -346.5062588956398599 [Eh]
	-----------------------------------------------------------

  Dipole Moment: [D]
     X:     1.0541      Y:    -1.7154      Z:    -0.0379     Total:     2.0137

*** Psi4 exiting successfully. Buy a developer a beer!
