                               Psi4 1.3.2 release

  ==> Input File <==

--------------------------------------------------------------------------
#psi4
#
memory 32 gb

molecule  {
0 1
  O        0.6994600    -0.4500560    -0.0003020
  O       -0.6284610     1.3947560    -0.0020030
  C       -1.6317410    -0.8217520    -0.0044580
  C        1.8458840     0.4351200     0.0004070
  C       -0.4821252    -0.0182290    -0.0018878
  C       -2.9987110    -0.1525370     0.0051210
  C        3.0735570    -0.4468320     0.0021160
  H       -1.5041170    -1.4634550    -0.8835050
  H       -1.4975140    -1.4764990     0.8637890
  H        1.7981280     1.0776150    -0.8832090
  H        1.7963140     1.0785080     0.8832640
  H       -3.1225840     0.4871600    -0.8707550
  H       -3.7909030    -0.9055920     0.0019890
  H       -3.1170220     0.4736390     0.8915280
  H        3.9763110     0.1705960     0.0027210
  H        3.0870080    -1.0834370     0.8892710
  H        3.0888280    -1.0843650    -0.8843420
units angstrom
no_reorient  #important for SAPT in psi4, default
symmetry c1  #important for SAPT in psi4, default
}

set PROPERTIES_ORIGIN ["COM"]
properties('MP2/aug-cc-pvtz', properties = ['dipole'])
--------------------------------------------------------------------------

    Molecular point group: c1
  Charge       = 0
  Multiplicity = 1
  Basis Set: AUG-CC-PVTZ
    Blend: AUG-CC-PVTZ
  Basis Set: (AUG-CC-PVTZ AUX)
    Blend: AUG-CC-PVTZ-JKFIT

    Orbital Energies [Eh]
    ---------------------

    Doubly Occupied:

       1A    -20.626775     2A    -20.500659     3A    -11.386967
       4A    -11.301509     5A    -11.249146     6A    -11.232540
       7A    -11.223586     8A     -1.487889     9A     -1.236299
      10A     -1.095052    11A     -1.048138    12A     -0.931153
      13A     -0.866667    14A     -0.786460    15A     -0.702261
      16A     -0.691547    17A     -0.660461    18A     -0.638603
      19A     -0.577071    20A     -0.567753    21A     -0.553193
      22A     -0.543055    23A     -0.524198    24A     -0.515954
      25A     -0.489903    26A     -0.477949    27A     -0.412222
      28A     -0.403211

  @DF-RHF Final Energy:  -344.97463751955974

   => Energetics <=

    Nuclear Repulsion Energy =            311.8987392880629272
    One-Electron Energy =               -1088.2863091308381627
    Two-Electron Energy =                 431.4129323232155571
    Total Energy =                       -344.9746375195597352
  Basis Set: (AUG-CC-PVTZ AUX)
    Blend: AUG-CC-PVTZ-RI
    Molecular point group: c1

    Geometry (in Angstrom), charge = 0, multiplicity = 1:

       Center              X                  Y                   Z               Mass
    ------------   -----------------  -----------------  -----------------  -----------------
         O            0.703986115045    -0.453117448152    -0.000199570804    15.994914619570
         O           -0.623934884955     1.391694551848    -0.001900570804    15.994914619570
         C           -1.627214884955    -0.824813448152    -0.004355570804    12.000000000000
         C            1.850410115045     0.432058551848     0.000509429196    12.000000000000
         C           -0.477599084955    -0.021290448152    -0.001785370804    12.000000000000
         C           -2.994184884955    -0.155598448152     0.005223429196    12.000000000000
         C            3.078083115045    -0.449893448152     0.002218429196    12.000000000000
         H           -1.499590884955    -1.466516448152    -0.883402570804     1.007825032230
         H           -1.492987884955    -1.479560448152     0.863891429196     1.007825032230
         H            1.802654115045     1.074553551848    -0.883106570804     1.007825032230
         H            1.800840115045     1.075446551848     0.883366429196     1.007825032230
         H           -3.118057884955     0.484098551848    -0.870652570804     1.007825032230
         H           -3.786376884955    -0.908653448152     0.002091429196     1.007825032230
         H           -3.112495884955     0.470577551848     0.891630429196     1.007825032230
         H            3.980837115045     0.167534551848     0.002823429196     1.007825032230
         H            3.091534115045    -1.086498448152     0.889373429196     1.007825032230
         H            3.093354115045    -1.087426448152    -0.884239570804     1.007825032230

  Basis Set: AUG-CC-PVTZ
    Blend: AUG-CC-PVTZ
  Basis Set: (AUG-CC-PVTZ AUX)
    Blend: AUG-CC-PVTZ-JKFIT
	 Reference Energy          =    -344.9746375195597352 [Eh]
	 Singles Energy            =      -0.0000000000000000 [Eh]
	 Same-Spin Energy          =      -0.3438369560183632 [Eh]
	 Opposite-Spin Energy      =      -1.1373757262534301 [Eh]
	 Correlation Energy        =      -1.4812126822717933 [Eh]
	 Total Energy              =    -346.4558502018315380 [Eh]

	 ================> DF-SCS-MP2 Energies <==================
	-----------------------------------------------------------
	 SCS Same-Spin Scale       =       0.3333333333333333 [-]
	 SCS Opposite-Spin Scale   =       1.2000000000000000 [-]
	 SCS Same-Spin Energy      =      -0.1146123186727877 [Eh]
	 SCS Opposite-Spin Energy  =      -1.3648508715041161 [Eh]
	 SCS Correlation Energy    =      -1.4794631901769038 [Eh]
	 SCS Total Energy          =    -346.4541007097366219 [Eh]
	-----------------------------------------------------------

  Dipole Moment: [D]
     X:     1.4496      Y:    -2.6582      Z:    -0.0009     Total:     3.0277

*** Psi4 exiting successfully. Buy a developer a beer!
