                               Psi4 1.3.2 release

  ==> Input File <==

--------------------------------------------------------------------------
#psi4
#
memory 32 gb

molecule  {
0 1
  O        0.6767144    -0.4916275    -0.0003355
  O       -0.6284610     1.3947560    -0.0020030
  C       -1.6317410    -0.8217520    -0.0044580
  C        1.8458840     0.4351200     0.0004070
  C       -0.5027280     0.1807070    -0.0019040
  C       -2.9987110    -0.1525370     0.0051210
  C        3.0735570    -0.4468320     0.0021160
  H       -1.5041170    -1.4634550    -0.8835050
  H       -1.4975140    -1.4764990     0.8637890
  H        1.7981280     1.0776150    -0.8832090
  H        1.7963140     1.0785080     0.8832640
  H       -3.1225840     0.4871600    -0.8707550
  H       -3.7909030    -0.9055920     0.0019890
  H       -3.1170220     0.4736390     0.8915280
  H        3.9763110     0.1705960     0.0027210
  H        3.0870080    -1.0834370     0.8892710
  H        3.0888280    -1.0843650    -0.8843420
units angstrom
no_reorient  #important for SAPT in psi4, default
symmetry c1  #important for SAPT in psi4, default
}

set PROPERTIES_ORIGIN ["COM"]
properties('MP2/aug-cc-pvtz', properties = ['dipole'])
--------------------------------------------------------------------------

    Molecular point group: c1
  Charge       = 0
  Multiplicity = 1
  Basis Set: AUG-CC-PVTZ
    Blend: AUG-CC-PVTZ
  Basis Set: (AUG-CC-PVTZ AUX)
    Blend: AUG-CC-PVTZ-JKFIT

    Orbital Energies [Eh]
    ---------------------

    Doubly Occupied:

       1A    -20.601253     2A    -20.543163     3A    -11.376301
       4A    -11.292419     5A    -11.240899     6A    -11.226118
       7A    -11.217350     8A     -1.443250     9A     -1.347689
      10A     -1.066714    11A     -1.028929    12A     -0.903017
      13A     -0.841526    14A     -0.766273    15A     -0.691464
      16A     -0.678933    17A     -0.659103    18A     -0.627154
      19A     -0.578114    20A     -0.568197    21A     -0.558154
      22A     -0.521044    23A     -0.518014    24A     -0.510885
      25A     -0.510489    26A     -0.490463    27A     -0.460985
      28A     -0.441722

  @DF-RHF Final Energy:  -345.03519798018448

   => Energetics <=

    Nuclear Repulsion Energy =            311.5473626883983229
    One-Electron Energy =               -1087.7458745608851132
    Two-Electron Energy =                 431.1633138923022557
    Total Energy =                       -345.0351979801844777
  Basis Set: (AUG-CC-PVTZ AUX)
    Blend: AUG-CC-PVTZ-RI
    Molecular point group: c1

    Geometry (in Angstrom), charge = 0, multiplicity = 1:

       Center              X                  Y                   Z               Mass
    ------------   -----------------  -----------------  -----------------  -----------------
         O            0.687227181323    -0.511562973942    -0.000225916466    15.994914619570
         O           -0.617948218677     1.374820526058    -0.001893416466    15.994914619570
         C           -1.621228218677    -0.841687473942    -0.004348416466    12.000000000000
         C            1.856396781323     0.415184526058     0.000516583534    12.000000000000
         C           -0.492215218677     0.160771526058    -0.001794416466    12.000000000000
         C           -2.988198218677    -0.172472473942     0.005230583534    12.000000000000
         C            3.084069781323    -0.466767473942     0.002225583534    12.000000000000
         H           -1.493604218677    -1.483390473942    -0.883395416466     1.007825032230
         H           -1.487001218677    -1.496434473942     0.863898583534     1.007825032230
         H            1.808640781323     1.057679526058    -0.883099416466     1.007825032230
         H            1.806826781323     1.058572526058     0.883373583534     1.007825032230
         H           -3.112071218677     0.467224526058    -0.870645416466     1.007825032230
         H           -3.780390218677    -0.925527473942     0.002098583534     1.007825032230
         H           -3.106509218677     0.453703526058     0.891637583534     1.007825032230
         H            3.986823781323     0.150660526058     0.002830583534     1.007825032230
         H            3.097520781323    -1.103372473942     0.889380583534     1.007825032230
         H            3.099340781323    -1.104300473942    -0.884232416466     1.007825032230

  Basis Set: AUG-CC-PVTZ
    Blend: AUG-CC-PVTZ
  Basis Set: (AUG-CC-PVTZ AUX)
    Blend: AUG-CC-PVTZ-JKFIT
	 Reference Energy          =    -345.0351979801844777 [Eh]
	 Singles Energy            =      -0.0000000000000000 [Eh]
	 Same-Spin Energy          =      -0.3401838121981572 [Eh]
	 Opposite-Spin Energy      =      -1.1317519619428489 [Eh]
	 Correlation Energy        =      -1.4719357741410062 [Eh]
	 Total Energy              =    -346.5071337543254799 [Eh]

	 ================> DF-SCS-MP2 Energies <==================
	-----------------------------------------------------------
	 SCS Same-Spin Scale       =       0.3333333333333333 [-]
	 SCS Opposite-Spin Scale   =       1.2000000000000000 [-]
	 SCS Same-Spin Energy      =      -0.1133946040660524 [Eh]
	 SCS Opposite-Spin Energy  =      -1.3581023543314186 [Eh]
	 SCS Correlation Energy    =      -1.4714969583974709 [Eh]
	 SCS Total Energy          =    -346.5066949385819726 [Eh]
	-----------------------------------------------------------

  Dipole Moment: [D]
     X:     1.0158      Y:    -1.4786      Z:    -0.0010     Total:     1.7939

*** Psi4 exiting successfully. Buy a developer a beer!
