                               Psi4 1.3.2 release

  ==> Input File <==

--------------------------------------------------------------------------
#psi4
#
memory 32 gb

molecule  {
0 1
  O        0.7405313    -0.3646590    -0.0002409
  O       -0.6284610     1.3947560    -0.0020030
  C       -1.6317410    -0.8217520    -0.0044580
  C        1.8458840     0.4351200     0.0004070
  C       -0.5027280     0.1807070    -0.0019040
  C       -2.9987110    -0.1525370     0.0051210
  C        3.0735570    -0.4468320     0.0021160
  H       -1.5041170    -1.4634550    -0.8835050
  H       -1.4975140    -1.4764990     0.8637890
  H        1.7981280     1.0776150    -0.8832090
  H        1.7963140     1.0785080     0.8832640
  H       -3.1225840     0.4871600    -0.8707550
  H       -3.7909030    -0.9055920     0.0019890
  H       -3.1170220     0.4736390     0.8915280
  H        3.9763110     0.1705960     0.0027210
  H        3.0870080    -1.0834370     0.8892710
  H        3.0888280    -1.0843650    -0.8843420
units angstrom
no_reorient  #important for SAPT in psi4, default
symmetry c1  #important for SAPT in psi4, default
}

set PROPERTIES_ORIGIN ["COM"]
properties('MP2/aug-cc-pvtz', properties = ['dipole'])
--------------------------------------------------------------------------

    Molecular point group: c1
  Charge       = 0
  Multiplicity = 1
  Basis Set: AUG-CC-PVTZ
    Blend: AUG-CC-PVTZ
  Basis Set: (AUG-CC-PVTZ AUX)
    Blend: AUG-CC-PVTZ-JKFIT

    Orbital Energies [Eh]
    ---------------------

    Doubly Occupied:

       1A    -20.594201     2A    -20.541552     3A    -11.380967
       4A    -11.277875     5A    -11.251123     6A    -11.223565
       7A    -11.220889     8A     -1.464892     9A     -1.354996
      10A     -1.073750    11A     -1.029150    12A     -0.914375
      13A     -0.847322    14A     -0.773714    15A     -0.700671
      16A     -0.692653    17A     -0.663128    18A     -0.631767
      19A     -0.587633    20A     -0.566740    21A     -0.553971
      22A     -0.529124    23A     -0.524615    24A     -0.513562
      25A     -0.496707    26A     -0.492150    27A     -0.446098
      28A     -0.445836

  @DF-RHF Final Energy:  -345.03631593069730

   => Energetics <=

    Nuclear Repulsion Energy =            313.5274399057425967
    One-Electron Energy =               -1091.5414634654330257
    Two-Electron Energy =                 432.9777076289931870
    Total Energy =                       -345.0363159306972989
  Basis Set: (AUG-CC-PVTZ AUX)
    Blend: AUG-CC-PVTZ-RI
    Molecular point group: c1

    Geometry (in Angstrom), charge = 0, multiplicity = 1:

       Center              X                  Y                   Z               Mass
    ------------   -----------------  -----------------  -----------------  -----------------
         O            0.741043443795    -0.404491490968    -0.000146141070    15.994914619570
         O           -0.627948856205     1.354923509032    -0.001908241070    15.994914619570
         C           -1.631228856205    -0.861584490968    -0.004363241070    12.000000000000
         C            1.846396143795     0.395287509032     0.000501758930    12.000000000000
         C           -0.502215856205     0.140874509032    -0.001809241070    12.000000000000
         C           -2.998198856205    -0.192369490968     0.005215758930    12.000000000000
         C            3.074069143795    -0.486664490968     0.002210758930    12.000000000000
         H           -1.503604856205    -1.503287490968    -0.883410241070     1.007825032230
         H           -1.497001856205    -1.516331490968     0.863883758930     1.007825032230
         H            1.798640143795     1.037782509032    -0.883114241070     1.007825032230
         H            1.796826143795     1.038675509032     0.883358758930     1.007825032230
         H           -3.122071856205     0.447327509032    -0.870660241070     1.007825032230
         H           -3.790390856205    -0.945424490968     0.002083758930     1.007825032230
         H           -3.116509856205     0.433806509032     0.891622758930     1.007825032230
         H            3.976823143795     0.130763509032     0.002815758930     1.007825032230
         H            3.087520143795    -1.123269490968     0.889365758930     1.007825032230
         H            3.089340143795    -1.124197490968    -0.884247241070     1.007825032230

  Basis Set: AUG-CC-PVTZ
    Blend: AUG-CC-PVTZ
  Basis Set: (AUG-CC-PVTZ AUX)
    Blend: AUG-CC-PVTZ-JKFIT
	 Reference Energy          =    -345.0363159306972989 [Eh]
	 Singles Energy            =      -0.0000000000000000 [Eh]
	 Same-Spin Energy          =      -0.3393142132548771 [Eh]
	 Opposite-Spin Energy      =      -1.1281709285671875 [Eh]
	 Correlation Energy        =      -1.4674851418220647 [Eh]
	 Total Energy              =    -346.5038010725193658 [Eh]

	 ================> DF-SCS-MP2 Energies <==================
	-----------------------------------------------------------
	 SCS Same-Spin Scale       =       0.3333333333333333 [-]
	 SCS Opposite-Spin Scale   =       1.2000000000000000 [-]
	 SCS Same-Spin Energy      =      -0.1131047377516257 [Eh]
	 SCS Opposite-Spin Energy  =      -1.3538051142806249 [Eh]
	 SCS Correlation Energy    =      -1.4669098520322505 [Eh]
	 SCS Total Energy          =    -346.5032257827295439 [Eh]
	-----------------------------------------------------------

  Dipole Moment: [D]
     X:     0.4780      Y:    -1.8056      Z:    -0.0014     Total:     1.8678

*** Psi4 exiting successfully. Buy a developer a beer!
