                               Psi4 1.4a3.dev225

  ==> Input File <==

--------------------------------------------------------------------------
#psi4
#
memory 32 gb

molecule  {
0 1
  O        0.6994210    -0.4500590     0.0000070
  O       -0.6284480     1.3945490     0.0000020
  C       -1.6317860    -0.8218820     0.0000110
  C        1.8459670     0.4353080     0.0000040
  C       -0.5176087     0.1672213     0.0000051
  C       -2.9986830    -0.1522840    -0.0000150
  C        3.0735530    -0.4467850    -0.0000110
  H       -1.5010890    -1.4699950    -0.8737300
  H       -1.5011070    -1.4699580     0.8737830
  H        1.7972070     1.0780770    -0.8832610
  H        1.7972200     1.0780650     0.8832780
  H       -3.1198680     0.4807080    -0.8811490
  H       -3.7908920    -0.9053640    -0.0000550
  H       -3.1199230     0.4806680     0.8811400
  H        3.9762390     0.1706970    -0.0000130
  H        3.0880200    -1.0839810     0.8867310
  H        3.0880080    -1.0839670    -0.8867630
units angstrom
no_reorient  #important for SAPT in psi4, default
symmetry c1  #important for SAPT in psi4, default
}

set PROPERTIES_ORIGIN ["COM"]
properties('MP2/aug-cc-pvtz', properties = ['dipole'])
--------------------------------------------------------------------------

    Molecular point group: c1
  Charge       = 0
  Multiplicity = 1
  Basis Set: AUG-CC-PVTZ
    Blend: AUG-CC-PVTZ
  Basis Set: (AUG-CC-PVTZ AUX)
    Blend: AUG-CC-PVTZ-JKFIT

    Orbital Energies [Eh]
    ---------------------

    Doubly Occupied:

       1A    -20.597861     2A    -20.541776     3A    -11.379326
       4A    -11.286578     5A    -11.245527     6A    -11.223761
       7A    -11.220834     8A     -1.444587     9A     -1.342611
      10A     -1.073070    11A     -1.028769    12A     -0.909243
      13A     -0.842829    14A     -0.767453    15A     -0.695193
      16A     -0.681412    17A     -0.658019    18A     -0.630130
      19A     -0.579316    20A     -0.566155    21A     -0.557074
      22A     -0.522483    23A     -0.519788    24A     -0.511526
      25A     -0.508628    26A     -0.489860    27A     -0.454353
      28A     -0.445067

  @DF-RHF Final Energy:  -345.03695763052025

   => Energetics <=

    Nuclear Repulsion Energy =            312.0462076641403542
    One-Electron Energy =               -1088.7198761648278378
    Two-Electron Energy =                 431.6367108701671782
    Total Energy =                       -345.0369576305202486
  Basis Set: (AUG-CC-PVTZ AUX)
    Blend: AUG-CC-PVTZ-RI
    Molecular point group: c1

    Geometry (in Angstrom), charge = 0, multiplicity = 1:

       Center              X                  Y                   Z               Mass
    ------------   -----------------  -----------------  -----------------  -----------------
         O            0.708121905348    -0.474940460647     0.000006668368    15.994914619570
         O           -0.619747094652     1.369667539353     0.000001668368    15.994914619570
         C           -1.623085094652    -0.846763460647     0.000010668368    12.000000000000
         C            1.854667905348     0.410426539353     0.000003668368    12.000000000000
         C           -0.508907794652     0.142339839353     0.000004768368    12.000000000000
         C           -2.989982094652    -0.177165460647    -0.000015331632    12.000000000000
         C            3.082253905348    -0.471666460647    -0.000011331632    12.000000000000
         H           -1.492388094652    -1.494876460647    -0.873730331632     1.007825032230
         H           -1.492406094652    -1.494839460647     0.873782668368     1.007825032230
         H            1.805907905348     1.053195539353    -0.883261331632     1.007825032230
         H            1.805920905348     1.053183539353     0.883277668368     1.007825032230
         H           -3.111167094652     0.455826539353    -0.881149331632     1.007825032230
         H           -3.782191094652    -0.930245460647    -0.000055331632     1.007825032230
         H           -3.111222094652     0.455786539353     0.881139668368     1.007825032230
         H            3.984939905348     0.145815539353    -0.000013331632     1.007825032230
         H            3.096720905348    -1.108862460647     0.886730668368     1.007825032230
         H            3.096708905348    -1.108848460647    -0.886763331632     1.007825032230

  Basis Set: AUG-CC-PVTZ
    Blend: AUG-CC-PVTZ
  Basis Set: (AUG-CC-PVTZ AUX)
    Blend: AUG-CC-PVTZ-JKFIT
	 Reference Energy          =    -345.0369576305202486 [Eh]
	 Singles Energy            =      -0.0000000000000000 [Eh]
	 Same-Spin Energy          =      -0.3401906767268185 [Eh]
	 Opposite-Spin Energy      =      -1.1310924221828864 [Eh]
	 Correlation Energy        =      -1.4712830989097050 [Eh]
	 Total Energy              =    -346.5082407294299287 [Eh]

	 ================> DF-SCS-MP2 Energies <==================
	-----------------------------------------------------------
	 SCS Same-Spin Scale       =       0.3333333333333333 [-]
	 SCS Opposite-Spin Scale   =       1.2000000000000000 [-]
	 SCS Same-Spin Energy      =      -0.1133968922422728 [Eh]
	 SCS Opposite-Spin Energy  =      -1.3573109066194637 [Eh]
	 SCS Correlation Energy    =      -1.4707077988617365 [Eh]
	 SCS Total Energy          =    -346.5076654293819729 [Eh]
	-----------------------------------------------------------

  Dipole Moment: [D]
     X:     0.7389      Y:    -1.6481      Z:     0.0000     Total:     1.8062

*** Psi4 exiting successfully. Buy a developer a beer!
