                               Psi4 1.3.2 release

  ==> Input File <==

--------------------------------------------------------------------------
#psi4
#
memory 32 gb

molecule  {
0 1
  O        0.6994600    -0.4500560    -0.0003020
  O       -0.6284610     1.3947560    -0.0020030
  C       -1.6317410    -0.8217520    -0.0044580
  C        1.8458840     0.4351200     0.0004070
  C       -0.5433970     0.2207452     0.0866904
  C       -2.9987110    -0.1525370     0.0051210
  C        3.0735570    -0.4468320     0.0021160
  H       -1.5041170    -1.4634550    -0.8835050
  H       -1.4975140    -1.4764990     0.8637890
  H        1.7981280     1.0776150    -0.8832090
  H        1.7963140     1.0785080     0.8832640
  H       -3.1225840     0.4871600    -0.8707550
  H       -3.7909030    -0.9055920     0.0019890
  H       -3.1170220     0.4736390     0.8915280
  H        3.9763110     0.1705960     0.0027210
  H        3.0870080    -1.0834370     0.8892710
  H        3.0888280    -1.0843650    -0.8843420
units angstrom
no_reorient  #important for SAPT in psi4, default
symmetry c1  #important for SAPT in psi4, default
}

set PROPERTIES_ORIGIN ["COM"]
properties('MP2/aug-cc-pvtz', properties = ['dipole'])
--------------------------------------------------------------------------

    Molecular point group: c1
  Charge       = 0
  Multiplicity = 1
  Basis Set: AUG-CC-PVTZ
    Blend: AUG-CC-PVTZ
  Basis Set: (AUG-CC-PVTZ AUX)
    Blend: AUG-CC-PVTZ-JKFIT

    Orbital Energies [Eh]
    ---------------------

    Doubly Occupied:

       1A    -20.584897     2A    -20.555207     3A    -11.377419
       4A    -11.280320     5A    -11.246241     6A    -11.221286
       7A    -11.219781     8A     -1.449721     9A     -1.356173
      10A     -1.068834    11A     -1.021826    12A     -0.902799
      13A     -0.836112    14A     -0.761058    15A     -0.700829
      16A     -0.675156    17A     -0.664892    18A     -0.629226
      19A     -0.581451    20A     -0.566558    21A     -0.553633
      22A     -0.527467    23A     -0.517641    24A     -0.513005
      25A     -0.506174    26A     -0.497777    27A     -0.453059
      28A     -0.444049

  @DF-RHF Final Energy:  -345.03200541959581

   => Energetics <=

    Nuclear Repulsion Energy =            312.0051363603628829
    One-Electron Energy =               -1088.6490981239237499
    Two-Electron Energy =                 431.6119563439650051
    Total Energy =                       -345.0320054195958051
  Basis Set: (AUG-CC-PVTZ AUX)
    Blend: AUG-CC-PVTZ-RI
    Molecular point group: c1

    Geometry (in Angstrom), charge = 0, multiplicity = 1:

       Center              X                  Y                   Z               Mass
    ------------   -----------------  -----------------  -----------------  -----------------
         O            0.711189754058    -0.481213307428    -0.010613584711    15.994914619570
         O           -0.616731245942     1.363598692572    -0.012314584711    15.994914619570
         C           -1.620011245942    -0.852909307428    -0.014769584711    12.000000000000
         C            1.857613754058     0.403962692572    -0.009904584711    12.000000000000
         C           -0.531667245942     0.189587892572     0.076378815289    12.000000000000
         C           -2.986981245942    -0.183694307428    -0.005190584711    12.000000000000
         C            3.085286754058    -0.477989307428    -0.008195584711    12.000000000000
         H           -1.492387245942    -1.494612307428    -0.893816584711     1.007825032230
         H           -1.485784245942    -1.507656307428     0.853477415289     1.007825032230
         H            1.809857754058     1.046457692572    -0.893520584711     1.007825032230
         H            1.808043754058     1.047350692572     0.872952415289     1.007825032230
         H           -3.110854245942     0.456002692572    -0.881066584711     1.007825032230
         H           -3.779173245942    -0.936749307428    -0.008322584711     1.007825032230
         H           -3.105292245942     0.442481692572     0.881216415289     1.007825032230
         H            3.988040754058     0.139438692572    -0.007590584711     1.007825032230
         H            3.098737754058    -1.114594307428     0.878959415289     1.007825032230
         H            3.100557754058    -1.115522307428    -0.894653584711     1.007825032230

  Basis Set: AUG-CC-PVTZ
    Blend: AUG-CC-PVTZ
  Basis Set: (AUG-CC-PVTZ AUX)
    Blend: AUG-CC-PVTZ-JKFIT
	 Reference Energy          =    -345.0320054195958051 [Eh]
	 Singles Energy            =      -0.0000000000000000 [Eh]
	 Same-Spin Energy          =      -0.3397173830962050 [Eh]
	 Opposite-Spin Energy      =      -1.1306077027963570 [Eh]
	 Correlation Energy        =      -1.4703250858925621 [Eh]
	 Total Energy              =    -346.5023305054883735 [Eh]

	 ================> DF-SCS-MP2 Energies <==================
	-----------------------------------------------------------
	 SCS Same-Spin Scale       =       0.3333333333333333 [-]
	 SCS Opposite-Spin Scale   =       1.2000000000000000 [-]
	 SCS Same-Spin Energy      =      -0.1132391276987350 [Eh]
	 SCS Opposite-Spin Energy  =      -1.3567292433556284 [Eh]
	 SCS Correlation Energy    =      -1.4699683710543634 [Eh]
	 SCS Total Energy          =    -346.5019737906501405 [Eh]
	-----------------------------------------------------------

  Dipole Moment: [D]
     X:     0.3615      Y:    -1.3123      Z:     0.0889     Total:     1.3641

*** Psi4 exiting successfully. Buy a developer a beer!
