                               Psi4 1.3.2 release

  ==> Input File <==

--------------------------------------------------------------------------
#psi4
#
memory 32 gb

molecule  {
0 1
  O        0.6994600    -0.4500560    -0.0003020
  O       -0.6284610     1.3947560    -0.0020030
  C       -1.6317410    -0.8217520    -0.0044580
  C        1.7813447     0.5129342     0.0002968
  C       -0.5027280     0.1807070    -0.0019040
  C       -2.9987110    -0.1525370     0.0051210
  C        3.0735570    -0.4468320     0.0021160
  H       -1.5041170    -1.4634550    -0.8835050
  H       -1.4975140    -1.4764990     0.8637890
  H        1.7981280     1.0776150    -0.8832090
  H        1.7963140     1.0785080     0.8832640
  H       -3.1225840     0.4871600    -0.8707550
  H       -3.7909030    -0.9055920     0.0019890
  H       -3.1170220     0.4736390     0.8915280
  H        3.9763110     0.1705960     0.0027210
  H        3.0870080    -1.0834370     0.8892710
  H        3.0888280    -1.0843650    -0.8843420
units angstrom
no_reorient  #important for SAPT in psi4, default
symmetry c1  #important for SAPT in psi4, default
}

set PROPERTIES_ORIGIN ["COM"]
properties('MP2/aug-cc-pvtz', properties = ['dipole'])
--------------------------------------------------------------------------

    Molecular point group: c1
  Charge       = 0
  Multiplicity = 1
  Basis Set: AUG-CC-PVTZ
    Blend: AUG-CC-PVTZ
  Basis Set: (AUG-CC-PVTZ AUX)
    Blend: AUG-CC-PVTZ-JKFIT

    Orbital Energies [Eh]
    ---------------------

    Doubly Occupied:

       1A    -20.603253     2A    -20.544038     3A    -11.377738
       4A    -11.284509     5A    -11.244542     6A    -11.224961
       7A    -11.219819     8A     -1.453516     9A     -1.351481
      10A     -1.066972    11A     -1.014146    12A     -0.904476
      13A     -0.849684    14A     -0.771347    15A     -0.694649
      16A     -0.690999    17A     -0.663846    18A     -0.630746
      19A     -0.578821    20A     -0.565747    21A     -0.550185
      22A     -0.521550    23A     -0.520526    24A     -0.519149
      25A     -0.494975    26A     -0.486456    27A     -0.465777
      28A     -0.444365

  @DF-RHF Final Energy:  -345.02884935721437

   => Energetics <=

    Nuclear Repulsion Energy =            312.1228945569317261
    One-Electron Energy =               -1088.8269446051408522
    Two-Electron Energy =                 431.6752006909948136
    Total Energy =                       -345.0288493572143693
  Basis Set: (AUG-CC-PVTZ AUX)
    Blend: AUG-CC-PVTZ-RI
    Molecular point group: c1

    Geometry (in Angstrom), charge = 0, multiplicity = 1:

       Center              X                  Y                   Z               Mass
    ------------   -----------------  -----------------  -----------------  -----------------
         O            0.713996151526    -0.485654578411    -0.000184710135    15.994914619570
         O           -0.613924848474     1.359157421589    -0.001885710135    15.994914619570
         C           -1.617204848474    -0.857350578411    -0.004340710135    12.000000000000
         C            1.795880851526     0.477335621589     0.000414089865    12.000000000000
         C           -0.488191848474     0.145108421589    -0.001786710135    12.000000000000
         C           -2.984174848474    -0.188135578411     0.005238289865    12.000000000000
         C            3.088093151526    -0.482430578411     0.002233289865    12.000000000000
         H           -1.489580848474    -1.499053578411    -0.883387710135     1.007825032230
         H           -1.482977848474    -1.512097578411     0.863906289865     1.007825032230
         H            1.812664151526     1.042016421589    -0.883091710135     1.007825032230
         H            1.810850151526     1.042909421589     0.883381289865     1.007825032230
         H           -3.108047848474     0.451561421589    -0.870637710135     1.007825032230
         H           -3.776366848474    -0.941190578411     0.002106289865     1.007825032230
         H           -3.102485848474     0.438040421589     0.891645289865     1.007825032230
         H            3.990847151526     0.134997421589     0.002838289865     1.007825032230
         H            3.101544151526    -1.119035578411     0.889388289865     1.007825032230
         H            3.103364151526    -1.119963578411    -0.884224710135     1.007825032230

  Basis Set: AUG-CC-PVTZ
    Blend: AUG-CC-PVTZ
  Basis Set: (AUG-CC-PVTZ AUX)
    Blend: AUG-CC-PVTZ-JKFIT
	 Reference Energy          =    -345.0288493572143693 [Eh]
	 Singles Energy            =      -0.0000000000000000 [Eh]
	 Same-Spin Energy          =      -0.3396967554338573 [Eh]
	 Opposite-Spin Energy      =      -1.1310068436103107 [Eh]
	 Correlation Energy        =      -1.4707035990441679 [Eh]
	 Total Energy              =    -346.4995529562585261 [Eh]

	 ================> DF-SCS-MP2 Energies <==================
	-----------------------------------------------------------
	 SCS Same-Spin Scale       =       0.3333333333333333 [-]
	 SCS Opposite-Spin Scale   =       1.2000000000000000 [-]
	 SCS Same-Spin Energy      =      -0.1132322518112858 [Eh]
	 SCS Opposite-Spin Energy  =      -1.3572082123323728 [Eh]
	 SCS Correlation Energy    =      -1.4704404641436586 [Eh]
	 SCS Total Energy          =    -346.4992898213580474 [Eh]
	-----------------------------------------------------------

  Dipole Moment: [D]
     X:     0.6639      Y:    -1.4829      Z:    -0.0014     Total:     1.6247

*** Psi4 exiting successfully. Buy a developer a beer!
