                               Psi4 1.3.2 release

  ==> Input File <==

--------------------------------------------------------------------------
#psi4
#
memory 32 gb

molecule  {
0 1
  O        0.6994600    -0.4500560    -0.0003020
  O       -0.6284610     1.3947560    -0.0020030
  C       -1.6317410    -0.8217520    -0.0044580
  C        1.8611578     0.4149773     0.0004340
  C       -0.5027280     0.1807070    -0.0019040
  C       -2.9987110    -0.1525370     0.0051210
  C        3.0735570    -0.4468320     0.0021160
  H       -1.5041170    -1.4634550    -0.8835050
  H       -1.4975140    -1.4764990     0.8637890
  H        1.7981280     1.0776150    -0.8832090
  H        1.7963140     1.0785080     0.8832640
  H       -3.1225840     0.4871600    -0.8707550
  H       -3.7909030    -0.9055920     0.0019890
  H       -3.1170220     0.4736390     0.8915280
  H        3.9763110     0.1705960     0.0027210
  H        3.0870080    -1.0834370     0.8892710
  H        3.0888280    -1.0843650    -0.8843420
units angstrom
no_reorient  #important for SAPT in psi4, default
symmetry c1  #important for SAPT in psi4, default
}

set PROPERTIES_ORIGIN ["COM"]
properties('MP2/aug-cc-pvtz', properties = ['dipole'])
--------------------------------------------------------------------------

    Molecular point group: c1
  Charge       = 0
  Multiplicity = 1
  Basis Set: AUG-CC-PVTZ
    Blend: AUG-CC-PVTZ
  Basis Set: (AUG-CC-PVTZ AUX)
    Blend: AUG-CC-PVTZ-JKFIT

    Orbital Energies [Eh]
    ---------------------

    Doubly Occupied:

       1A    -20.598559     2A    -20.542368     3A    -11.377725
       4A    -11.288492     5A    -11.244289     6A    -11.224014
       7A    -11.219396     8A     -1.448743     9A     -1.349619
      10A     -1.070117    11A     -1.032801    12A     -0.907172
      13A     -0.840544    14A     -0.768689    15A     -0.694672
      16A     -0.681351    17A     -0.659926    18A     -0.628037
      19A     -0.582057    20A     -0.568682    21A     -0.559577
      22A     -0.524517    23A     -0.520309    24A     -0.509433
      25A     -0.509276    26A     -0.489812    27A     -0.453807
      28A     -0.443494

  @DF-RHF Final Energy:  -345.03811692205369

   => Energetics <=

    Nuclear Repulsion Energy =            312.2122744978659057
    One-Electron Energy =               -1089.0258244883980296
    Two-Electron Energy =                 431.7754330684784350
    Total Energy =                       -345.0381169220536890
  Basis Set: (AUG-CC-PVTZ AUX)
    Blend: AUG-CC-PVTZ-RI
    Molecular point group: c1

    Geometry (in Angstrom), charge = 0, multiplicity = 1:

       Center              X                  Y                   Z               Mass
    ------------   -----------------  -----------------  -----------------  -----------------
         O            0.704612638050    -0.474137923987    -0.000200840545    15.994914619570
         O           -0.623308361950     1.370674076013    -0.001901840545    15.994914619570
         C           -1.626588361950    -0.845833923987    -0.004356840545    12.000000000000
         C            1.866310438050     0.390895376013     0.000535159455    12.000000000000
         C           -0.497575361950     0.156625076013    -0.001802840545    12.000000000000
         C           -2.993558361950    -0.176618923987     0.005222159455    12.000000000000
         C            3.078709638050    -0.470913923987     0.002217159455    12.000000000000
         H           -1.498964361950    -1.487536923987    -0.883403840545     1.007825032230
         H           -1.492361361950    -1.500580923987     0.863890159455     1.007825032230
         H            1.803280638050     1.053533076013    -0.883107840545     1.007825032230
         H            1.801466638050     1.054426076013     0.883365159455     1.007825032230
         H           -3.117431361950     0.463078076013    -0.870653840545     1.007825032230
         H           -3.785750361950    -0.929673923987     0.002090159455     1.007825032230
         H           -3.111869361950     0.449557076013     0.891629159455     1.007825032230
         H            3.981463638050     0.146514076013     0.002822159455     1.007825032230
         H            3.092160638050    -1.107518923987     0.889372159455     1.007825032230
         H            3.093980638050    -1.108446923987    -0.884240840545     1.007825032230

  Basis Set: AUG-CC-PVTZ
    Blend: AUG-CC-PVTZ
  Basis Set: (AUG-CC-PVTZ AUX)
    Blend: AUG-CC-PVTZ-JKFIT
	 Reference Energy          =    -345.0381169220536890 [Eh]
	 Singles Energy            =      -0.0000000000000000 [Eh]
	 Same-Spin Energy          =      -0.3399282802121435 [Eh]
	 Opposite-Spin Energy      =      -1.1304051653186891 [Eh]
	 Correlation Energy        =      -1.4703334455308326 [Eh]
	 Total Energy              =    -346.5084503675845440 [Eh]

	 ================> DF-SCS-MP2 Energies <==================
	-----------------------------------------------------------
	 SCS Same-Spin Scale       =       0.3333333333333333 [-]
	 SCS Opposite-Spin Scale   =       1.2000000000000000 [-]
	 SCS Same-Spin Energy      =      -0.1133094267373812 [Eh]
	 SCS Opposite-Spin Energy  =      -1.3564861983824268 [Eh]
	 SCS Correlation Energy    =      -1.4697956251198079 [Eh]
	 SCS Total Energy          =    -346.5079125471734756 [Eh]
	-----------------------------------------------------------

  Dipole Moment: [D]
     X:     0.8809      Y:    -1.6086      Z:    -0.0011     Total:     1.8340

*** Psi4 exiting successfully. Buy a developer a beer!
