                               Psi4 1.3.2 release

  ==> Input File <==

--------------------------------------------------------------------------
#psi4
#
memory 32 gb

molecule  {
0 1
  O        0.6994600    -0.4500560    -0.0003020
  O       -0.6284610     1.3947560    -0.0020030
  C       -1.6317410    -0.8217520    -0.0044580
  C        1.8458840     0.4351200     0.0004070
  C       -0.5775053     0.1143117    -0.0020732
  C       -2.9987110    -0.1525370     0.0051210
  C        3.0735570    -0.4468320     0.0021160
  H       -1.5041170    -1.4634550    -0.8835050
  H       -1.4975140    -1.4764990     0.8637890
  H        1.7981280     1.0776150    -0.8832090
  H        1.7963140     1.0785080     0.8832640
  H       -3.1225840     0.4871600    -0.8707550
  H       -3.7909030    -0.9055920     0.0019890
  H       -3.1170220     0.4736390     0.8915280
  H        3.9763110     0.1705960     0.0027210
  H        3.0870080    -1.0834370     0.8892710
  H        3.0888280    -1.0843650    -0.8843420
units angstrom
no_reorient  #important for SAPT in psi4, default
symmetry c1  #important for SAPT in psi4, default
}

set PROPERTIES_ORIGIN ["COM"]
properties('MP2/aug-cc-pvtz', properties = ['dipole'])
--------------------------------------------------------------------------

    Molecular point group: c1
  Charge       = 0
  Multiplicity = 1
  Basis Set: AUG-CC-PVTZ
    Blend: AUG-CC-PVTZ
  Basis Set: (AUG-CC-PVTZ AUX)
    Blend: AUG-CC-PVTZ-JKFIT

    Orbital Energies [Eh]
    ---------------------

    Doubly Occupied:

       1A    -20.591571     2A    -20.538766     3A    -11.386836
       4A    -11.283355     5A    -11.249359     6A    -11.226662
       7A    -11.221325     8A     -1.424586     9A     -1.314196
      10A     -1.093650    11A     -1.026767    12A     -0.921118
      13A     -0.843057    14A     -0.760134    15A     -0.700108
      16A     -0.677487    17A     -0.647399    18A     -0.636805
      19A     -0.573970    20A     -0.559360    21A     -0.558178
      22A     -0.526969    23A     -0.524313    24A     -0.515097
      25A     -0.501165    26A     -0.482039    27A     -0.444495
      28A     -0.443352

  @DF-RHF Final Energy:  -345.01671060573989

   => Energetics <=

    Nuclear Repulsion Energy =            311.5577766119142780
    One-Electron Energy =               -1087.8047331948703231
    Two-Electron Energy =                 431.2302459772161569
    Total Energy =                       -345.0167106057398883
  Basis Set: (AUG-CC-PVTZ AUX)
    Blend: AUG-CC-PVTZ-RI
    Molecular point group: c1

    Geometry (in Angstrom), charge = 0, multiplicity = 1:

       Center              X                  Y                   Z               Mass
    ------------   -----------------  -----------------  -----------------  -----------------
         O            0.715199818731    -0.468700071111    -0.000177773588    15.994914619570
         O           -0.612721181269     1.376111928889    -0.001878773588    15.994914619570
         C           -1.616001181269    -0.840396071111    -0.004333773588    12.000000000000
         C            1.861623818731     0.416475928889     0.000531226412    12.000000000000
         C           -0.561765481269     0.095667628889    -0.001948973588    12.000000000000
         C           -2.982971181269    -0.171181071111     0.005245226412    12.000000000000
         C            3.089296818731    -0.465476071111     0.002240226412    12.000000000000
         H           -1.488377181269    -1.482099071111    -0.883380773588     1.007825032230
         H           -1.481774181269    -1.495143071111     0.863913226412     1.007825032230
         H            1.813867818731     1.058970928889    -0.883084773588     1.007825032230
         H            1.812053818731     1.059863928889     0.883388226412     1.007825032230
         H           -3.106844181269     0.468515928889    -0.870630773588     1.007825032230
         H           -3.775163181269    -0.924236071111     0.002113226412     1.007825032230
         H           -3.101282181269     0.454994928889     0.891652226412     1.007825032230
         H            3.992050818731     0.151951928889     0.002845226412     1.007825032230
         H            3.102747818731    -1.102081071111     0.889395226412     1.007825032230
         H            3.104567818731    -1.103009071111    -0.884217773588     1.007825032230

  Basis Set: AUG-CC-PVTZ
    Blend: AUG-CC-PVTZ
  Basis Set: (AUG-CC-PVTZ AUX)
    Blend: AUG-CC-PVTZ-JKFIT
	 Reference Energy          =    -345.0167106057398883 [Eh]
	 Singles Energy            =      -0.0000000000000000 [Eh]
	 Same-Spin Energy          =      -0.3423524508810544 [Eh]
	 Opposite-Spin Energy      =      -1.1350545195678956 [Eh]
	 Correlation Energy        =      -1.4774069704489501 [Eh]
	 Total Energy              =    -346.4941175761888417 [Eh]

	 ================> DF-SCS-MP2 Energies <==================
	-----------------------------------------------------------
	 SCS Same-Spin Scale       =       0.3333333333333333 [-]
	 SCS Opposite-Spin Scale   =       1.2000000000000000 [-]
	 SCS Same-Spin Energy      =      -0.1141174836270181 [Eh]
	 SCS Opposite-Spin Energy  =      -1.3620654234814746 [Eh]
	 SCS Correlation Energy    =      -1.4761829071084929 [Eh]
	 SCS Total Energy          =    -346.4928935128483545 [Eh]
	-----------------------------------------------------------

  Dipole Moment: [D]
     X:     0.3201      Y:    -1.9034      Z:    -0.0022     Total:     1.9301

*** Psi4 exiting successfully. Buy a developer a beer!
