                               Psi4 1.3.2 release

  ==> Input File <==

--------------------------------------------------------------------------
#psi4
#
memory 32 gb

molecule  {
0 1
  O        0.6994600    -0.4500560    -0.0003020
  O       -0.6284610     1.3947560    -0.0020030
  C       -1.6317410    -0.8217520    -0.0044580
  C        1.8458840     0.4351200     0.0004070
  C       -0.5657333     0.2388709     0.1308479
  C       -2.9987110    -0.1525370     0.0051210
  C        3.0735570    -0.4468320     0.0021160
  H       -1.5041170    -1.4634550    -0.8835050
  H       -1.4975140    -1.4764990     0.8637890
  H        1.7981280     1.0776150    -0.8832090
  H        1.7963140     1.0785080     0.8832640
  H       -3.1225840     0.4871600    -0.8707550
  H       -3.7909030    -0.9055920     0.0019890
  H       -3.1170220     0.4736390     0.8915280
  H        3.9763110     0.1705960     0.0027210
  H        3.0870080    -1.0834370     0.8892710
  H        3.0888280    -1.0843650    -0.8843420
units angstrom
no_reorient  #important for SAPT in psi4, default
symmetry c1  #important for SAPT in psi4, default
}

set PROPERTIES_ORIGIN ["COM"]
properties('MP2/aug-cc-pvtz', properties = ['dipole'])
--------------------------------------------------------------------------

    Molecular point group: c1
  Charge       = 0
  Multiplicity = 1
  Basis Set: AUG-CC-PVTZ
    Blend: AUG-CC-PVTZ
  Basis Set: (AUG-CC-PVTZ AUX)
    Blend: AUG-CC-PVTZ-JKFIT

    Orbital Energies [Eh]
    ---------------------

    Doubly Occupied:

       1A    -20.577151     2A    -20.561827     3A    -11.378386
       4A    -11.276602     5A    -11.248066     6A    -11.222484
       7A    -11.217324     8A     -1.456038     9A     -1.350474
      10A     -1.069655    11A     -1.017809    12A     -0.901418
      13A     -0.832784    14A     -0.758433    15A     -0.702661
      16A     -0.672200    17A     -0.667729    18A     -0.629438
      19A     -0.580525    20A     -0.567238    21A     -0.552037
      22A     -0.530214    23A     -0.518072    24A     -0.513237
      25A     -0.505805    26A     -0.498098    27A     -0.448836
      28A     -0.441289

  @DF-RHF Final Energy:  -345.02262511341451

   => Energetics <=

    Nuclear Repulsion Energy =            311.8233474102129890
    One-Electron Energy =               -1088.3002853714440334
    Two-Electron Energy =                 431.4543128478164817
    Total Energy =                       -345.0226251134145059
  Basis Set: (AUG-CC-PVTZ AUX)
    Blend: AUG-CC-PVTZ-RI
    Molecular point group: c1

    Geometry (in Angstrom), charge = 0, multiplicity = 1:

       Center              X                  Y                   Z               Mass
    ------------   -----------------  -----------------  -----------------  -----------------
         O            0.713815801312    -0.483344320385    -0.015805119639    15.994914619570
         O           -0.614105198688     1.361467679615    -0.017506119639    15.994914619570
         C           -1.617385198688    -0.855040320385    -0.019961119639    12.000000000000
         C            1.860239801312     0.401831679615    -0.015096119639    12.000000000000
         C           -0.551377498688     0.205582579615     0.115344780361    12.000000000000
         C           -2.984355198688    -0.185825320385    -0.010382119639    12.000000000000
         C            3.087912801312    -0.480120320385    -0.013387119639    12.000000000000
         H           -1.489761198688    -1.496743320385    -0.899008119639     1.007825032230
         H           -1.483158198688    -1.509787320385     0.848285880361     1.007825032230
         H            1.812483801312     1.044326679615    -0.898712119639     1.007825032230
         H            1.810669801312     1.045219679615     0.867760880361     1.007825032230
         H           -3.108228198688     0.453871679615    -0.886258119639     1.007825032230
         H           -3.776547198688    -0.938880320385    -0.013514119639     1.007825032230
         H           -3.102666198688     0.440350679615     0.876024880361     1.007825032230
         H            3.990666801312     0.137307679615    -0.012782119639     1.007825032230
         H            3.101363801312    -1.116725320385     0.873767880361     1.007825032230
         H            3.103183801312    -1.117653320385    -0.899845119639     1.007825032230

  Basis Set: AUG-CC-PVTZ
    Blend: AUG-CC-PVTZ
  Basis Set: (AUG-CC-PVTZ AUX)
    Blend: AUG-CC-PVTZ-JKFIT
	 Reference Energy          =    -345.0226251134145059 [Eh]
	 Singles Energy            =      -0.0000000000000000 [Eh]
	 Same-Spin Energy          =      -0.3399882847535330 [Eh]
	 Opposite-Spin Energy      =      -1.1314686251160744 [Eh]
	 Correlation Energy        =      -1.4714569098696073 [Eh]
	 Total Energy              =    -346.4940820232841361 [Eh]

	 ================> DF-SCS-MP2 Energies <==================
	-----------------------------------------------------------
	 SCS Same-Spin Scale       =       0.3333333333333333 [-]
	 SCS Opposite-Spin Scale   =       1.2000000000000000 [-]
	 SCS Same-Spin Energy      =      -0.1133294282511777 [Eh]
	 SCS Opposite-Spin Energy  =      -1.3577623501392893 [Eh]
	 SCS Correlation Energy    =      -1.4710917783904669 [Eh]
	 SCS Total Energy          =    -346.4937168918049792 [Eh]
	-----------------------------------------------------------

  Dipole Moment: [D]
     X:     0.1003      Y:    -1.1820      Z:     0.1398     Total:     1.1944

*** Psi4 exiting successfully. Buy a developer a beer!
