                               Psi4 1.3.2 release

  ==> Input File <==

--------------------------------------------------------------------------
#psi4
#
memory 32 gb

molecule  {
0 1
  O        0.6994600    -0.4500560    -0.0003020
  O       -0.6284610     1.3947560    -0.0020030
  C       -1.6317410    -0.8217520    -0.0044580
  C        1.9250358     0.4962346     0.0004560
  C       -0.5027280     0.1807070    -0.0019040
  C       -2.9987110    -0.1525370     0.0051210
  C        3.0735570    -0.4468320     0.0021160
  H       -1.5041170    -1.4634550    -0.8835050
  H       -1.4975140    -1.4764990     0.8637890
  H        1.7981280     1.0776150    -0.8832090
  H        1.7963140     1.0785080     0.8832640
  H       -3.1225840     0.4871600    -0.8707550
  H       -3.7909030    -0.9055920     0.0019890
  H       -3.1170220     0.4736390     0.8915280
  H        3.9763110     0.1705960     0.0027210
  H        3.0870080    -1.0834370     0.8892710
  H        3.0888280    -1.0843650    -0.8843420
units angstrom
no_reorient  #important for SAPT in psi4, default
symmetry c1  #important for SAPT in psi4, default
}

set PROPERTIES_ORIGIN ["COM"]
properties('MP2/aug-cc-pvtz', properties = ['dipole'])
--------------------------------------------------------------------------

    Molecular point group: c1
  Charge       = 0
  Multiplicity = 1
  Basis Set: AUG-CC-PVTZ
    Blend: AUG-CC-PVTZ
  Basis Set: (AUG-CC-PVTZ AUX)
    Blend: AUG-CC-PVTZ-JKFIT

    Orbital Energies [Eh]
    ---------------------

    Doubly Occupied:

       1A    -20.587181     2A    -20.535741     3A    -11.370460
       4A    -11.292132     5A    -11.239750     6A    -11.228391
       7A    -11.216219     8A     -1.429563     9A     -1.333797
      10A     -1.066655    11A     -1.035811    12A     -0.899533
      13A     -0.847585    14A     -0.756376    15A     -0.685736
      16A     -0.679497    17A     -0.650588    18A     -0.630110
      19A     -0.576993    20A     -0.566217    21A     -0.555927
      22A     -0.533914    23A     -0.517154    24A     -0.516340
      25A     -0.497869    26A     -0.490832    27A     -0.455704
      28A     -0.436243

  @DF-RHF Final Energy:  -345.03021989723504

   => Energetics <=

    Nuclear Repulsion Energy =            310.7332181657289425
    One-Electron Energy =               -1086.2622386629254834
    Two-Electron Energy =                 430.4988005999615552
    Total Energy =                       -345.0302198972350425
  Basis Set: (AUG-CC-PVTZ AUX)
    Blend: AUG-CC-PVTZ-RI
    Molecular point group: c1

    Geometry (in Angstrom), charge = 0, multiplicity = 1:

       Center              X                  Y                   Z               Mass
    ------------   -----------------  -----------------  -----------------  -----------------
         O            0.697102591782    -0.483691230018    -0.000203427054    15.994914619570
         O           -0.630818408218     1.361120769982    -0.001904427054    15.994914619570
         C           -1.634098408218    -0.855387230018    -0.004359427054    12.000000000000
         C            1.922678391782     0.462599369982     0.000554572946    12.000000000000
         C           -0.505085408218     0.147071769982    -0.001805427054    12.000000000000
         C           -3.001068408218    -0.186172230018     0.005219572946    12.000000000000
         C            3.071199591782    -0.480467230018     0.002214572946    12.000000000000
         H           -1.506474408218    -1.497090230018    -0.883406427054     1.007825032230
         H           -1.499871408218    -1.510134230018     0.863887572946     1.007825032230
         H            1.795770591782     1.043979769982    -0.883110427054     1.007825032230
         H            1.793956591782     1.044872769982     0.883362572946     1.007825032230
         H           -3.124941408218     0.453524769982    -0.870656427054     1.007825032230
         H           -3.793260408218    -0.939227230018     0.002087572946     1.007825032230
         H           -3.119379408218     0.440003769982     0.891626572946     1.007825032230
         H            3.973953591782     0.136960769982     0.002819572946     1.007825032230
         H            3.084650591782    -1.117072230018     0.889369572946     1.007825032230
         H            3.086470591782    -1.118000230018    -0.884243427054     1.007825032230

  Basis Set: AUG-CC-PVTZ
    Blend: AUG-CC-PVTZ
  Basis Set: (AUG-CC-PVTZ AUX)
    Blend: AUG-CC-PVTZ-JKFIT
	 Reference Energy          =    -345.0302198972350425 [Eh]
	 Singles Energy            =      -0.0000000000000000 [Eh]
	 Same-Spin Energy          =      -0.3402350603597780 [Eh]
	 Opposite-Spin Energy      =      -1.1318033774036240 [Eh]
	 Correlation Energy        =      -1.4720384377634019 [Eh]
	 Total Energy              =    -346.5022583349984302 [Eh]

	 ================> DF-SCS-MP2 Energies <==================
	-----------------------------------------------------------
	 SCS Same-Spin Scale       =       0.3333333333333333 [-]
	 SCS Opposite-Spin Scale   =       1.2000000000000000 [-]
	 SCS Same-Spin Energy      =      -0.1134116867865927 [Eh]
	 SCS Opposite-Spin Energy  =      -1.3581640528843488 [Eh]
	 SCS Correlation Energy    =      -1.4715757396709415 [Eh]
	 SCS Total Energy          =    -346.5017956369059675 [Eh]
	-----------------------------------------------------------

  Dipole Moment: [D]
     X:     1.2651      Y:    -1.4846      Z:    -0.0008     Total:     1.9505

*** Psi4 exiting successfully. Buy a developer a beer!
