                               Psi4 1.3.2 release

  ==> Input File <==

--------------------------------------------------------------------------
#psi4
#
memory 32 gb

molecule  {
0 1
  O        0.6994600    -0.4500560    -0.0003020
  O       -0.6284610     1.3947560    -0.0020030
  C       -1.6317410    -0.8217520    -0.0044580
  C        1.8458840     0.4351200     0.0004070
  C       -0.5754054     0.2570180    -0.0011206
  C       -2.9987110    -0.1525370     0.0051210
  C        3.0735570    -0.4468320     0.0021160
  H       -1.5041170    -1.4634550    -0.8835050
  H       -1.4975140    -1.4764990     0.8637890
  H        1.7981280     1.0776150    -0.8832090
  H        1.7963140     1.0785080     0.8832640
  H       -3.1225840     0.4871600    -0.8707550
  H       -3.7909030    -0.9055920     0.0019890
  H       -3.1170220     0.4736390     0.8915280
  H        3.9763110     0.1705960     0.0027210
  H        3.0870080    -1.0834370     0.8892710
  H        3.0888280    -1.0843650    -0.8843420
units angstrom
no_reorient  #important for SAPT in psi4, default
symmetry c1  #important for SAPT in psi4, default
}

set PROPERTIES_ORIGIN ["COM"]
properties('MP2/aug-cc-pvtz', properties = ['dipole'])
--------------------------------------------------------------------------

    Molecular point group: c1
  Charge       = 0
  Multiplicity = 1
  Basis Set: AUG-CC-PVTZ
    Blend: AUG-CC-PVTZ
  Basis Set: (AUG-CC-PVTZ AUX)
    Blend: AUG-CC-PVTZ-JKFIT

    Orbital Energies [Eh]
    ---------------------

    Doubly Occupied:

       1A    -20.572002     2A    -20.564444     3A    -11.374729
       4A    -11.274673     5A    -11.247348     6A    -11.222838
       7A    -11.216070     8A     -1.471723     9A     -1.349775
      10A     -1.069731    11A     -1.015846    12A     -0.900075
      13A     -0.831000    14A     -0.757542    15A     -0.706941
      16A     -0.673753    17A     -0.672472    18A     -0.629864
      19A     -0.580336    20A     -0.572318    21A     -0.550924
      22A     -0.532205    23A     -0.518055    24A     -0.515481
      25A     -0.504372    26A     -0.501397    27A     -0.446953
      28A     -0.440005

  @DF-RHF Final Energy:  -345.02681925477475

   => Energetics <=

    Nuclear Repulsion Energy =            312.1841902247271037
    One-Electron Energy =               -1088.9962755566696160
    Two-Electron Energy =                 431.7852660771677620
    Total Energy =                       -345.0268192547747503
  Basis Set: (AUG-CC-PVTZ AUX)
    Blend: AUG-CC-PVTZ-RI
    Molecular point group: c1

    Geometry (in Angstrom), charge = 0, multiplicity = 1:

       Center              X                  Y                   Z               Mass
    ------------   -----------------  -----------------  -----------------  -----------------
         O            0.714952936452    -0.485477849309    -0.000289769425    15.994914619570
         O           -0.612968063548     1.359334150691    -0.001990769425    15.994914619570
         C           -1.616248063548    -0.857173849309    -0.004445769425    12.000000000000
         C            1.861376936452     0.399698150691     0.000419230575    12.000000000000
         C           -0.559912463548     0.221596150691    -0.001108369425    12.000000000000
         C           -2.983218063548    -0.187958849309     0.005133230575    12.000000000000
         C            3.089049936452    -0.482253849309     0.002128230575    12.000000000000
         H           -1.488624063548    -1.498876849309    -0.883492769425     1.007825032230
         H           -1.482021063548    -1.511920849309     0.863801230575     1.007825032230
         H            1.813620936452     1.042193150691    -0.883196769425     1.007825032230
         H            1.811806936452     1.043086150691     0.883276230575     1.007825032230
         H           -3.107091063548     0.451738150691    -0.870742769425     1.007825032230
         H           -3.775410063548    -0.941013849309     0.002001230575     1.007825032230
         H           -3.101529063548     0.438217150691     0.891540230575     1.007825032230
         H            3.991803936452     0.135174150691     0.002733230575     1.007825032230
         H            3.102500936452    -1.118858849309     0.889283230575     1.007825032230
         H            3.104320936452    -1.119786849309    -0.884329769425     1.007825032230

  Basis Set: AUG-CC-PVTZ
    Blend: AUG-CC-PVTZ
  Basis Set: (AUG-CC-PVTZ AUX)
    Blend: AUG-CC-PVTZ-JKFIT
	 Reference Energy          =    -345.0268192547747503 [Eh]
	 Singles Energy            =      -0.0000000000000000 [Eh]
	 Same-Spin Energy          =      -0.3392184884161220 [Eh]
	 Opposite-Spin Energy      =      -1.1295590158830593 [Eh]
	 Correlation Energy        =      -1.4687775042991813 [Eh]
	 Total Energy              =    -346.4955967590739192 [Eh]

	 ================> DF-SCS-MP2 Energies <==================
	-----------------------------------------------------------
	 SCS Same-Spin Scale       =       0.3333333333333333 [-]
	 SCS Opposite-Spin Scale   =       1.2000000000000000 [-]
	 SCS Same-Spin Energy      =      -0.1130728294720407 [Eh]
	 SCS Opposite-Spin Energy  =      -1.3554708190596712 [Eh]
	 SCS Correlation Energy    =      -1.4685436485317118 [Eh]
	 SCS Total Energy          =    -346.4953629033064431 [Eh]
	-----------------------------------------------------------

  Dipole Moment: [D]
     X:    -0.0403      Y:    -1.0799      Z:    -0.0012     Total:     1.0807

*** Psi4 exiting successfully. Buy a developer a beer!
