                               Psi4 1.3.2 release

  ==> Input File <==

--------------------------------------------------------------------------
#psi4
#
memory 32 gb

molecule  {
0 1
  O        0.7588068    -0.3209377    -0.0001175
  O       -0.6284610     1.3947560    -0.0020030
  C       -1.6317410    -0.8217520    -0.0044580
  C        1.8458840     0.4351200     0.0004070
  C       -0.5027280     0.1807070    -0.0019040
  C       -2.9987110    -0.1525370     0.0051210
  C        3.0735570    -0.4468320     0.0021160
  H       -1.5041170    -1.4634550    -0.8835050
  H       -1.4975140    -1.4764990     0.8637890
  H        1.7981280     1.0776150    -0.8832090
  H        1.7963140     1.0785080     0.8832640
  H       -3.1225840     0.4871600    -0.8707550
  H       -3.7909030    -0.9055920     0.0019890
  H       -3.1170220     0.4736390     0.8915280
  H        3.9763110     0.1705960     0.0027210
  H        3.0870080    -1.0834370     0.8892710
  H        3.0888280    -1.0843650    -0.8843420
units angstrom
no_reorient  #important for SAPT in psi4, default
symmetry c1  #important for SAPT in psi4, default
}

set PROPERTIES_ORIGIN ["COM"]
properties('MP2/aug-cc-pvtz', properties = ['dipole'])
--------------------------------------------------------------------------

    Molecular point group: c1
  Charge       = 0
  Multiplicity = 1
  Basis Set: AUG-CC-PVTZ
    Blend: AUG-CC-PVTZ
  Basis Set: (AUG-CC-PVTZ AUX)
    Blend: AUG-CC-PVTZ-JKFIT

    Orbital Energies [Eh]
    ---------------------

    Doubly Occupied:

       1A    -20.591007     2A    -20.541062     3A    -11.383071
       4A    -11.273602     5A    -11.254561     6A    -11.225596
       7A    -11.219152     8A     -1.474032     9A     -1.357879
      10A     -1.076113    11A     -1.029695    12A     -0.918526
      13A     -0.851338    14A     -0.774715    15A     -0.703660
      16A     -0.698533    17A     -0.664414    18A     -0.633841
      19A     -0.591824    20A     -0.565923    21A     -0.552460
      22A     -0.533921    23A     -0.526154    24A     -0.515147
      25A     -0.492708    26A     -0.489194    27A     -0.445876
      28A     -0.439489

  @DF-RHF Final Energy:  -345.02897869449441

   => Energetics <=

    Nuclear Repulsion Energy =            314.2383773817506381
    One-Electron Energy =               -1092.8877261661464217
    Two-Electron Energy =                 433.6203700899013711
    Total Energy =                       -345.0289786944944126
  Basis Set: (AUG-CC-PVTZ AUX)
    Blend: AUG-CC-PVTZ-RI
    Molecular point group: c1

    Geometry (in Angstrom), charge = 0, multiplicity = 1:

       Center              X                  Y                   Z               Mass
    ------------   -----------------  -----------------  -----------------  -----------------
         O            0.756455021368    -0.367621681302    -0.000042078874    15.994914619570
         O           -0.630812778632     1.348072018698    -0.001927578874    15.994914619570
         C           -1.634092778632    -0.868435981302    -0.004382578874    12.000000000000
         C            1.843532221368     0.388436018698     0.000482421126    12.000000000000
         C           -0.505079778632     0.134023018698    -0.001828578874    12.000000000000
         C           -3.001062778632    -0.199220981302     0.005196421126    12.000000000000
         C            3.071205221368    -0.493515981302     0.002191421126    12.000000000000
         H           -1.506468778632    -1.510138981302    -0.883429578874     1.007825032230
         H           -1.499865778632    -1.523182981302     0.863864421126     1.007825032230
         H            1.795776221368     1.030931018698    -0.883133578874     1.007825032230
         H            1.793962221368     1.031824018698     0.883339421126     1.007825032230
         H           -3.124935778632     0.440476018698    -0.870679578874     1.007825032230
         H           -3.793254778632    -0.952275981302     0.002064421126     1.007825032230
         H           -3.119373778632     0.426955018698     0.891603421126     1.007825032230
         H            3.973959221368     0.123912018698     0.002796421126     1.007825032230
         H            3.084656221368    -1.130120981302     0.889346421126     1.007825032230
         H            3.086476221368    -1.131048981302    -0.884266578874     1.007825032230

  Basis Set: AUG-CC-PVTZ
    Blend: AUG-CC-PVTZ
  Basis Set: (AUG-CC-PVTZ AUX)
    Blend: AUG-CC-PVTZ-JKFIT
	 Reference Energy          =    -345.0289786944944126 [Eh]
	 Singles Energy            =      -0.0000000000000000 [Eh]
	 Same-Spin Energy          =      -0.3392734238081558 [Eh]
	 Opposite-Spin Energy      =      -1.1274697951123174 [Eh]
	 Correlation Energy        =      -1.4667432189204732 [Eh]
	 Total Energy              =    -346.4957219134149113 [Eh]

	 ================> DF-SCS-MP2 Energies <==================
	-----------------------------------------------------------
	 SCS Same-Spin Scale       =       0.3333333333333333 [-]
	 SCS Opposite-Spin Scale   =       1.2000000000000000 [-]
	 SCS Same-Spin Energy      =      -0.1130911412693853 [Eh]
	 SCS Opposite-Spin Energy  =      -1.3529637541347808 [Eh]
	 SCS Correlation Energy    =      -1.4660548954041661 [Eh]
	 SCS Total Energy          =    -346.4950335898985827 [Eh]
	-----------------------------------------------------------

  Dipole Moment: [D]
     X:     0.2896      Y:    -1.9279      Z:    -0.0016     Total:     1.9495

*** Psi4 exiting successfully. Buy a developer a beer!
