                               Psi4 1.3.2 release

  ==> Input File <==

--------------------------------------------------------------------------
#psi4
#
memory 32 gb

molecule  {
0 1
  O        0.7343144    -0.4894932     0.0860130
  O       -0.6284610     1.3947560    -0.0020030
  C       -1.6317410    -0.8217520    -0.0044580
  C        1.8458840     0.4351200     0.0004070
  C       -0.5027280     0.1807070    -0.0019040
  C       -2.9987110    -0.1525370     0.0051210
  C        3.0735570    -0.4468320     0.0021160
  H       -1.5041170    -1.4634550    -0.8835050
  H       -1.4975140    -1.4764990     0.8637890
  H        1.7981280     1.0776150    -0.8832090
  H        1.7963140     1.0785080     0.8832640
  H       -3.1225840     0.4871600    -0.8707550
  H       -3.7909030    -0.9055920     0.0019890
  H       -3.1170220     0.4736390     0.8915280
  H        3.9763110     0.1705960     0.0027210
  H        3.0870080    -1.0834370     0.8892710
  H        3.0888280    -1.0843650    -0.8843420
units angstrom
no_reorient  #important for SAPT in psi4, default
symmetry c1  #important for SAPT in psi4, default
}

set PROPERTIES_ORIGIN ["COM"]
properties('MP2/aug-cc-pvtz', properties = ['dipole'])
--------------------------------------------------------------------------

    Molecular point group: c1
  Charge       = 0
  Multiplicity = 1
  Basis Set: AUG-CC-PVTZ
    Blend: AUG-CC-PVTZ
  Basis Set: (AUG-CC-PVTZ AUX)
    Blend: AUG-CC-PVTZ-JKFIT

    Orbital Energies [Eh]
    ---------------------

    Doubly Occupied:

       1A    -20.597744     2A    -20.552855     3A    -11.384705
       4A    -11.283513     5A    -11.246907     6A    -11.221497
       7A    -11.220530     8A     -1.436525     9A     -1.351795
      10A     -1.068524    11A     -1.023970    12A     -0.904470
      13A     -0.839083    14A     -0.765301    15A     -0.695630
      16A     -0.676889    17A     -0.658502    18A     -0.629244
      19A     -0.580764    20A     -0.563731    21A     -0.553855
      22A     -0.523902    23A     -0.519266    24A     -0.511738
      25A     -0.510417    26A     -0.493069    27A     -0.457809
      28A     -0.445331

  @DF-RHF Final Energy:  -345.03140771485596

   => Energetics <=

    Nuclear Repulsion Energy =            311.0730858670594898
    One-Electron Energy =               -1086.7738580262257528
    Two-Electron Energy =                 430.6693644443103040
    Total Energy =                       -345.0314077148559591
  Basis Set: (AUG-CC-PVTZ AUX)
    Blend: AUG-CC-PVTZ-RI
    Molecular point group: c1

    Geometry (in Angstrom), charge = 0, multiplicity = 1:

       Center              X                  Y                   Z               Mass
    ------------   -----------------  -----------------  -----------------  -----------------
         O            0.735800783588    -0.509763136454     0.072591057410    15.994914619570
         O           -0.626974616412     1.374486063546    -0.015424942590    15.994914619570
         C           -1.630254616412    -0.842021936454    -0.017879942590    12.000000000000
         C            1.847370383588     0.414850063546    -0.013014942590    12.000000000000
         C           -0.501241616412     0.160437063546    -0.015325942590    12.000000000000
         C           -2.997224616412    -0.172806936454    -0.008300942590    12.000000000000
         C            3.075043383588    -0.467101936454    -0.011305942590    12.000000000000
         H           -1.502630616412    -1.483724936454    -0.896926942590     1.007825032230
         H           -1.496027616412    -1.496768936454     0.850367057410     1.007825032230
         H            1.799614383588     1.057345063546    -0.896630942590     1.007825032230
         H            1.797800383588     1.058238063546     0.869842057410     1.007825032230
         H           -3.121097616412     0.466890063546    -0.884176942590     1.007825032230
         H           -3.789416616412    -0.925861936454    -0.011432942590     1.007825032230
         H           -3.115535616412     0.453369063546     0.878106057410     1.007825032230
         H            3.977797383588     0.150326063546    -0.010700942590     1.007825032230
         H            3.088494383588    -1.103706936454     0.875849057410     1.007825032230
         H            3.090314383588    -1.104634936454    -0.897763942590     1.007825032230

  Basis Set: AUG-CC-PVTZ
    Blend: AUG-CC-PVTZ
  Basis Set: (AUG-CC-PVTZ AUX)
    Blend: AUG-CC-PVTZ-JKFIT
	 Reference Energy          =    -345.0314077148559591 [Eh]
	 Singles Energy            =      -0.0000000000000000 [Eh]
	 Same-Spin Energy          =      -0.3406877380376833 [Eh]
	 Opposite-Spin Energy      =      -1.1328892900912655 [Eh]
	 Correlation Energy        =      -1.4735770281289486 [Eh]
	 Total Energy              =    -346.5049847429849024 [Eh]

	 ================> DF-SCS-MP2 Energies <==================
	-----------------------------------------------------------
	 SCS Same-Spin Scale       =       0.3333333333333333 [-]
	 SCS Opposite-Spin Scale   =       1.2000000000000000 [-]
	 SCS Same-Spin Energy      =      -0.1135625793458944 [Eh]
	 SCS Opposite-Spin Energy  =      -1.3594671481095186 [Eh]
	 SCS Correlation Energy    =      -1.4730297274554132 [Eh]
	 SCS Total Energy          =    -346.5044374423113709 [Eh]
	-----------------------------------------------------------

  Dipole Moment: [D]
     X:     0.4935      Y:    -1.4237      Z:    -0.1108     Total:     1.5108

*** Psi4 exiting successfully. Buy a developer a beer!
