                               Psi4 1.3.2 release

  ==> Input File <==

--------------------------------------------------------------------------
#psi4
#
memory 32 gb

molecule  {
0 1
  O        0.6525319    -0.5323799    -0.0004349
  O       -0.6284610     1.3947560    -0.0020030
  C       -1.6317410    -0.8217520    -0.0044580
  C        1.8458840     0.4351200     0.0004070
  C       -0.5027280     0.1807070    -0.0019040
  C       -2.9987110    -0.1525370     0.0051210
  C        3.0735570    -0.4468320     0.0021160
  H       -1.5041170    -1.4634550    -0.8835050
  H       -1.4975140    -1.4764990     0.8637890
  H        1.7981280     1.0776150    -0.8832090
  H        1.7963140     1.0785080     0.8832640
  H       -3.1225840     0.4871600    -0.8707550
  H       -3.7909030    -0.9055920     0.0019890
  H       -3.1170220     0.4736390     0.8915280
  H        3.9763110     0.1705960     0.0027210
  H        3.0870080    -1.0834370     0.8892710
  H        3.0888280    -1.0843650    -0.8843420
units angstrom
no_reorient  #important for SAPT in psi4, default
symmetry c1  #important for SAPT in psi4, default
}

set PROPERTIES_ORIGIN ["COM"]
properties('MP2/aug-cc-pvtz', properties = ['dipole'])
--------------------------------------------------------------------------

    Molecular point group: c1
  Charge       = 0
  Multiplicity = 1
  Basis Set: AUG-CC-PVTZ
    Blend: AUG-CC-PVTZ
  Basis Set: (AUG-CC-PVTZ AUX)
    Blend: AUG-CC-PVTZ-JKFIT

    Orbital Energies [Eh]
    ---------------------

    Doubly Occupied:

       1A    -20.602570     2A    -20.543697     3A    -11.375148
       4A    -11.297660     5A    -11.237496     6A    -11.227982
       7A    -11.215200     8A     -1.437691     9A     -1.345691
      10A     -1.064510    11A     -1.029193    12A     -0.899578
      13A     -0.841586    14A     -0.762761    15A     -0.688243
      16A     -0.675532    17A     -0.657669    18A     -0.626305
      19A     -0.576804    20A     -0.568170    21A     -0.558664
      22A     -0.524565    23A     -0.517972    24A     -0.511060
      25A     -0.504936    26A     -0.489577    27A     -0.464168
      28A     -0.439348

  @DF-RHF Final Energy:  -345.02864158314480

   => Energetics <=

    Nuclear Repulsion Energy =            310.9467733014723763
    One-Electron Energy =               -1086.5832804508495428
    Two-Electron Energy =                 430.6078655662323627
    Total Energy =                       -345.0286415831448039
  Basis Set: (AUG-CC-PVTZ AUX)
    Blend: AUG-CC-PVTZ-RI
    Molecular point group: c1

    Geometry (in Angstrom), charge = 0, multiplicity = 1:

       Center              X                  Y                   Z               Mass
    ------------   -----------------  -----------------  -----------------  -----------------
         O            0.666834279642    -0.545929134862    -0.000309739661    15.994914619570
         O           -0.614158620358     1.381206765138    -0.001877839661    15.994914619570
         C           -1.617438620358    -0.835301234862    -0.004332839661    12.000000000000
         C            1.860186379642     0.421570765138     0.000532160339    12.000000000000
         C           -0.488425620358     0.167157765138    -0.001778839661    12.000000000000
         C           -2.984408620358    -0.166086234862     0.005246160339    12.000000000000
         C            3.087859379642    -0.460381234862     0.002241160339    12.000000000000
         H           -1.489814620358    -1.477004234862    -0.883379839661     1.007825032230
         H           -1.483211620358    -1.490048234862     0.863914160339     1.007825032230
         H            1.812430379642     1.064065765138    -0.883083839661     1.007825032230
         H            1.810616379642     1.064958765138     0.883389160339     1.007825032230
         H           -3.108281620358     0.473610765138    -0.870629839661     1.007825032230
         H           -3.776600620358    -0.919141234862     0.002114160339     1.007825032230
         H           -3.102719620358     0.460089765138     0.891653160339     1.007825032230
         H            3.990613379642     0.157046765138     0.002846160339     1.007825032230
         H            3.101310379642    -1.096986234862     0.889396160339     1.007825032230
         H            3.103130379642    -1.097914234862    -0.884216839661     1.007825032230

  Basis Set: AUG-CC-PVTZ
    Blend: AUG-CC-PVTZ
  Basis Set: (AUG-CC-PVTZ AUX)
    Blend: AUG-CC-PVTZ-JKFIT
	 Reference Energy          =    -345.0286415831448039 [Eh]
	 Singles Energy            =      -0.0000000000000000 [Eh]
	 Same-Spin Energy          =      -0.3406954752907533 [Eh]
	 Opposite-Spin Energy      =      -1.1333689115645500 [Eh]
	 Correlation Energy        =      -1.4740643868553032 [Eh]
	 Total Energy              =    -346.5027059700000791 [Eh]

	 ================> DF-SCS-MP2 Energies <==================
	-----------------------------------------------------------
	 SCS Same-Spin Scale       =       0.3333333333333333 [-]
	 SCS Opposite-Spin Scale   =       1.2000000000000000 [-]
	 SCS Same-Spin Energy      =      -0.1135651584302511 [Eh]
	 SCS Opposite-Spin Energy  =      -1.3600426938774599 [Eh]
	 SCS Correlation Energy    =      -1.4736078523077110 [Eh]
	 SCS Total Energy          =    -346.5022494354525406 [Eh]
	-----------------------------------------------------------

  Dipole Moment: [D]
     X:     1.1880      Y:    -1.3827      Z:    -0.0008     Total:     1.8230

*** Psi4 exiting successfully. Buy a developer a beer!
