                               Psi4 1.3.2 release

  ==> Input File <==

--------------------------------------------------------------------------
#psi4
#
memory 32 gb

molecule  {
0 1
  O        0.6994600    -0.4500560    -0.0003020
  O       -0.6284610     1.3947560    -0.0020030
  C       -1.6317410    -0.8217520    -0.0044580
  C        1.8458840     0.4351200     0.0004070
  C       -0.5233308     0.3796430    -0.0019202
  C       -2.9987110    -0.1525370     0.0051210
  C        3.0735570    -0.4468320     0.0021160
  H       -1.5041170    -1.4634550    -0.8835050
  H       -1.4975140    -1.4764990     0.8637890
  H        1.7981280     1.0776150    -0.8832090
  H        1.7963140     1.0785080     0.8832640
  H       -3.1225840     0.4871600    -0.8707550
  H       -3.7909030    -0.9055920     0.0019890
  H       -3.1170220     0.4736390     0.8915280
  H        3.9763110     0.1705960     0.0027210
  H        3.0870080    -1.0834370     0.8892710
  H        3.0888280    -1.0843650    -0.8843420
units angstrom
no_reorient  #important for SAPT in psi4, default
symmetry c1  #important for SAPT in psi4, default
}

set PROPERTIES_ORIGIN ["COM"]
properties('MP2/aug-cc-pvtz', properties = ['dipole'])
--------------------------------------------------------------------------

    Molecular point group: c1
  Charge       = 0
  Multiplicity = 1
  Basis Set: AUG-CC-PVTZ
    Blend: AUG-CC-PVTZ
  Basis Set: (AUG-CC-PVTZ AUX)
    Blend: AUG-CC-PVTZ-JKFIT

    Orbital Energies [Eh]
    ---------------------

    Doubly Occupied:

       1A    -20.581578     2A    -20.564139     3A    -11.360505
       4A    -11.272602     5A    -11.238263     6A    -11.216302
       7A    -11.214684     8A     -1.567860     9A     -1.352385
      10A     -1.045238    11A     -1.011410    12A     -0.877904
      13A     -0.825353    14A     -0.767793    15A     -0.735002
      16A     -0.694141    17A     -0.693925    18A     -0.630768
      19A     -0.597790    20A     -0.580298    21A     -0.545981
      22A     -0.540514    23A     -0.523336    24A     -0.515479
      25A     -0.498752    26A     -0.497147    27A     -0.445682
      28A     -0.407905

  @DF-RHF Final Energy:  -344.95679007463366

   => Energetics <=

    Nuclear Repulsion Energy =            313.4406316903864536
    One-Electron Energy =               -1091.1893745147583559
    Two-Electron Energy =                 432.7919527497382433
    Total Energy =                       -344.9567900746336591
  Basis Set: (AUG-CC-PVTZ AUX)
    Blend: AUG-CC-PVTZ-RI
    Molecular point group: c1

    Geometry (in Angstrom), charge = 0, multiplicity = 1:

       Center              X                  Y                   Z               Mass
    ------------   -----------------  -----------------  -----------------  -----------------
         O            0.708830599257    -0.499894697420    -0.000195761582    15.994914619570
         O           -0.619090400743     1.344917302580    -0.001896761582    15.994914619570
         C           -1.622370400743    -0.871590697420    -0.004351761582    12.000000000000
         C            1.855254599257     0.385281302580     0.000513238418    12.000000000000
         C           -0.513960200743     0.329804302580    -0.001813961582    12.000000000000
         C           -2.989340400743    -0.202375697420     0.005227238418    12.000000000000
         C            3.082927599257    -0.496670697420     0.002222238418    12.000000000000
         H           -1.494746400743    -1.513293697420    -0.883398761582     1.007825032230
         H           -1.488143400743    -1.526337697420     0.863895238418     1.007825032230
         H            1.807498599257     1.027776302580    -0.883102761582     1.007825032230
         H            1.805684599257     1.028669302580     0.883370238418     1.007825032230
         H           -3.113213400743     0.437321302580    -0.870648761582     1.007825032230
         H           -3.781532400743    -0.955430697420     0.002095238418     1.007825032230
         H           -3.107651400743     0.423800302580     0.891634238418     1.007825032230
         H            3.985681599257     0.120757302580     0.002827238418     1.007825032230
         H            3.096378599257    -1.133275697420     0.889377238418     1.007825032230
         H            3.098198599257    -1.134203697420    -0.884235761582     1.007825032230

  Basis Set: AUG-CC-PVTZ
    Blend: AUG-CC-PVTZ
  Basis Set: (AUG-CC-PVTZ AUX)
    Blend: AUG-CC-PVTZ-JKFIT
	 Reference Energy          =    -344.9567900746336591 [Eh]
	 Singles Energy            =      -0.0000000000000000 [Eh]
	 Same-Spin Energy          =      -0.3371396672383279 [Eh]
	 Opposite-Spin Energy      =      -1.1257844016326195 [Eh]
	 Correlation Energy        =      -1.4629240688709473 [Eh]
	 Total Energy              =    -346.4197141435046206 [Eh]

	 ================> DF-SCS-MP2 Energies <==================
	-----------------------------------------------------------
	 SCS Same-Spin Scale       =       0.3333333333333333 [-]
	 SCS Opposite-Spin Scale   =       1.2000000000000000 [-]
	 SCS Same-Spin Energy      =      -0.1123798890794426 [Eh]
	 SCS Opposite-Spin Energy  =      -1.3509412819591433 [Eh]
	 SCS Correlation Energy    =      -1.4633211710385861 [Eh]
	 SCS Total Energy          =    -346.4201112456722171 [Eh]
	-----------------------------------------------------------

  Dipole Moment: [D]
     X:     0.1055      Y:    -0.2602      Z:    -0.0017     Total:     0.2808

*** Psi4 exiting successfully. Buy a developer a beer!
