                               Psi4 1.3.2 release

  ==> Input File <==

--------------------------------------------------------------------------
#psi4
#
memory 32 gb

molecule  {
0 1
  O        0.6994600    -0.4500560    -0.0003020
  O       -0.6284610     1.3947560    -0.0020030
  C       -1.6317410    -0.8217520    -0.0044580
  C        1.7667322     0.3740054     0.0003580
  C       -0.5027280     0.1807070    -0.0019040
  C       -2.9987110    -0.1525370     0.0051210
  C        3.0735570    -0.4468320     0.0021160
  H       -1.5041170    -1.4634550    -0.8835050
  H       -1.4975140    -1.4764990     0.8637890
  H        1.7981280     1.0776150    -0.8832090
  H        1.7963140     1.0785080     0.8832640
  H       -3.1225840     0.4871600    -0.8707550
  H       -3.7909030    -0.9055920     0.0019890
  H       -3.1170220     0.4736390     0.8915280
  H        3.9763110     0.1705960     0.0027210
  H        3.0870080    -1.0834370     0.8892710
  H        3.0888280    -1.0843650    -0.8843420
units angstrom
no_reorient  #important for SAPT in psi4, default
symmetry c1  #important for SAPT in psi4, default
}

set PROPERTIES_ORIGIN ["COM"]
properties('MP2/aug-cc-pvtz', properties = ['dipole'])
--------------------------------------------------------------------------

    Molecular point group: c1
  Charge       = 0
  Multiplicity = 1
  Basis Set: AUG-CC-PVTZ
    Blend: AUG-CC-PVTZ
  Basis Set: (AUG-CC-PVTZ AUX)
    Blend: AUG-CC-PVTZ-JKFIT

    Orbital Energies [Eh]
    ---------------------

    Doubly Occupied:

       1A    -20.609980     2A    -20.549790     3A    -11.384645
       4A    -11.286507     5A    -11.248689     6A    -11.222549
       7A    -11.221424     8A     -1.477659     9A     -1.365688
      10A     -1.073885    11A     -1.021339    12A     -0.915412
      13A     -0.840829    14A     -0.781220    15A     -0.703050
      16A     -0.692864    17A     -0.671733    18A     -0.628113
      19A     -0.593317    20A     -0.566595    21A     -0.555917
      22A     -0.528896    23A     -0.524494    24A     -0.511591
      25A     -0.491997    26A     -0.488285    27A     -0.450797
      28A     -0.446173

  @DF-RHF Final Energy:  -345.03087450907225

   => Energetics <=

    Nuclear Repulsion Energy =            313.7388654743645020
    One-Electron Energy =               -1091.8326058453878886
    Two-Electron Energy =                 433.0628658619511384
    Total Energy =                       -345.0308745090722482
  Basis Set: (AUG-CC-PVTZ AUX)
    Blend: AUG-CC-PVTZ-RI
    Molecular point group: c1

    Geometry (in Angstrom), charge = 0, multiplicity = 1:

       Center              X                  Y                   Z               Mass
    ------------   -----------------  -----------------  -----------------  -----------------
         O            0.715714122519    -0.469320915554    -0.000191905333    15.994914619570
         O           -0.612206877481     1.375491084446    -0.001892905333    15.994914619570
         C           -1.615486877481    -0.841016915554    -0.004347905333    12.000000000000
         C            1.782986322519     0.354740484446     0.000468094667    12.000000000000
         C           -0.486473877481     0.161442084446    -0.001793905333    12.000000000000
         C           -2.982456877481    -0.171801915554     0.005231094667    12.000000000000
         C            3.089811122519    -0.466096915554     0.002226094667    12.000000000000
         H           -1.487862877481    -1.482719915554    -0.883394905333     1.007825032230
         H           -1.481259877481    -1.495763915554     0.863899094667     1.007825032230
         H            1.814382122519     1.058350084446    -0.883098905333     1.007825032230
         H            1.812568122519     1.059243084446     0.883374094667     1.007825032230
         H           -3.106329877481     0.467895084446    -0.870644905333     1.007825032230
         H           -3.774648877481    -0.924856915554     0.002099094667     1.007825032230
         H           -3.100767877481     0.454374084446     0.891638094667     1.007825032230
         H            3.992565122519     0.151331084446     0.002831094667     1.007825032230
         H            3.103262122519    -1.102701915554     0.889381094667     1.007825032230
         H            3.105082122519    -1.103629915554    -0.884231905333     1.007825032230

  Basis Set: AUG-CC-PVTZ
    Blend: AUG-CC-PVTZ
  Basis Set: (AUG-CC-PVTZ AUX)
    Blend: AUG-CC-PVTZ-JKFIT
	 Reference Energy          =    -345.0308745090722482 [Eh]
	 Singles Energy            =      -0.0000000000000000 [Eh]
	 Same-Spin Energy          =      -0.3398890349102861 [Eh]
	 Opposite-Spin Energy      =      -1.1297445270142794 [Eh]
	 Correlation Energy        =      -1.4696335619245655 [Eh]
	 Total Energy              =    -346.5005080709968297 [Eh]

	 ================> DF-SCS-MP2 Energies <==================
	-----------------------------------------------------------
	 SCS Same-Spin Scale       =       0.3333333333333333 [-]
	 SCS Opposite-Spin Scale   =       1.2000000000000000 [-]
	 SCS Same-Spin Energy      =      -0.1132963449700954 [Eh]
	 SCS Opposite-Spin Energy  =      -1.3556934324171352 [Eh]
	 SCS Correlation Energy    =      -1.4689897773872307 [Eh]
	 SCS Total Energy          =    -346.4998642864594558 [Eh]
	-----------------------------------------------------------

  Dipole Moment: [D]
     X:     0.3961      Y:    -1.7007      Z:    -0.0014     Total:     1.7462

*** Psi4 exiting successfully. Buy a developer a beer!
