                               Psi4 1.3.2 release

  ==> Input File <==

--------------------------------------------------------------------------
#psi4
#
memory 32 gb

molecule  {
0 1
  O        0.6994600    -0.4500560    -0.0003020
  O       -0.6284610     1.3947560    -0.0020030
  C       -1.6317410    -0.8217520    -0.0044580
  C        1.7470778     0.5501048     0.0002406
  C       -0.5027280     0.1807070    -0.0019040
  C       -2.9987110    -0.1525370     0.0051210
  C        3.0735570    -0.4468320     0.0021160
  H       -1.5041170    -1.4634550    -0.8835050
  H       -1.4975140    -1.4764990     0.8637890
  H        1.7981280     1.0776150    -0.8832090
  H        1.7963140     1.0785080     0.8832640
  H       -3.1225840     0.4871600    -0.8707550
  H       -3.7909030    -0.9055920     0.0019890
  H       -3.1170220     0.4736390     0.8915280
  H        3.9763110     0.1705960     0.0027210
  H        3.0870080    -1.0834370     0.8892710
  H        3.0888280    -1.0843650    -0.8843420
units angstrom
no_reorient  #important for SAPT in psi4, default
symmetry c1  #important for SAPT in psi4, default
}

set PROPERTIES_ORIGIN ["COM"]
properties('MP2/aug-cc-pvtz', properties = ['dipole'])
--------------------------------------------------------------------------

    Molecular point group: c1
  Charge       = 0
  Multiplicity = 1
  Basis Set: AUG-CC-PVTZ
    Blend: AUG-CC-PVTZ
  Basis Set: (AUG-CC-PVTZ AUX)
    Blend: AUG-CC-PVTZ-JKFIT

    Orbital Energies [Eh]
    ---------------------

    Doubly Occupied:

       1A    -20.605488     2A    -20.545043     3A    -11.378130
       4A    -11.284267     5A    -11.244797     6A    -11.224818
       7A    -11.220096     8A     -1.455889     9A     -1.352576
      10A     -1.066734    11A     -1.008043    12A     -0.903446
      13A     -0.853031    14A     -0.771894    15A     -0.695981
      16A     -0.694904    17A     -0.666094    18A     -0.632294
      19A     -0.579647    20A     -0.565322    21A     -0.547754
      22A     -0.524702    23A     -0.522037    24A     -0.521071
      25A     -0.496274    26A     -0.469100    27A     -0.468951
      28A     -0.444767

  @DF-RHF Final Energy:  -345.01701757799600

   => Energetics <=

    Nuclear Repulsion Energy =            312.1366632032002144
    One-Electron Energy =               -1088.8210592057241684
    Two-Electron Energy =                 431.6673784245279535
    Total Energy =                       -345.0170175779960005
  Basis Set: (AUG-CC-PVTZ AUX)
    Blend: AUG-CC-PVTZ-RI
    Molecular point group: c1

    Geometry (in Angstrom), charge = 0, multiplicity = 1:

       Center              X                  Y                   Z               Mass
    ------------   -----------------  -----------------  -----------------  -----------------
         O            0.718024862576    -0.490024673370    -0.000178102780    15.994914619570
         O           -0.609896137424     1.354787326630    -0.001879102780    15.994914619570
         C           -1.613176137424    -0.861720673370    -0.004334102780    12.000000000000
         C            1.765642662576     0.510136126630     0.000364497220    12.000000000000
         C           -0.484163137424     0.140738326630    -0.001780102780    12.000000000000
         C           -2.980146137424    -0.192505673370     0.005244897220    12.000000000000
         C            3.092121862576    -0.486800673370     0.002239897220    12.000000000000
         H           -1.485552137424    -1.503423673370    -0.883381102780     1.007825032230
         H           -1.478949137424    -1.516467673370     0.863912897220     1.007825032230
         H            1.816692862576     1.037646326630    -0.883085102780     1.007825032230
         H            1.814878862576     1.038539326630     0.883387897220     1.007825032230
         H           -3.104019137424     0.447191326630    -0.870631102780     1.007825032230
         H           -3.772338137424    -0.945560673370     0.002112897220     1.007825032230
         H           -3.098457137424     0.433670326630     0.891651897220     1.007825032230
         H            3.994875862576     0.130627326630     0.002844897220     1.007825032230
         H            3.105572862576    -1.123405673370     0.889394897220     1.007825032230
         H            3.107392862576    -1.124333673370    -0.884218102780     1.007825032230

  Basis Set: AUG-CC-PVTZ
    Blend: AUG-CC-PVTZ
  Basis Set: (AUG-CC-PVTZ AUX)
    Blend: AUG-CC-PVTZ-JKFIT
	 Reference Energy          =    -345.0170175779960005 [Eh]
	 Singles Energy            =      -0.0000000000000000 [Eh]
	 Same-Spin Energy          =      -0.3399679100649935 [Eh]
	 Opposite-Spin Energy      =      -1.1319187171580782 [Eh]
	 Correlation Energy        =      -1.4718866272230717 [Eh]
	 Total Energy              =    -346.4889042052190575 [Eh]

	 ================> DF-SCS-MP2 Energies <==================
	-----------------------------------------------------------
	 SCS Same-Spin Scale       =       0.3333333333333333 [-]
	 SCS Opposite-Spin Scale   =       1.2000000000000000 [-]
	 SCS Same-Spin Energy      =      -0.1133226366883312 [Eh]
	 SCS Opposite-Spin Energy  =      -1.3583024605896938 [Eh]
	 SCS Correlation Energy    =      -1.4716250972780249 [Eh]
	 SCS Total Energy          =    -346.4886426752740363 [Eh]
	-----------------------------------------------------------

  Dipole Moment: [D]
     X:     0.5658      Y:    -1.4404      Z:    -0.0015     Total:     1.5476

*** Psi4 exiting successfully. Buy a developer a beer!
