                               Psi4 1.3.2 release

  ==> Input File <==

--------------------------------------------------------------------------
#psi4
#
memory 32 gb

molecule  {
0 1
  O        0.6994600    -0.4500560    -0.0003020
  O       -0.6284610     1.3947560    -0.0020030
  C       -1.6317410    -0.8217520    -0.0044580
  C        1.8458840     0.4351200     0.0004070
  C       -0.6798308     0.2736292    -0.0021400
  C       -2.9987110    -0.1525370     0.0051210
  C        3.0735570    -0.4468320     0.0021160
  H       -1.5041170    -1.4634550    -0.8835050
  H       -1.4975140    -1.4764990     0.8637890
  H        1.7981280     1.0776150    -0.8832090
  H        1.7963140     1.0785080     0.8832640
  H       -3.1225840     0.4871600    -0.8707550
  H       -3.7909030    -0.9055920     0.0019890
  H       -3.1170220     0.4736390     0.8915280
  H        3.9763110     0.1705960     0.0027210
  H        3.0870080    -1.0834370     0.8892710
  H        3.0888280    -1.0843650    -0.8843420
units angstrom
no_reorient  #important for SAPT in psi4, default
symmetry c1  #important for SAPT in psi4, default
}

set PROPERTIES_ORIGIN ["COM"]
properties('MP2/aug-cc-pvtz', properties = ['dipole'])
--------------------------------------------------------------------------

    Molecular point group: c1
  Charge       = 0
  Multiplicity = 1
  Basis Set: AUG-CC-PVTZ
    Blend: AUG-CC-PVTZ
  Basis Set: (AUG-CC-PVTZ AUX)
    Blend: AUG-CC-PVTZ-JKFIT

    Orbital Energies [Eh]
    ---------------------

    Doubly Occupied:

       1A    -20.580224     2A    -20.543369     3A    -11.382029
       4A    -11.261924     5A    -11.255860     6A    -11.231130
       7A    -11.207342     8A     -1.488577     9A     -1.313497
      10A     -1.090809    11A     -1.002249    12A     -0.908209
      13A     -0.820244    14A     -0.758445    15A     -0.708685
      16A     -0.681813    17A     -0.672601    18A     -0.628030
      19A     -0.577999    20A     -0.575302    21A     -0.548422
      22A     -0.541422    23A     -0.518687    24A     -0.514493
      25A     -0.508421    26A     -0.492807    27A     -0.426944
      28A     -0.425340

  @DF-RHF Final Energy:  -345.00050901218475

   => Energetics <=

    Nuclear Repulsion Energy =            311.8010147381206707
    One-Electron Energy =               -1088.2733002030811349
    Two-Electron Energy =                 431.4717764527757140
    Total Energy =                       -345.0005090121847502
  Basis Set: (AUG-CC-PVTZ AUX)
    Blend: AUG-CC-PVTZ-RI
    Molecular point group: c1

    Geometry (in Angstrom), charge = 0, multiplicity = 1:

       Center              X                  Y                   Z               Mass
    ------------   -----------------  -----------------  -----------------  -----------------
         O            0.727230083288    -0.487430804639    -0.000169920007    15.994914619570
         O           -0.600690916712     1.357381195361    -0.001870920007    15.994914619570
         C           -1.603970916712    -0.859126804639    -0.004325920007    12.000000000000
         C            1.873654083288     0.397745195361     0.000539079993    12.000000000000
         C           -0.652060716712     0.236254395361    -0.002007920007    12.000000000000
         C           -2.970940916712    -0.189911804639     0.005253079993    12.000000000000
         C            3.101327083288    -0.484206804639     0.002248079993    12.000000000000
         H           -1.476346916712    -1.500829804639    -0.883372920007     1.007825032230
         H           -1.469743916712    -1.513873804639     0.863921079993     1.007825032230
         H            1.825898083288     1.040240195361    -0.883076920007     1.007825032230
         H            1.824084083288     1.041133195361     0.883396079993     1.007825032230
         H           -3.094813916712     0.449785195361    -0.870622920007     1.007825032230
         H           -3.763132916712    -0.942966804639     0.002121079993     1.007825032230
         H           -3.089251916712     0.436264195361     0.891660079993     1.007825032230
         H            4.004081083288     0.133221195361     0.002853079993     1.007825032230
         H            3.114778083288    -1.120811804639     0.889403079993     1.007825032230
         H            3.116598083288    -1.121739804639    -0.884209920007     1.007825032230

  Basis Set: AUG-CC-PVTZ
    Blend: AUG-CC-PVTZ
  Basis Set: (AUG-CC-PVTZ AUX)
    Blend: AUG-CC-PVTZ-JKFIT
	 Reference Energy          =    -345.0005090121847502 [Eh]
	 Singles Energy            =      -0.0000000000000000 [Eh]
	 Same-Spin Energy          =      -0.3408335843258962 [Eh]
	 Opposite-Spin Energy      =      -1.1326118670368315 [Eh]
	 Correlation Energy        =      -1.4734454513627275 [Eh]
	 Total Energy              =    -346.4739544635474999 [Eh]

	 ================> DF-SCS-MP2 Energies <==================
	-----------------------------------------------------------
	 SCS Same-Spin Scale       =       0.3333333333333333 [-]
	 SCS Opposite-Spin Scale   =       1.2000000000000000 [-]
	 SCS Same-Spin Energy      =      -0.1136111947752987 [Eh]
	 SCS Opposite-Spin Energy  =      -1.3591342404441977 [Eh]
	 SCS Correlation Energy    =      -1.4727454352194964 [Eh]
	 SCS Total Energy          =    -346.4732544474042584 [Eh]
	-----------------------------------------------------------

  Dipole Moment: [D]
     X:    -1.1101      Y:    -0.9259      Z:    -0.0036     Total:     1.4456

*** Psi4 exiting successfully. Buy a developer a beer!
