                               Psi4 1.3.2 release

  ==> Input File <==

--------------------------------------------------------------------------
#psi4
#
memory 32 gb

molecule  {
0 1
  O        0.6994600    -0.4500560    -0.0003020
  O       -0.6284610     1.3947560    -0.0020030
  C       -1.6317410    -0.8217520    -0.0044580
  C        1.8458840     0.4351200     0.0004070
  C       -0.5384006     0.2194968    -0.0015105
  C       -2.9987110    -0.1525370     0.0051210
  C        3.0735570    -0.4468320     0.0021160
  H       -1.5041170    -1.4634550    -0.8835050
  H       -1.4975140    -1.4764990     0.8637890
  H        1.7981280     1.0776150    -0.8832090
  H        1.7963140     1.0785080     0.8832640
  H       -3.1225840     0.4871600    -0.8707550
  H       -3.7909030    -0.9055920     0.0019890
  H       -3.1170220     0.4736390     0.8915280
  H        3.9763110     0.1705960     0.0027210
  H        3.0870080    -1.0834370     0.8892710
  H        3.0888280    -1.0843650    -0.8843420
units angstrom
no_reorient  #important for SAPT in psi4, default
symmetry c1  #important for SAPT in psi4, default
}

set PROPERTIES_ORIGIN ["COM"]
properties('MP2/aug-cc-pvtz', properties = ['dipole'])
--------------------------------------------------------------------------

    Molecular point group: c1
  Charge       = 0
  Multiplicity = 1
  Basis Set: AUG-CC-PVTZ
    Blend: AUG-CC-PVTZ
  Basis Set: (AUG-CC-PVTZ AUX)
    Blend: AUG-CC-PVTZ-JKFIT

    Orbital Energies [Eh]
    ---------------------

    Doubly Occupied:

       1A    -20.586225     2A    -20.553648     3A    -11.376156
       4A    -11.281092     5A    -11.245424     6A    -11.220968
       7A    -11.220299     8A     -1.451075     9A     -1.358469
      10A     -1.068596    11A     -1.022666    12A     -0.902941
      13A     -0.836768    14A     -0.761766    15A     -0.701090
      16A     -0.676302    17A     -0.665262    18A     -0.629287
      19A     -0.581818    20A     -0.567252    21A     -0.553938
      22A     -0.527066    23A     -0.517455    24A     -0.513444
      25A     -0.506073    26A     -0.498672    27A     -0.454199
      28A     -0.444669

  @DF-RHF Final Energy:  -345.03673411438018

   => Energetics <=

    Nuclear Repulsion Energy =            312.1569280331465848
    One-Electron Energy =               -1088.9420847245955883
    Two-Electron Energy =                 431.7484225770687658
    Total Energy =                       -345.0367341143801809
  Basis Set: (AUG-CC-PVTZ AUX)
    Blend: AUG-CC-PVTZ-RI
    Molecular point group: c1

    Geometry (in Angstrom), charge = 0, multiplicity = 1:

       Center              X                  Y                   Z               Mass
    ------------   -----------------  -----------------  -----------------  -----------------
         O            0.710602334365    -0.481066534803    -0.000243929433    15.994914619570
         O           -0.617318665635     1.363745465197    -0.001944929433    15.994914619570
         C           -1.620598665635    -0.852762534803    -0.004399929433    12.000000000000
         C            1.857026334365     0.404109465197     0.000465070567    12.000000000000
         C           -0.527258265635     0.188486265197    -0.001452429433    12.000000000000
         C           -2.987568665635    -0.183547534803     0.005179070567    12.000000000000
         C            3.084699334365    -0.477842534803     0.002174070567    12.000000000000
         H           -1.492974665635    -1.494465534803    -0.883446929433     1.007825032230
         H           -1.486371665635    -1.507509534803     0.863847070567     1.007825032230
         H            1.809270334365     1.046604465197    -0.883150929433     1.007825032230
         H            1.807456334365     1.047497465197     0.883322070567     1.007825032230
         H           -3.111441665635     0.456149465197    -0.870696929433     1.007825032230
         H           -3.779760665635    -0.936602534803     0.002047070567     1.007825032230
         H           -3.105879665635     0.442628465197     0.891586070567     1.007825032230
         H            3.987453334365     0.139585465197     0.002779070567     1.007825032230
         H            3.098150334365    -1.114447534803     0.889329070567     1.007825032230
         H            3.099970334365    -1.115375534803    -0.884283929433     1.007825032230

  Basis Set: AUG-CC-PVTZ
    Blend: AUG-CC-PVTZ
  Basis Set: (AUG-CC-PVTZ AUX)
    Blend: AUG-CC-PVTZ-JKFIT
	 Reference Energy          =    -345.0367341143801809 [Eh]
	 Singles Energy            =      -0.0000000000000000 [Eh]
	 Same-Spin Energy          =      -0.3394242015865320 [Eh]
	 Opposite-Spin Energy      =      -1.1298199681813417 [Eh]
	 Correlation Energy        =      -1.4692441697678738 [Eh]
	 Total Energy              =    -346.5059782841480569 [Eh]

	 ================> DF-SCS-MP2 Energies <==================
	-----------------------------------------------------------
	 SCS Same-Spin Scale       =       0.3333333333333333 [-]
	 SCS Opposite-Spin Scale   =       1.2000000000000000 [-]
	 SCS Same-Spin Energy      =      -0.1131414005288440 [Eh]
	 SCS Opposite-Spin Energy  =      -1.3557839618176100 [Eh]
	 SCS Correlation Energy    =      -1.4689253623464540 [Eh]
	 SCS Total Energy          =    -346.5056594767266347 [Eh]
	-----------------------------------------------------------

  Dipole Moment: [D]
     X:     0.4145      Y:    -1.3308      Z:    -0.0012     Total:     1.3938

*** Psi4 exiting successfully. Buy a developer a beer!
