                               Psi4 1.4a3.dev225

  ==> Input File <==

--------------------------------------------------------------------------
#psi4
#
memory 32 gb

molecule  {
0 1
  O        0.6994210    -0.4500590     0.0000070
  O       -0.6284480     1.3945490     0.0000020
  C       -1.6317860    -0.8218820     0.0000110
  C        1.8459670     0.4353080     0.0000040
  C       -0.4652603     0.2136933     0.0000048
  C       -2.9986830    -0.1522840    -0.0000150
  C        3.0735530    -0.4467850    -0.0000110
  H       -1.5010890    -1.4699950    -0.8737300
  H       -1.5011070    -1.4699580     0.8737830
  H        1.7972070     1.0780770    -0.8832610
  H        1.7972200     1.0780650     0.8832780
  H       -3.1198680     0.4807080    -0.8811490
  H       -3.7908920    -0.9053640    -0.0000550
  H       -3.1199230     0.4806680     0.8811400
  H        3.9762390     0.1706970    -0.0000130
  H        3.0880200    -1.0839810     0.8867310
  H        3.0880080    -1.0839670    -0.8867630
units angstrom
no_reorient  #important for SAPT in psi4, default
symmetry c1  #important for SAPT in psi4, default
}

set PROPERTIES_ORIGIN ["COM"]
properties('MP2/aug-cc-pvtz', properties = ['dipole'])
--------------------------------------------------------------------------

    Molecular point group: c1
  Charge       = 0
  Multiplicity = 1
  Basis Set: AUG-CC-PVTZ
    Blend: AUG-CC-PVTZ
  Basis Set: (AUG-CC-PVTZ AUX)
    Blend: AUG-CC-PVTZ-JKFIT

    Orbital Energies [Eh]
    ---------------------

    Doubly Occupied:

       1A    -20.603249     2A    -20.544756     3A    -11.373732
       4A    -11.289406     5A    -11.240531     6A    -11.225845
       7A    -11.215979     8A     -1.462172     9A     -1.368132
      10A     -1.060969    11A     -1.027712    12A     -0.900733
      13A     -0.840737    14A     -0.774435    15A     -0.694564
      16A     -0.687312    17A     -0.666096    18A     -0.624237
      19A     -0.583285    20A     -0.572322    21A     -0.557125
      22A     -0.521547    23A     -0.517198    24A     -0.512722
      25A     -0.512537    26A     -0.492384    27A     -0.462952
      28A     -0.436606

  @DF-RHF Final Energy:  -345.03891332508385

   => Energetics <=

    Nuclear Repulsion Energy =            312.5298110395730760
    One-Electron Energy =               -1089.5989011378610485
    Two-Electron Energy =                 432.0301767732040616
    Total Energy =                       -345.0389133250838540
  Basis Set: (AUG-CC-PVTZ AUX)
    Blend: AUG-CC-PVTZ-RI
    Molecular point group: c1

    Geometry (in Angstrom), charge = 0, multiplicity = 1:

       Center              X                  Y                   Z               Mass
    ------------   -----------------  -----------------  -----------------  -----------------
         O            0.701967377873    -0.480404108072     0.000006703638    15.994914619570
         O           -0.625901622127     1.364203891928     0.000001703638    15.994914619570
         C           -1.629239622127    -0.852227108072     0.000010703638    12.000000000000
         C            1.848513377873     0.404962891928     0.000003703638    12.000000000000
         C           -0.462713922127     0.183348191928     0.000004503638    12.000000000000
         C           -2.996136622127    -0.182629108072    -0.000015296362    12.000000000000
         C            3.076099377873    -0.477130108072    -0.000011296362    12.000000000000
         H           -1.498542622127    -1.500340108072    -0.873730296362     1.007825032230
         H           -1.498560622127    -1.500303108072     0.873782703638     1.007825032230
         H            1.799753377873     1.047731891928    -0.883261296362     1.007825032230
         H            1.799766377873     1.047719891928     0.883277703638     1.007825032230
         H           -3.117321622127     0.450362891928    -0.881149296362     1.007825032230
         H           -3.788345622127    -0.935709108072    -0.000055296362     1.007825032230
         H           -3.117376622127     0.450322891928     0.881139703638     1.007825032230
         H            3.978785377873     0.140351891928    -0.000013296362     1.007825032230
         H            3.090566377873    -1.114326108072     0.886730703638     1.007825032230
         H            3.090554377873    -1.114312108072    -0.886763296362     1.007825032230

  Basis Set: AUG-CC-PVTZ
    Blend: AUG-CC-PVTZ
  Basis Set: (AUG-CC-PVTZ AUX)
    Blend: AUG-CC-PVTZ-JKFIT
	 Reference Energy          =    -345.0389133250838540 [Eh]
	 Singles Energy            =      -0.0000000000000000 [Eh]
	 Same-Spin Energy          =      -0.3389522818597204 [Eh]
	 Opposite-Spin Energy      =      -1.1288143952580882 [Eh]
	 Correlation Energy        =      -1.4677666771178086 [Eh]
	 Total Energy              =    -346.5066800022016764 [Eh]

	 ================> DF-SCS-MP2 Energies <==================
	-----------------------------------------------------------
	 SCS Same-Spin Scale       =       0.3333333333333333 [-]
	 SCS Opposite-Spin Scale   =       1.2000000000000000 [-]
	 SCS Same-Spin Energy      =      -0.1129840939532401 [Eh]
	 SCS Opposite-Spin Energy  =      -1.3545772743097058 [Eh]
	 SCS Correlation Energy    =      -1.4675613682629458 [Eh]
	 SCS Total Energy          =    -346.5064746933467745 [Eh]
	-----------------------------------------------------------

  Dipole Moment: [D]
     X:     1.1041      Y:    -1.4037      Z:     0.0000     Total:     1.7859

*** Psi4 exiting successfully. Buy a developer a beer!
