                               Psi4 1.4a3.dev225

  ==> Input File <==

--------------------------------------------------------------------------
#psi4
#
memory 32 gb

molecule  {
0 1
  O        0.6994210    -0.4500590     0.0000070
  O       -0.6284480     1.3945490     0.0000020
  C       -1.6317860    -0.8218820     0.0000110
  C        1.8063927     0.4047486     0.0000041
  C       -0.5026520     0.1804990     0.0000050
  C       -2.9986830    -0.1522840    -0.0000150
  C        3.0735530    -0.4467850    -0.0000110
  H       -1.5010890    -1.4699950    -0.8737300
  H       -1.5011070    -1.4699580     0.8737830
  H        1.7972070     1.0780770    -0.8832610
  H        1.7972200     1.0780650     0.8832780
  H       -3.1198680     0.4807080    -0.8811490
  H       -3.7908920    -0.9053640    -0.0000550
  H       -3.1199230     0.4806680     0.8811400
  H        3.9762390     0.1706970    -0.0000130
  H        3.0880200    -1.0839810     0.8867310
  H        3.0880080    -1.0839670    -0.8867630
units angstrom
no_reorient  #important for SAPT in psi4, default
symmetry c1  #important for SAPT in psi4, default
}

set PROPERTIES_ORIGIN ["COM"]
properties('MP2/aug-cc-pvtz', properties = ['dipole'])
--------------------------------------------------------------------------

    Molecular point group: c1
  Charge       = 0
  Multiplicity = 1
  Basis Set: AUG-CC-PVTZ
    Blend: AUG-CC-PVTZ
  Basis Set: (AUG-CC-PVTZ AUX)
    Blend: AUG-CC-PVTZ-JKFIT

    Orbital Energies [Eh]
    ---------------------

    Doubly Occupied:

       1A    -20.604839     2A    -20.546077     3A    -11.381080
       4A    -11.286453     5A    -11.246471     6A    -11.222779
       7A    -11.220987     8A     -1.462358     9A     -1.357818
      10A     -1.071169    11A     -1.024975    12A     -0.910781
      13A     -0.840976    14A     -0.775639    15A     -0.698833
      16A     -0.687058    17A     -0.665943    18A     -0.627894
      19A     -0.586246    20A     -0.567632    21A     -0.556617
      22A     -0.523582    23A     -0.522721    24A     -0.510765
      25A     -0.500969    26A     -0.491120    27A     -0.453306
      28A     -0.447199

  @DF-RHF Final Energy:  -345.03750734833227

   => Energetics <=

    Nuclear Repulsion Energy =            312.9421813431895316
    One-Electron Energy =               -1090.3748065477784621
    Two-Electron Energy =                 432.3951178562566611
    Total Energy =                       -345.0375073483322694
  Basis Set: (AUG-CC-PVTZ AUX)
    Blend: AUG-CC-PVTZ-RI
    Molecular point group: c1

    Geometry (in Angstrom), charge = 0, multiplicity = 1:

       Center              X                  Y                   Z               Mass
    ------------   -----------------  -----------------  -----------------  -----------------
         O            0.711016161821    -0.472908675579     0.000006668368    15.994914619570
         O           -0.616852838179     1.371699324421     0.000001668368    15.994914619570
         C           -1.620190838179    -0.844731675579     0.000010668368    12.000000000000
         C            1.817987861821     0.381898924421     0.000003768368    12.000000000000
         C           -0.491056838179     0.157649324421     0.000004668368    12.000000000000
         C           -2.987087838179    -0.175133675579    -0.000015331632    12.000000000000
         C            3.085148161821    -0.469634675579    -0.000011331632    12.000000000000
         H           -1.489493838179    -1.492844675579    -0.873730331632     1.007825032230
         H           -1.489511838179    -1.492807675579     0.873782668368     1.007825032230
         H            1.808802161821     1.055227324421    -0.883261331632     1.007825032230
         H            1.808815161821     1.055215324421     0.883277668368     1.007825032230
         H           -3.108272838179     0.457858324421    -0.881149331632     1.007825032230
         H           -3.779296838179    -0.928213675579    -0.000055331632     1.007825032230
         H           -3.108327838179     0.457818324421     0.881139668368     1.007825032230
         H            3.987834161821     0.147847324421    -0.000013331632     1.007825032230
         H            3.099615161821    -1.106830675579     0.886730668368     1.007825032230
         H            3.099603161821    -1.106816675579    -0.886763331632     1.007825032230

  Basis Set: AUG-CC-PVTZ
    Blend: AUG-CC-PVTZ
  Basis Set: (AUG-CC-PVTZ AUX)
    Blend: AUG-CC-PVTZ-JKFIT
	 Reference Energy          =    -345.0375073483322694 [Eh]
	 Singles Energy            =      -0.0000000000000000 [Eh]
	 Same-Spin Energy          =      -0.3397459856584287 [Eh]
	 Opposite-Spin Energy      =      -1.1298956134737521 [Eh]
	 Correlation Energy        =      -1.4696415991321807 [Eh]
	 Total Energy              =    -346.5071489474644295 [Eh]

	 ================> DF-SCS-MP2 Energies <==================
	-----------------------------------------------------------
	 SCS Same-Spin Scale       =       0.3333333333333333 [-]
	 SCS Opposite-Spin Scale   =       1.2000000000000000 [-]
	 SCS Same-Spin Energy      =      -0.1132486618861429 [Eh]
	 SCS Opposite-Spin Energy  =      -1.3558747361685024 [Eh]
	 SCS Correlation Energy    =      -1.4691233980546452 [Eh]
	 SCS Total Energy          =    -346.5066307463869180 [Eh]
	-----------------------------------------------------------

  Dipole Moment: [D]
     X:     0.6239      Y:    -1.6370      Z:     0.0000     Total:     1.7519

*** Psi4 exiting successfully. Buy a developer a beer!
