                               Psi4 1.3.2 release

  ==> Input File <==

--------------------------------------------------------------------------
#psi4
#
memory 32 gb

molecule  {
0 1
  O        0.6269417    -0.5722636    -0.0004082
  O       -0.6284610     1.3947560    -0.0020030
  C       -1.6317410    -0.8217520    -0.0044580
  C        1.8458840     0.4351200     0.0004070
  C       -0.5027280     0.1807070    -0.0019040
  C       -2.9987110    -0.1525370     0.0051210
  C        3.0735570    -0.4468320     0.0021160
  H       -1.5041170    -1.4634550    -0.8835050
  H       -1.4975140    -1.4764990     0.8637890
  H        1.7981280     1.0776150    -0.8832090
  H        1.7963140     1.0785080     0.8832640
  H       -3.1225840     0.4871600    -0.8707550
  H       -3.7909030    -0.9055920     0.0019890
  H       -3.1170220     0.4736390     0.8915280
  H        3.9763110     0.1705960     0.0027210
  H        3.0870080    -1.0834370     0.8892710
  H        3.0888280    -1.0843650    -0.8843420
units angstrom
no_reorient  #important for SAPT in psi4, default
symmetry c1  #important for SAPT in psi4, default
}

set PROPERTIES_ORIGIN ["COM"]
properties('MP2/aug-cc-pvtz', properties = ['dipole'])
--------------------------------------------------------------------------

    Molecular point group: c1
  Charge       = 0
  Multiplicity = 1
  Basis Set: AUG-CC-PVTZ
    Blend: AUG-CC-PVTZ
  Basis Set: (AUG-CC-PVTZ AUX)
    Blend: AUG-CC-PVTZ-JKFIT

    Orbital Energies [Eh]
    ---------------------

    Doubly Occupied:

       1A    -20.603333     2A    -20.544213     3A    -11.374128
       4A    -11.303023     5A    -11.234087     6A    -11.229944
       7A    -11.212994     8A     -1.432808     9A     -1.343898
      10A     -1.062481    11A     -1.029510    12A     -0.896289
      13A     -0.842373    14A     -0.759122    15A     -0.684941
      16A     -0.672658    17A     -0.656183    18A     -0.625841
      19A     -0.576817    20A     -0.567811    21A     -0.558355
      22A     -0.529355    23A     -0.516623    24A     -0.511932
      25A     -0.498554    26A     -0.488411    27A     -0.466478
      28A     -0.436464

  @DF-RHF Final Energy:  -345.01968758234500

   => Energetics <=

    Nuclear Repulsion Energy =            310.3790320607991475
    One-Electron Energy =               -1085.4801820944696829
    Two-Electron Energy =                 430.0814624513255922
    Total Energy =                       -345.0196875823450000
  Basis Set: (AUG-CC-PVTZ AUX)
    Blend: AUG-CC-PVTZ-RI
    Molecular point group: c1

    Geometry (in Angstrom), charge = 0, multiplicity = 1:

       Center              X                  Y                   Z               Mass
    ------------   -----------------  -----------------  -----------------  -----------------
         O            0.645254276227    -0.579562728276    -0.000287223773    15.994914619570
         O           -0.610148423773     1.387456871724    -0.001882023773    15.994914619570
         C           -1.613428423773    -0.829051128276    -0.004337023773    12.000000000000
         C            1.864196576227     0.427820871724     0.000527976227    12.000000000000
         C           -0.484415423773     0.173407871724    -0.001783023773    12.000000000000
         C           -2.980398423773    -0.159836128276     0.005241976227    12.000000000000
         C            3.091869576227    -0.454131128276     0.002236976227    12.000000000000
         H           -1.485804423773    -1.470754128276    -0.883384023773     1.007825032230
         H           -1.479201423773    -1.483798128276     0.863909976227     1.007825032230
         H            1.816440576227     1.070315871724    -0.883088023773     1.007825032230
         H            1.814626576227     1.071208871724     0.883384976227     1.007825032230
         H           -3.104271423773     0.479860871724    -0.870634023773     1.007825032230
         H           -3.772590423773    -0.912891128276     0.002109976227     1.007825032230
         H           -3.098709423773     0.466339871724     0.891648976227     1.007825032230
         H            3.994623576227     0.163296871724     0.002841976227     1.007825032230
         H            3.105320576227    -1.090736128276     0.889391976227     1.007825032230
         H            3.107140576227    -1.091664128276    -0.884221023773     1.007825032230

  Basis Set: AUG-CC-PVTZ
    Blend: AUG-CC-PVTZ
  Basis Set: (AUG-CC-PVTZ AUX)
    Blend: AUG-CC-PVTZ-JKFIT
	 Reference Energy          =    -345.0196875823450000 [Eh]
	 Singles Energy            =      -0.0000000000000000 [Eh]
	 Same-Spin Energy          =      -0.3413025901143613 [Eh]
	 Opposite-Spin Energy      =      -1.1351594115717365 [Eh]
	 Correlation Energy        =      -1.4764620016860976 [Eh]
	 Total Energy              =    -346.4961495840311159 [Eh]

	 ================> DF-SCS-MP2 Energies <==================
	-----------------------------------------------------------
	 SCS Same-Spin Scale       =       0.3333333333333333 [-]
	 SCS Opposite-Spin Scale   =       1.2000000000000000 [-]
	 SCS Same-Spin Energy      =      -0.1137675300381204 [Eh]
	 SCS Opposite-Spin Energy  =      -1.3621912938860838 [Eh]
	 SCS Correlation Energy    =      -1.4759588239242043 [Eh]
	 SCS Total Energy          =    -346.4956464062692021 [Eh]
	-----------------------------------------------------------

  Dipole Moment: [D]
     X:     1.3567      Y:    -1.2934      Z:    -0.0008     Total:     1.8744

*** Psi4 exiting successfully. Buy a developer a beer!
