                               Psi4 1.4a3.dev225

  ==> Input File <==

--------------------------------------------------------------------------
#psi4
#
memory 32 gb

molecule  {
0 1
  O        0.6994210    -0.4500590     0.0000070
  O       -0.6284480     1.3945490     0.0000020
  C       -1.6317860    -0.8218820     0.0000110
  C        1.8301373     0.4230842     0.0000040
  C       -0.5026520     0.1804990     0.0000050
  C       -2.9986830    -0.1522840    -0.0000150
  C        3.0735530    -0.4467850    -0.0000110
  H       -1.5010890    -1.4699950    -0.8737300
  H       -1.5011070    -1.4699580     0.8737830
  H        1.7972070     1.0780770    -0.8832610
  H        1.7972200     1.0780650     0.8832780
  H       -3.1198680     0.4807080    -0.8811490
  H       -3.7908920    -0.9053640    -0.0000550
  H       -3.1199230     0.4806680     0.8811400
  H        3.9762390     0.1706970    -0.0000130
  H        3.0880200    -1.0839810     0.8867310
  H        3.0880080    -1.0839670    -0.8867630
units angstrom
no_reorient  #important for SAPT in psi4, default
symmetry c1  #important for SAPT in psi4, default
}

set PROPERTIES_ORIGIN ["COM"]
properties('MP2/aug-cc-pvtz', properties = ['dipole'])
--------------------------------------------------------------------------

    Molecular point group: c1
  Charge       = 0
  Multiplicity = 1
  Basis Set: AUG-CC-PVTZ
    Blend: AUG-CC-PVTZ
  Basis Set: (AUG-CC-PVTZ AUX)
    Blend: AUG-CC-PVTZ-JKFIT

    Orbital Energies [Eh]
    ---------------------

    Doubly Occupied:

       1A    -20.601616     2A    -20.543956     3A    -11.378983
       4A    -11.286884     5A    -11.245160     6A    -11.223691
       7A    -11.220061     8A     -1.454429     9A     -1.353055
      10A     -1.069801    11A     -1.027272    12A     -0.908219
      13A     -0.841707    14A     -0.771955    15A     -0.696288
      16A     -0.684372    17A     -0.662625    18A     -0.628119
      19A     -0.582599    20A     -0.567905    21A     -0.556903
      22A     -0.521950    23A     -0.520315    24A     -0.510889
      25A     -0.507387    26A     -0.491060    27A     -0.455886
      28A     -0.445035

  @DF-RHF Final Energy:  -345.03893556061990

   => Energetics <=

    Nuclear Repulsion Energy =            312.4811496924096446
    One-Electron Energy =               -1089.5239269408075415
    Two-Electron Energy =                 432.0038416877779923
    Total Energy =                       -345.0389355606199047
  Basis Set: (AUG-CC-PVTZ AUX)
    Blend: AUG-CC-PVTZ-RI
    Molecular point group: c1

    Geometry (in Angstrom), charge = 0, multiplicity = 1:

       Center              X                  Y                   Z               Mass
    ------------   -----------------  -----------------  -----------------  -----------------
         O            0.708224542725    -0.475064366182     0.000006680125    15.994914619570
         O           -0.619644457275     1.369543633818     0.000001680125    15.994914619570
         C           -1.622982457275    -0.846887366182     0.000010680125    12.000000000000
         C            1.838940842725     0.398078833818     0.000003680125    12.000000000000
         C           -0.493848457275     0.155493633818     0.000004680125    12.000000000000
         C           -2.989879457275    -0.177289366182    -0.000015319875    12.000000000000
         C            3.082356542725    -0.471790366182    -0.000011319875    12.000000000000
         H           -1.492285457275    -1.495000366182    -0.873730319875     1.007825032230
         H           -1.492303457275    -1.494963366182     0.873782680125     1.007825032230
         H            1.806010542725     1.053071633818    -0.883261319875     1.007825032230
         H            1.806023542725     1.053059633818     0.883277680125     1.007825032230
         H           -3.111064457275     0.455702633818    -0.881149319875     1.007825032230
         H           -3.782088457275    -0.930369366182    -0.000055319875     1.007825032230
         H           -3.111119457275     0.455662633818     0.881139680125     1.007825032230
         H            3.985042542725     0.145691633818    -0.000013319875     1.007825032230
         H            3.096823542725    -1.108986366182     0.886730680125     1.007825032230
         H            3.096811542725    -1.108972366182    -0.886763319875     1.007825032230

  Basis Set: AUG-CC-PVTZ
    Blend: AUG-CC-PVTZ
  Basis Set: (AUG-CC-PVTZ AUX)
    Blend: AUG-CC-PVTZ-JKFIT
	 Reference Energy          =    -345.0389355606199047 [Eh]
	 Singles Energy            =      -0.0000000000000000 [Eh]
	 Same-Spin Energy          =      -0.3397441180593333 [Eh]
	 Opposite-Spin Energy      =      -1.1301245787796526 [Eh]
	 Correlation Energy        =      -1.4698686968389858 [Eh]
	 Total Energy              =    -346.5088042574589053 [Eh]

	 ================> DF-SCS-MP2 Energies <==================
	-----------------------------------------------------------
	 SCS Same-Spin Scale       =       0.3333333333333333 [-]
	 SCS Opposite-Spin Scale   =       1.2000000000000000 [-]
	 SCS Same-Spin Energy      =      -0.1132480393531111 [Eh]
	 SCS Opposite-Spin Energy  =      -1.3561494945355830 [Eh]
	 SCS Correlation Energy    =      -1.4693975338886940 [Eh]
	 SCS Total Energy          =    -346.5083330945086004 [Eh]
	-----------------------------------------------------------

  Dipole Moment: [D]
     X:     0.7556      Y:    -1.6026      Z:     0.0000     Total:     1.7718

*** Psi4 exiting successfully. Buy a developer a beer!
