                               Psi4 1.4a3.dev225

  ==> Input File <==

--------------------------------------------------------------------------
#psi4
#
memory 32 gb

molecule  {
0 1
  O        0.6994210    -0.4500590     0.0000070
  O       -0.6284480     1.3945490     0.0000020
  C       -1.6317860    -0.8218820     0.0000110
  C        1.8459670     0.4353080     0.0000040
  C       -0.5047133     0.2003925     0.0000050
  C       -2.9986830    -0.1522840    -0.0000150
  C        3.0735530    -0.4467850    -0.0000110
  H       -1.5010890    -1.4699950    -0.8737300
  H       -1.5011070    -1.4699580     0.8737830
  H        1.7972070     1.0780770    -0.8832610
  H        1.7972200     1.0780650     0.8832780
  H       -3.1198680     0.4807080    -0.8811490
  H       -3.7908920    -0.9053640    -0.0000550
  H       -3.1199230     0.4806680     0.8811400
  H        3.9762390     0.1706970    -0.0000130
  H        3.0880200    -1.0839810     0.8867310
  H        3.0880080    -1.0839670    -0.8867630
units angstrom
no_reorient  #important for SAPT in psi4, default
symmetry c1  #important for SAPT in psi4, default
}

set PROPERTIES_ORIGIN ["COM"]
properties('MP2/aug-cc-pvtz', properties = ['dipole'])
--------------------------------------------------------------------------

    Molecular point group: c1
  Charge       = 0
  Multiplicity = 1
  Basis Set: AUG-CC-PVTZ
    Blend: AUG-CC-PVTZ
  Basis Set: (AUG-CC-PVTZ AUX)
    Blend: AUG-CC-PVTZ-JKFIT

    Orbital Energies [Eh]
    ---------------------

    Doubly Occupied:

       1A    -20.596319     2A    -20.546479     3A    -11.376128
       4A    -11.285921     5A    -11.243748     6A    -11.223466
       7A    -11.219056     8A     -1.450899     9A     -1.358696
      10A     -1.066367    11A     -1.027032    12A     -0.903822
      13A     -0.840453    14A     -0.767878    15A     -0.696581
      16A     -0.681563    17A     -0.662786    18A     -0.627686
      19A     -0.581955    20A     -0.568354    21A     -0.556016
      22A     -0.523054    23A     -0.517712    24A     -0.512043
      25A     -0.509854    26A     -0.493877    27A     -0.458159
      28A     -0.443237

  @DF-RHF Final Energy:  -345.03961164409469

   => Energetics <=

    Nuclear Repulsion Energy =            312.2491254769852844
    One-Electron Energy =               -1089.0991976221262121
    Two-Electron Energy =                 431.8104605010462933
    Total Energy =                       -345.0396116440946912
  Basis Set: (AUG-CC-PVTZ AUX)
    Blend: AUG-CC-PVTZ-RI
    Molecular point group: c1

    Geometry (in Angstrom), charge = 0, multiplicity = 1:

       Center              X                  Y                   Z               Mass
    ------------   -----------------  -----------------  -----------------  -----------------
         O            0.706605811378    -0.478840351796     0.000006680125    15.994914619570
         O           -0.621263188622     1.365767648204     0.000001680125    15.994914619570
         C           -1.624601188622    -0.850663351796     0.000010680125    12.000000000000
         C            1.853151811378     0.406526648204     0.000003680125    12.000000000000
         C           -0.497528488622     0.171611148204     0.000004680125    12.000000000000
         C           -2.991498188622    -0.181065351796    -0.000015319875    12.000000000000
         C            3.080737811378    -0.475566351796    -0.000011319875    12.000000000000
         H           -1.493904188622    -1.498776351796    -0.873730319875     1.007825032230
         H           -1.493922188622    -1.498739351796     0.873782680125     1.007825032230
         H            1.804391811378     1.049295648204    -0.883261319875     1.007825032230
         H            1.804404811378     1.049283648204     0.883277680125     1.007825032230
         H           -3.112683188622     0.451926648204    -0.881149319875     1.007825032230
         H           -3.783707188622    -0.934145351796    -0.000055319875     1.007825032230
         H           -3.112738188622     0.451886648204     0.881139680125     1.007825032230
         H            3.983423811378     0.141915648204    -0.000013319875     1.007825032230
         H            3.095204811378    -1.112762351796     0.886730680125     1.007825032230
         H            3.095192811378    -1.112748351796    -0.886763319875     1.007825032230

  Basis Set: AUG-CC-PVTZ
    Blend: AUG-CC-PVTZ
  Basis Set: (AUG-CC-PVTZ AUX)
    Blend: AUG-CC-PVTZ-JKFIT
	 Reference Energy          =    -345.0396116440946912 [Eh]
	 Singles Energy            =      -0.0000000000000000 [Eh]
	 Same-Spin Energy          =      -0.3394248245250865 [Eh]
	 Opposite-Spin Energy      =      -1.1297282447383707 [Eh]
	 Correlation Energy        =      -1.4691530692634573 [Eh]
	 Total Energy              =    -346.5087647133581754 [Eh]

	 ================> DF-SCS-MP2 Energies <==================
	-----------------------------------------------------------
	 SCS Same-Spin Scale       =       0.3333333333333333 [-]
	 SCS Opposite-Spin Scale   =       1.2000000000000000 [-]
	 SCS Same-Spin Energy      =      -0.1131416081750288 [Eh]
	 SCS Opposite-Spin Energy  =      -1.3556738936860449 [Eh]
	 SCS Correlation Energy    =      -1.4688155018610738 [Eh]
	 SCS Total Energy          =    -346.5084271459557499 [Eh]
	-----------------------------------------------------------

  Dipole Moment: [D]
     X:     0.7747      Y:    -1.4625      Z:     0.0000     Total:     1.6550

*** Psi4 exiting successfully. Buy a developer a beer!
