                               Psi4 1.4a3.dev225

  ==> Input File <==

--------------------------------------------------------------------------
#psi4
#
memory 32 gb

molecule  {
0 1
  O        0.6994210    -0.4500590     0.0000070
  O       -0.6284480     1.3945490     0.0000020
  C       -1.6317860    -0.8218820     0.0000110
  C        1.8459670     0.4353080     0.0000040
  C       -0.5203632     0.1897896     0.0000050
  C       -2.9986830    -0.1522840    -0.0000150
  C        3.0735530    -0.4467850    -0.0000110
  H       -1.5010890    -1.4699950    -0.8737300
  H       -1.5011070    -1.4699580     0.8737830
  H        1.7972070     1.0780770    -0.8832610
  H        1.7972200     1.0780650     0.8832780
  H       -3.1198680     0.4807080    -0.8811490
  H       -3.7908920    -0.9053640    -0.0000550
  H       -3.1199230     0.4806680     0.8811400
  H        3.9762390     0.1706970    -0.0000130
  H        3.0880200    -1.0839810     0.8867310
  H        3.0880080    -1.0839670    -0.8867630
units angstrom
no_reorient  #important for SAPT in psi4, default
symmetry c1  #important for SAPT in psi4, default
}

set PROPERTIES_ORIGIN ["COM"]
properties('MP2/aug-cc-pvtz', properties = ['dipole'])
--------------------------------------------------------------------------

    Molecular point group: c1
  Charge       = 0
  Multiplicity = 1
  Basis Set: AUG-CC-PVTZ
    Blend: AUG-CC-PVTZ
  Basis Set: (AUG-CC-PVTZ AUX)
    Blend: AUG-CC-PVTZ-JKFIT

    Orbital Energies [Eh]
    ---------------------

    Doubly Occupied:

       1A    -20.594294     2A    -20.546252     3A    -11.377702
       4A    -11.284890     5A    -11.245055     6A    -11.222733
       7A    -11.220429     8A     -1.445748     9A     -1.352702
      10A     -1.070098    11A     -1.026686    12A     -0.906155
      13A     -0.840550    14A     -0.765762    15A     -0.696975
      16A     -0.679809    17A     -0.660787    18A     -0.629279
      19A     -0.580997    20A     -0.566488    21A     -0.555951
      22A     -0.523747    23A     -0.518373    24A     -0.511854
      25A     -0.508397    26A     -0.493345    27A     -0.455966
      28A     -0.445256

  @DF-RHF Final Energy:  -345.03857819274117

   => Energetics <=

    Nuclear Repulsion Energy =            312.1183616949322754
    One-Electron Energy =               -1088.8613236730946028
    Two-Electron Energy =                 431.7043837854212143
    Total Energy =                       -345.0385781927411699
  Basis Set: (AUG-CC-PVTZ AUX)
    Blend: AUG-CC-PVTZ-RI
    Molecular point group: c1

    Geometry (in Angstrom), charge = 0, multiplicity = 1:

       Center              X                  Y                   Z               Mass
    ------------   -----------------  -----------------  -----------------  -----------------
         O            0.708445748024    -0.477593783813     0.000006680125    15.994914619570
         O           -0.619423251976     1.367014216187     0.000001680125    15.994914619570
         C           -1.622761251976    -0.849416783813     0.000010680125    12.000000000000
         C            1.854991748024     0.407773216187     0.000003680125    12.000000000000
         C           -0.511338451976     0.162254816187     0.000004680125    12.000000000000
         C           -2.989658251976    -0.179818783813    -0.000015319875    12.000000000000
         C            3.082577748024    -0.474319783813    -0.000011319875    12.000000000000
         H           -1.492064251976    -1.497529783813    -0.873730319875     1.007825032230
         H           -1.492082251976    -1.497492783813     0.873782680125     1.007825032230
         H            1.806231748024     1.050542216187    -0.883261319875     1.007825032230
         H            1.806244748024     1.050530216187     0.883277680125     1.007825032230
         H           -3.110843251976     0.453173216187    -0.881149319875     1.007825032230
         H           -3.781867251976    -0.932898783813    -0.000055319875     1.007825032230
         H           -3.110898251976     0.453133216187     0.881139680125     1.007825032230
         H            3.985263748024     0.143162216187    -0.000013319875     1.007825032230
         H            3.097044748024    -1.111515783813     0.886730680125     1.007825032230
         H            3.097032748024    -1.111501783813    -0.886763319875     1.007825032230

  Basis Set: AUG-CC-PVTZ
    Blend: AUG-CC-PVTZ
  Basis Set: (AUG-CC-PVTZ AUX)
    Blend: AUG-CC-PVTZ-JKFIT
	 Reference Energy          =    -345.0385781927411699 [Eh]
	 Singles Energy            =      -0.0000000000000000 [Eh]
	 Same-Spin Energy          =      -0.3397746986900585 [Eh]
	 Opposite-Spin Energy      =      -1.1303781097585126 [Eh]
	 Correlation Energy        =      -1.4701528084485711 [Eh]
	 Total Energy              =    -346.5087310011897443 [Eh]

	 ================> DF-SCS-MP2 Energies <==================
	-----------------------------------------------------------
	 SCS Same-Spin Scale       =       0.3333333333333333 [-]
	 SCS Opposite-Spin Scale   =       1.2000000000000000 [-]
	 SCS Same-Spin Energy      =      -0.1132582328966862 [Eh]
	 SCS Opposite-Spin Energy  =      -1.3564537317102150 [Eh]
	 SCS Correlation Energy    =      -1.4697119646069012 [Eh]
	 SCS Total Energy          =    -346.5082901573480854 [Eh]
	-----------------------------------------------------------

  Dipole Moment: [D]
     X:     0.6581      Y:    -1.5163      Z:     0.0000     Total:     1.6530

*** Psi4 exiting successfully. Buy a developer a beer!
