                               Psi4 1.3.2 release

  ==> Input File <==

--------------------------------------------------------------------------
#psi4
#
memory 32 gb

molecule  {
0 1
  O        0.6916131    -0.4395149    -0.0218966
  O       -0.6284610     1.3947560    -0.0020030
  C       -1.6317410    -0.8217520    -0.0044580
  C        1.8458840     0.4351200     0.0004070
  C       -0.5027280     0.1807070    -0.0019040
  C       -2.9987110    -0.1525370     0.0051210
  C        3.0735570    -0.4468320     0.0021160
  H       -1.5041170    -1.4634550    -0.8835050
  H       -1.4975140    -1.4764990     0.8637890
  H        1.7981280     1.0776150    -0.8832090
  H        1.7963140     1.0785080     0.8832640
  H       -3.1225840     0.4871600    -0.8707550
  H       -3.7909030    -0.9055920     0.0019890
  H       -3.1170220     0.4736390     0.8915280
  H        3.9763110     0.1705960     0.0027210
  H        3.0870080    -1.0834370     0.8892710
  H        3.0888280    -1.0843650    -0.8843420
units angstrom
no_reorient  #important for SAPT in psi4, default
symmetry c1  #important for SAPT in psi4, default
}

set PROPERTIES_ORIGIN ["COM"]
properties('MP2/aug-cc-pvtz', properties = ['dipole'])
--------------------------------------------------------------------------

    Molecular point group: c1
  Charge       = 0
  Multiplicity = 1
  Basis Set: AUG-CC-PVTZ
    Blend: AUG-CC-PVTZ
  Basis Set: (AUG-CC-PVTZ AUX)
    Blend: AUG-CC-PVTZ-JKFIT

    Orbital Energies [Eh]
    ---------------------

    Doubly Occupied:

       1A    -20.599602     2A    -20.540140     3A    -11.375933
       4A    -11.288249     5A    -11.243767     6A    -11.225228
       7A    -11.219010     8A     -1.453105     9A     -1.349025
      10A     -1.069269    11A     -1.029823    12A     -0.907312
      13A     -0.843205    14A     -0.770342    15A     -0.694240
      16A     -0.684336    17A     -0.661044    18A     -0.628171
      19A     -0.580403    20A     -0.569087    21A     -0.557787
      22A     -0.521495    23A     -0.519432    24A     -0.511254
      25A     -0.509063    26A     -0.490755    27A     -0.456244
      28A     -0.442929

  @DF-RHF Final Energy:  -345.03976497732128

   => Energetics <=

    Nuclear Repulsion Energy =            312.4374045221889560
    One-Electron Energy =               -1089.4738385820101030
    Two-Electron Energy =                 431.9966690824999205
    Total Energy =                       -345.0397649773212834
  Basis Set: (AUG-CC-PVTZ AUX)
    Blend: AUG-CC-PVTZ-RI
    Molecular point group: c1

    Geometry (in Angstrom), charge = 0, multiplicity = 1:

       Center              X                  Y                   Z               Mass
    ------------   -----------------  -----------------  -----------------  -----------------
         O            0.699791131463    -0.467616850584    -0.018408213268    15.994914619570
         O           -0.620282968537     1.366654049416     0.001485386732    15.994914619570
         C           -1.623562968537    -0.849853950584    -0.000969613268    12.000000000000
         C            1.854062031463     0.407018049416     0.003895386732    12.000000000000
         C           -0.494549968537     0.152605049416     0.001584386732    12.000000000000
         C           -2.990532968537    -0.180638950584     0.008609386732    12.000000000000
         C            3.081735031463    -0.474933950584     0.005604386732    12.000000000000
         H           -1.495938968537    -1.491556950584    -0.880016613268     1.007825032230
         H           -1.489335968537    -1.504600950584     0.867277386732     1.007825032230
         H            1.806306031463     1.049513049416    -0.879720613268     1.007825032230
         H            1.804492031463     1.050406049416     0.886752386732     1.007825032230
         H           -3.114405968537     0.459058049416    -0.867266613268     1.007825032230
         H           -3.782724968537    -0.933693950584     0.005477386732     1.007825032230
         H           -3.108843968537     0.445537049416     0.895016386732     1.007825032230
         H            3.984489031463     0.142494049416     0.006209386732     1.007825032230
         H            3.095186031463    -1.111538950584     0.892759386732     1.007825032230
         H            3.097006031463    -1.112466950584    -0.880853613268     1.007825032230

  Basis Set: AUG-CC-PVTZ
    Blend: AUG-CC-PVTZ
  Basis Set: (AUG-CC-PVTZ AUX)
    Blend: AUG-CC-PVTZ-JKFIT
	 Reference Energy          =    -345.0397649773212834 [Eh]
	 Singles Energy            =      -0.0000000000000000 [Eh]
	 Same-Spin Energy          =      -0.3395901324432996 [Eh]
	 Opposite-Spin Energy      =      -1.1297922752563880 [Eh]
	 Correlation Energy        =      -1.4693824076996878 [Eh]
	 Total Energy              =    -346.5091473850209809 [Eh]

	 ================> DF-SCS-MP2 Energies <==================
	-----------------------------------------------------------
	 SCS Same-Spin Scale       =       0.3333333333333333 [-]
	 SCS Opposite-Spin Scale   =       1.2000000000000000 [-]
	 SCS Same-Spin Energy      =      -0.1131967108144332 [Eh]
	 SCS Opposite-Spin Energy  =      -1.3557507303076657 [Eh]
	 SCS Correlation Energy    =      -1.4689474411220989 [Eh]
	 SCS Total Energy          =    -346.5087124184433947 [Eh]
	-----------------------------------------------------------

  Dipole Moment: [D]
     X:     0.9176      Y:    -1.6200      Z:     0.0245     Total:     1.8620

*** Psi4 exiting successfully. Buy a developer a beer!
