                               Psi4 1.3.2 release

  ==> Input File <==

--------------------------------------------------------------------------
#psi4
#
memory 32 gb

molecule  {
0 1
  O        0.6994600    -0.4500560    -0.0003020
  O       -0.6284610     1.3947560    -0.0020030
  C       -1.6317410    -0.8217520    -0.0044580
  C        1.8458840     0.4351200     0.0004070
  C       -0.3531735     0.3134976    -0.0015657
  C       -2.9987110    -0.1525370     0.0051210
  C        3.0735570    -0.4468320     0.0021160
  H       -1.5041170    -1.4634550    -0.8835050
  H       -1.4975140    -1.4764990     0.8637890
  H        1.7981280     1.0776150    -0.8832090
  H        1.7963140     1.0785080     0.8832640
  H       -3.1225840     0.4871600    -0.8707550
  H       -3.7909030    -0.9055920     0.0019890
  H       -3.1170220     0.4736390     0.8915280
  H        3.9763110     0.1705960     0.0027210
  H        3.0870080    -1.0834370     0.8892710
  H        3.0888280    -1.0843650    -0.8843420
units angstrom
no_reorient  #important for SAPT in psi4, default
symmetry c1  #important for SAPT in psi4, default
}

set PROPERTIES_ORIGIN ["COM"]
properties('MP2/aug-cc-pvtz', properties = ['dipole'])
--------------------------------------------------------------------------

    Molecular point group: c1
  Charge       = 0
  Multiplicity = 1
  Basis Set: AUG-CC-PVTZ
    Blend: AUG-CC-PVTZ
  Basis Set: (AUG-CC-PVTZ AUX)
    Blend: AUG-CC-PVTZ-JKFIT

    Orbital Energies [Eh]
    ---------------------

    Doubly Occupied:

       1A    -20.616517     2A    -20.555958     3A    -11.370073
       4A    -11.296878     5A    -11.230982     6A    -11.222275
       7A    -11.204977     8A     -1.501954     9A     -1.423061
      10A     -1.054494    11A     -1.012757    12A     -0.890698
      13A     -0.831245    14A     -0.789762    15A     -0.708792
      16A     -0.705612    17A     -0.679513    18A     -0.618819
      19A     -0.592304    20A     -0.580512    21A     -0.559046
      22A     -0.529816    23A     -0.529136    24A     -0.526629
      25A     -0.500909    26A     -0.488634    27A     -0.474172
      28A     -0.392382

  @DF-RHF Final Energy:  -344.99842154226354

   => Energetics <=

    Nuclear Repulsion Energy =            313.6297890673225197
    One-Electron Energy =               -1091.4806026919509350
    Two-Electron Energy =                 432.8523920823649291
    Total Energy =                       -344.9984215422635430
  Basis Set: (AUG-CC-PVTZ AUX)
    Blend: AUG-CC-PVTZ-RI
    Molecular point group: c1

    Geometry (in Angstrom), charge = 0, multiplicity = 1:

       Center              X                  Y                   Z               Mass
    ------------   -----------------  -----------------  -----------------  -----------------
         O            0.688825445748    -0.492118076135    -0.000237439647    15.994914619570
         O           -0.639095554252     1.352693923865    -0.001938439647    15.994914619570
         C           -1.642375554252    -0.863814076135    -0.004393439647    12.000000000000
         C            1.835249445748     0.393057923865     0.000471560353    12.000000000000
         C           -0.363808054252     0.271435523865    -0.001501139647    12.000000000000
         C           -3.009345554252    -0.194599076135     0.005185560353    12.000000000000
         C            3.062922445748    -0.488894076135     0.002180560353    12.000000000000
         H           -1.514751554252    -1.505517076135    -0.883440439647     1.007825032230
         H           -1.508148554252    -1.518561076135     0.863853560353     1.007825032230
         H            1.787493445748     1.035552923865    -0.883144439647     1.007825032230
         H            1.785679445748     1.036445923865     0.883328560353     1.007825032230
         H           -3.133218554252     0.445097923865    -0.870690439647     1.007825032230
         H           -3.801537554252    -0.947654076135     0.002053560353     1.007825032230
         H           -3.127656554252     0.431576923865     0.891592560353     1.007825032230
         H            3.965676445748     0.128533923865     0.002785560353     1.007825032230
         H            3.076373445748    -1.125499076135     0.889335560353     1.007825032230
         H            3.078193445748    -1.126427076135    -0.884277439647     1.007825032230

  Basis Set: AUG-CC-PVTZ
    Blend: AUG-CC-PVTZ
  Basis Set: (AUG-CC-PVTZ AUX)
    Blend: AUG-CC-PVTZ-JKFIT
	 Reference Energy          =    -344.9984215422635430 [Eh]
	 Singles Energy            =      -0.0000000000000000 [Eh]
	 Same-Spin Energy          =      -0.3383667180336062 [Eh]
	 Opposite-Spin Energy      =      -1.1276784698533029 [Eh]
	 Correlation Energy        =      -1.4660451878869092 [Eh]
	 Total Energy              =    -346.4644667301504342 [Eh]

	 ================> DF-SCS-MP2 Energies <==================
	-----------------------------------------------------------
	 SCS Same-Spin Scale       =       0.3333333333333333 [-]
	 SCS Opposite-Spin Scale   =       1.2000000000000000 [-]
	 SCS Same-Spin Energy      =      -0.1127889060112021 [Eh]
	 SCS Opposite-Spin Energy  =      -1.3532141638239634 [Eh]
	 SCS Correlation Energy    =      -1.4660030698351656 [Eh]
	 SCS Total Energy          =    -346.4644246120986963 [Eh]
	-----------------------------------------------------------

  Dipole Moment: [D]
     X:     1.9842      Y:    -0.7604      Z:     0.0008     Total:     2.1249

*** Psi4 exiting successfully. Buy a developer a beer!
