                               Psi4 1.4a3.dev225

  ==> Input File <==

--------------------------------------------------------------------------
#psi4
#
memory 32 gb

molecule  {
0 1
  O        0.6994210    -0.4500590     0.0000070
  O       -0.6284480     1.3945490     0.0000020
  C       -1.6317860    -0.8218820     0.0000110
  C        1.8855413     0.4658674     0.0000039
  C       -0.5026520     0.1804990     0.0000050
  C       -2.9986830    -0.1522840    -0.0000150
  C        3.0735530    -0.4467850    -0.0000110
  H       -1.5010890    -1.4699950    -0.8737300
  H       -1.5011070    -1.4699580     0.8737830
  H        1.7972070     1.0780770    -0.8832610
  H        1.7972200     1.0780650     0.8832780
  H       -3.1198680     0.4807080    -0.8811490
  H       -3.7908920    -0.9053640    -0.0000550
  H       -3.1199230     0.4806680     0.8811400
  H        3.9762390     0.1706970    -0.0000130
  H        3.0880200    -1.0839810     0.8867310
  H        3.0880080    -1.0839670    -0.8867630
units angstrom
no_reorient  #important for SAPT in psi4, default
symmetry c1  #important for SAPT in psi4, default
}

set PROPERTIES_ORIGIN ["COM"]
properties('MP2/aug-cc-pvtz', properties = ['dipole'])
--------------------------------------------------------------------------

    Molecular point group: c1
  Charge       = 0
  Multiplicity = 1
  Basis Set: AUG-CC-PVTZ
    Blend: AUG-CC-PVTZ
  Basis Set: (AUG-CC-PVTZ AUX)
    Blend: AUG-CC-PVTZ-JKFIT

    Orbital Energies [Eh]
    ---------------------

    Doubly Occupied:

       1A    -20.593525     2A    -20.539115     3A    -11.374043
       4A    -11.289281     5A    -11.242046     6A    -11.226216
       7A    -11.217851     8A     -1.438822     9A     -1.341817
      10A     -1.067422    11A     -1.032551    12A     -0.902850
      13A     -0.844749    14A     -0.762891    15A     -0.690204
      16A     -0.680388    17A     -0.655365    18A     -0.629281
      19A     -0.577060    20A     -0.567438    21A     -0.556853
      22A     -0.526677    23A     -0.518016    24A     -0.513500
      25A     -0.506570    26A     -0.491290    27A     -0.457396
      28A     -0.439936

  @DF-RHF Final Energy:  -345.03626295783891

   => Energetics <=

    Nuclear Repulsion Energy =            311.4462636850099102
    One-Electron Energy =               -1087.5987473425532244
    Two-Electron Energy =                 431.1162206997044564
    Total Energy =                       -345.0362629578389146
  Basis Set: (AUG-CC-PVTZ AUX)
    Blend: AUG-CC-PVTZ-RI
    Molecular point group: c1

    Geometry (in Angstrom), charge = 0, multiplicity = 1:

       Center              X                  Y                   Z               Mass
    ------------   -----------------  -----------------  -----------------  -----------------
         O            0.701710772673    -0.480094326599     0.000006691882    15.994914619570
         O           -0.626158227327     1.364513673401     0.000001691882    15.994914619570
         C           -1.629496227327    -0.851917326599     0.000010691882    12.000000000000
         C            1.887831072673     0.435832073401     0.000003591882    12.000000000000
         C           -0.500362227327     0.150463673401     0.000004691882    12.000000000000
         C           -2.996393227327    -0.182319326599    -0.000015308118    12.000000000000
         C            3.075842772673    -0.476820326599    -0.000011308118    12.000000000000
         H           -1.498799227327    -1.500030326599    -0.873730308118     1.007825032230
         H           -1.498817227327    -1.499993326599     0.873782691882     1.007825032230
         H            1.799496772673     1.048041673401    -0.883261308118     1.007825032230
         H            1.799509772673     1.048029673401     0.883277691882     1.007825032230
         H           -3.117578227327     0.450672673401    -0.881149308118     1.007825032230
         H           -3.788602227327    -0.935399326599    -0.000055308118     1.007825032230
         H           -3.117633227327     0.450632673401     0.881139691882     1.007825032230
         H            3.978528772673     0.140661673401    -0.000013308118     1.007825032230
         H            3.090309772673    -1.114016326599     0.886730691882     1.007825032230
         H            3.090297772673    -1.114002326599    -0.886763308118     1.007825032230

  Basis Set: AUG-CC-PVTZ
    Blend: AUG-CC-PVTZ
  Basis Set: (AUG-CC-PVTZ AUX)
    Blend: AUG-CC-PVTZ-JKFIT
	 Reference Energy          =    -345.0362629578389146 [Eh]
	 Singles Energy            =      -0.0000000000000000 [Eh]
	 Same-Spin Energy          =      -0.3399443802892743 [Eh]
	 Opposite-Spin Energy      =      -1.1309780964416609 [Eh]
	 Correlation Energy        =      -1.4709224767309352 [Eh]
	 Total Energy              =    -346.5071854345698625 [Eh]

	 ================> DF-SCS-MP2 Energies <==================
	-----------------------------------------------------------
	 SCS Same-Spin Scale       =       0.3333333333333333 [-]
	 SCS Opposite-Spin Scale   =       1.2000000000000000 [-]
	 SCS Same-Spin Energy      =      -0.1133147934297581 [Eh]
	 SCS Opposite-Spin Energy  =      -1.3571737157299930 [Eh]
	 SCS Correlation Energy    =      -1.4704885091597510 [Eh]
	 SCS Total Energy          =    -346.5067514669986508 [Eh]
	-----------------------------------------------------------

  Dipole Moment: [D]
     X:     1.0560      Y:    -1.5304      Z:     0.0000     Total:     1.8594

*** Psi4 exiting successfully. Buy a developer a beer!
