                               Psi4 1.3.2 release

  ==> Input File <==

--------------------------------------------------------------------------
#psi4
#
memory 32 gb

molecule  {
0 1
  O        0.7161990    -0.4703262     0.0428814
  O       -0.6284610     1.3947560    -0.0020030
  C       -1.6317410    -0.8217520    -0.0044580
  C        1.8458840     0.4351200     0.0004070
  C       -0.5027280     0.1807070    -0.0019040
  C       -2.9987110    -0.1525370     0.0051210
  C        3.0735570    -0.4468320     0.0021160
  H       -1.5041170    -1.4634550    -0.8835050
  H       -1.4975140    -1.4764990     0.8637890
  H        1.7981280     1.0776150    -0.8832090
  H        1.7963140     1.0785080     0.8832640
  H       -3.1225840     0.4871600    -0.8707550
  H       -3.7909030    -0.9055920     0.0019890
  H       -3.1170220     0.4736390     0.8915280
  H        3.9763110     0.1705960     0.0027210
  H        3.0870080    -1.0834370     0.8892710
  H        3.0888280    -1.0843650    -0.8843420
units angstrom
no_reorient  #important for SAPT in psi4, default
symmetry c1  #important for SAPT in psi4, default
}

set PROPERTIES_ORIGIN ["COM"]
properties('MP2/aug-cc-pvtz', properties = ['dipole'])
--------------------------------------------------------------------------

    Molecular point group: c1
  Charge       = 0
  Multiplicity = 1
  Basis Set: AUG-CC-PVTZ
    Blend: AUG-CC-PVTZ
  Basis Set: (AUG-CC-PVTZ AUX)
    Blend: AUG-CC-PVTZ-JKFIT

    Orbital Energies [Eh]
    ---------------------

    Doubly Occupied:

       1A    -20.598724     2A    -20.547689     3A    -11.381119
       4A    -11.285460     5A    -11.245511     6A    -11.222471
       7A    -11.220423     8A     -1.442752     9A     -1.351221
      10A     -1.068661    11A     -1.026529    12A     -0.905411
      13A     -0.840736    14A     -0.767399    15A     -0.695227
      16A     -0.679918    17A     -0.659425    18A     -0.628795
      19A     -0.580754    20A     -0.565719    21A     -0.555435
      22A     -0.522694    23A     -0.518402    24A     -0.511488
      25A     -0.511094    26A     -0.491997    27A     -0.457711
      28A     -0.444714

  @DF-RHF Final Energy:  -345.03604491238389

   => Energetics <=

    Nuclear Repulsion Energy =            311.6391714528712669
    One-Electron Energy =               -1087.8954807516340679
    Two-Electron Energy =                 431.2202643863788580
    Total Energy =                       -345.0360449123838862
  Basis Set: (AUG-CC-PVTZ AUX)
    Blend: AUG-CC-PVTZ-RI
    Molecular point group: c1

    Geometry (in Angstrom), charge = 0, multiplicity = 1:

       Center              X                  Y                   Z               Mass
    ------------   -----------------  -----------------  -----------------  -----------------
         O            0.720524217017    -0.493599764325     0.036218536864    15.994914619570
         O           -0.624135782983     1.371482435675    -0.008665863136    15.994914619570
         C           -1.627415782983    -0.845025564325    -0.011120863136    12.000000000000
         C            1.850209217017     0.411846435675    -0.006255863136    12.000000000000
         C           -0.498402782983     0.157433435675    -0.008566863136    12.000000000000
         C           -2.994385782983    -0.175810564325    -0.001541863136    12.000000000000
         C            3.077882217017    -0.470105564325    -0.004546863136    12.000000000000
         H           -1.499791782983    -1.486728564325    -0.890167863136     1.007825032230
         H           -1.493188782983    -1.499772564325     0.857126136864     1.007825032230
         H            1.802453217017     1.054341435675    -0.889871863136     1.007825032230
         H            1.800639217017     1.055234435675     0.876601136864     1.007825032230
         H           -3.118258782983     0.463886435675    -0.877417863136     1.007825032230
         H           -3.786577782983    -0.928865564325    -0.004673863136     1.007825032230
         H           -3.112696782983     0.450365435675     0.884865136864     1.007825032230
         H            3.980636217017     0.147322435675    -0.003941863136     1.007825032230
         H            3.091333217017    -1.106710564325     0.882608136864     1.007825032230
         H            3.093153217017    -1.107638564325    -0.891004863136     1.007825032230

  Basis Set: AUG-CC-PVTZ
    Blend: AUG-CC-PVTZ
  Basis Set: (AUG-CC-PVTZ AUX)
    Blend: AUG-CC-PVTZ-JKFIT
	 Reference Energy          =    -345.0360449123838862 [Eh]
	 Singles Energy            =      -0.0000000000000000 [Eh]
	 Same-Spin Energy          =      -0.3401993082603171 [Eh]
	 Opposite-Spin Energy      =      -1.1315304768836900 [Eh]
	 Correlation Energy        =      -1.4717297851440070 [Eh]
	 Total Energy              =    -346.5077746975279069 [Eh]

	 ================> DF-SCS-MP2 Energies <==================
	-----------------------------------------------------------
	 SCS Same-Spin Scale       =       0.3333333333333333 [-]
	 SCS Opposite-Spin Scale   =       1.2000000000000000 [-]
	 SCS Same-Spin Energy      =      -0.1133997694201057 [Eh]
	 SCS Opposite-Spin Energy  =      -1.3578365722604280 [Eh]
	 SCS Correlation Energy    =      -1.4712363416805336 [Eh]
	 SCS Total Energy          =    -346.5072812540644236 [Eh]
	-----------------------------------------------------------

  Dipole Moment: [D]
     X:     0.6740      Y:    -1.5023      Z:    -0.0546     Total:     1.6475

*** Psi4 exiting successfully. Buy a developer a beer!
