                               Psi4 1.3.2 release

  ==> Input File <==

--------------------------------------------------------------------------
#psi4
#
memory 32 gb

molecule  {
0 1
  O        0.6994600    -0.4500560    -0.0003020
  O       -0.6284610     1.3947560    -0.0020030
  C       -1.6317410    -0.8217520    -0.0044580
  C        1.8458840     0.4351200     0.0004070
  C       -0.4041287     0.0572059    -0.0031012
  C       -2.9987110    -0.1525370     0.0051210
  C        3.0735570    -0.4468320     0.0021160
  H       -1.5041170    -1.4634550    -0.8835050
  H       -1.4975140    -1.4764990     0.8637890
  H        1.7981280     1.0776150    -0.8832090
  H        1.7963140     1.0785080     0.8832640
  H       -3.1225840     0.4871600    -0.8707550
  H       -3.7909030    -0.9055920     0.0019890
  H       -3.1170220     0.4736390     0.8915280
  H        3.9763110     0.1705960     0.0027210
  H        3.0870080    -1.0834370     0.8892710
  H        3.0888280    -1.0843650    -0.8843420
units angstrom
no_reorient  #important for SAPT in psi4, default
symmetry c1  #important for SAPT in psi4, default
}

set PROPERTIES_ORIGIN ["COM"]
properties('MP2/aug-cc-pvtz', properties = ['dipole'])
--------------------------------------------------------------------------

    Molecular point group: c1
  Charge       = 0
  Multiplicity = 1
  Basis Set: AUG-CC-PVTZ
    Blend: AUG-CC-PVTZ
  Basis Set: (AUG-CC-PVTZ AUX)
    Blend: AUG-CC-PVTZ-JKFIT

    Orbital Energies [Eh]
    ---------------------

    Doubly Occupied:

       1A    -20.635169     2A    -20.506055     3A    -11.379037
       4A    -11.305909     5A    -11.243957     6A    -11.236086
       7A    -11.216056     8A     -1.518841     9A     -1.266835
      10A     -1.082400    11A     -1.039987    12A     -0.922405
      13A     -0.858691    14A     -0.800587    15A     -0.713345
      16A     -0.681472    17A     -0.670035    18A     -0.628030
      19A     -0.584662    20A     -0.568106    21A     -0.559075
      22A     -0.535120    23A     -0.523178    24A     -0.513346
      25A     -0.491009    26A     -0.486930    27A     -0.420368
      28A     -0.415574

  @DF-RHF Final Energy:  -344.99968976283071

   => Energetics <=

    Nuclear Repulsion Energy =            312.5852983221527097
    One-Electron Energy =               -1089.5654489918224499
    Two-Electron Energy =                 431.9804609068389709
    Total Energy =                       -344.9996897628307124
  Basis Set: (AUG-CC-PVTZ AUX)
    Blend: AUG-CC-PVTZ-RI
    Molecular point group: c1

    Geometry (in Angstrom), charge = 0, multiplicity = 1:

       Center              X                  Y                   Z               Mass
    ------------   -----------------  -----------------  -----------------  -----------------
         O            0.694816176666    -0.461986222835    -0.000056913080    15.994914619570
         O           -0.633104823334     1.382825777165    -0.001757913080    15.994914619570
         C           -1.636384823334    -0.833682222835    -0.004212913080    12.000000000000
         C            1.841240176666     0.423189777165     0.000652086920    12.000000000000
         C           -0.408772523334     0.045275677165    -0.002856113080    12.000000000000
         C           -3.003354823334    -0.164467222835     0.005366086920    12.000000000000
         C            3.068913176666    -0.458762222835     0.002361086920    12.000000000000
         H           -1.508760823334    -1.475385222835    -0.883259913080     1.007825032230
         H           -1.502157823334    -1.488429222835     0.864034086920     1.007825032230
         H            1.793484176666     1.065684777165    -0.882963913080     1.007825032230
         H            1.791670176666     1.066577777165     0.883509086920     1.007825032230
         H           -3.127227823334     0.475229777165    -0.870509913080     1.007825032230
         H           -3.795546823334    -0.917522222835     0.002234086920     1.007825032230
         H           -3.121665823334     0.461708777165     0.891773086920     1.007825032230
         H            3.971667176666     0.158665777165     0.002966086920     1.007825032230
         H            3.082364176666    -1.095367222835     0.889516086920     1.007825032230
         H            3.084184176666    -1.096295222835    -0.884096913080     1.007825032230

  Basis Set: AUG-CC-PVTZ
    Blend: AUG-CC-PVTZ
  Basis Set: (AUG-CC-PVTZ AUX)
    Blend: AUG-CC-PVTZ-JKFIT
	 Reference Energy          =    -344.9996897628307124 [Eh]
	 Singles Energy            =      -0.0000000000000000 [Eh]
	 Same-Spin Energy          =      -0.3412872114459983 [Eh]
	 Opposite-Spin Energy      =      -1.1327247406332523 [Eh]
	 Correlation Energy        =      -1.4740119520792505 [Eh]
	 Total Energy              =    -346.4737017149099643 [Eh]

	 ================> DF-SCS-MP2 Energies <==================
	-----------------------------------------------------------
	 SCS Same-Spin Scale       =       0.3333333333333333 [-]
	 SCS Opposite-Spin Scale   =       1.2000000000000000 [-]
	 SCS Same-Spin Energy      =      -0.1137624038153328 [Eh]
	 SCS Opposite-Spin Energy  =      -1.3592696887599027 [Eh]
	 SCS Correlation Energy    =      -1.4730320925752354 [Eh]
	 SCS Total Energy          =    -346.4727218554059505 [Eh]
	-----------------------------------------------------------

  Dipole Moment: [D]
     X:     1.9912      Y:    -2.3535      Z:    -0.0005     Total:     3.0828

*** Psi4 exiting successfully. Buy a developer a beer!
