                               Psi4 1.3.2 release

  ==> Input File <==

--------------------------------------------------------------------------
#psi4
#
memory 32 gb

molecule  {
0 1
  O        0.2778030     1.6259200     0.3386670
  O        2.1914470    -1.4110830     0.2143760
  O       -2.8041000    -0.0533200    -1.0004000
  O        2.6534740     0.6903680    -0.5128080
  O       -2.2475040    -0.2263980     1.1904210
  C        0.4723530     0.2278750     0.4110270
  C       -0.5475276    -0.4836224    -0.4783440
  C        1.8865440    -0.1140510    -0.0062910
  C       -1.9249390    -0.2389030     0.0159280
  H        0.3131310    -0.0976200     1.4451750
  H       -0.3508850    -1.5764080    -0.4792290
  H       -0.4317560    -0.1356430    -1.5200150
  H        1.0272260     1.9763200    -0.1823570
  H        3.1099360    -1.5361820    -0.1045700
  H       -3.6753880     0.0844680    -0.5728280
units angstrom
no_reorient  #important for SAPT in psi4, default
symmetry c1  #important for SAPT in psi4, default
}

set PROPERTIES_ORIGIN ["COM"]
properties('MP2/aug-cc-pvtz', properties = ['dipole'])
--------------------------------------------------------------------------

    Molecular point group: c1
  Charge       = 0
  Multiplicity = 1
  Basis Set: AUG-CC-PVTZ
    Blend: AUG-CC-PVTZ
  Basis Set: (AUG-CC-PVTZ AUX)
    Blend: AUG-CC-PVTZ-JKFIT

    Orbital Energies [Eh]
    ---------------------

    Doubly Occupied:

       1A    -20.645201     2A    -20.625618     3A    -20.582562
       4A    -20.575161     5A    -20.558827     6A    -11.416767
       7A    -11.401030     8A    -11.323967     9A    -11.270173
      10A     -1.491533    11A     -1.470037    12A     -1.398216
      13A     -1.373345    14A     -1.365613    15A     -1.091001
      16A     -0.974252    17A     -0.847442    18A     -0.809351
      19A     -0.759555    20A     -0.736456    21A     -0.714285
      22A     -0.704494    23A     -0.673034    24A     -0.651392
      25A     -0.648020    26A     -0.627440    27A     -0.598894
      28A     -0.593010    29A     -0.553896    30A     -0.547357
      31A     -0.511481    32A     -0.491196    33A     -0.484241
      34A     -0.469736    35A     -0.463807

  @DF-RHF Final Energy:  -529.52256506636093

   => Energetics <=

    Nuclear Repulsion Energy =            464.5786475230021324
    One-Electron Energy =               -1649.3056447400595061
    Two-Electron Energy =                 655.2044321506965616
    Total Energy =                       -529.5225650663609258
  Basis Set: (AUG-CC-PVTZ AUX)
    Blend: AUG-CC-PVTZ-RI
    Molecular point group: c1

    Geometry (in Angstrom), charge = 0, multiplicity = 1:

       Center              X                  Y                   Z               Mass
    ------------   -----------------  -----------------  -----------------  -----------------
         O            0.279542074449     1.615436059428     0.326983221128    15.994914619570
         O            2.193186074449    -1.421566940572     0.202692221128    15.994914619570
         O           -2.802360925551    -0.063803940572    -1.012083778872    15.994914619570
         O            2.655213074449     0.679884059428    -0.524491778872    15.994914619570
         O           -2.245764925551    -0.236881940572     1.178737221128    15.994914619570
         C            0.474092074449     0.217391059428     0.399343221128    12.000000000000
         C           -0.545788525551    -0.494106340572    -0.490027778872    12.000000000000
         C            1.888283074449    -0.124534940572    -0.017974778872    12.000000000000
         C           -1.923199925551    -0.249386940572     0.004244221128    12.000000000000
         H            0.314870074449    -0.108103940572     1.433491221128     1.007825032230
         H           -0.349145925551    -1.586891940572    -0.490912778872     1.007825032230
         H           -0.430016925551    -0.146126940572    -1.531698778872     1.007825032230
         H            1.028965074449     1.965836059428    -0.194040778872     1.007825032230
         H            3.111675074449    -1.546665940572    -0.116253778872     1.007825032230
         H           -3.673648925551     0.073984059428    -0.584511778872     1.007825032230

  Basis Set: AUG-CC-PVTZ
    Blend: AUG-CC-PVTZ
  Basis Set: (AUG-CC-PVTZ AUX)
    Blend: AUG-CC-PVTZ-JKFIT
	 Reference Energy          =    -529.5225650663609258 [Eh]
	 Singles Energy            =      -0.0000000000000000 [Eh]
	 Same-Spin Energy          =      -0.5055901896757427 [Eh]
	 Opposite-Spin Energy      =      -1.5063866840553479 [Eh]
	 Correlation Energy        =      -2.0119768737310908 [Eh]
	 Total Energy              =    -531.5345419400920264 [Eh]

	 ================> DF-SCS-MP2 Energies <==================
	-----------------------------------------------------------
	 SCS Same-Spin Scale       =       0.3333333333333333 [-]
	 SCS Opposite-Spin Scale   =       1.2000000000000000 [-]
	 SCS Same-Spin Energy      =      -0.1685300632252476 [Eh]
	 SCS Opposite-Spin Energy  =      -1.8076640208664174 [Eh]
	 SCS Correlation Energy    =      -1.9761940840916650 [Eh]
	 SCS Total Energy          =    -531.4987591504525426 [Eh]
	-----------------------------------------------------------

  Dipole Moment: [D]
     X:     0.8887      Y:    -2.1861      Z:    -1.5968     Total:     2.8493

*** Psi4 exiting successfully. Buy a developer a beer!
