                               Psi4 1.3.2 release

  ==> Input File <==

--------------------------------------------------------------------------
#psi4
#
memory 32 gb

molecule  {
0 1
  O        0.2778030     1.6259200     0.3386670
  O        2.1914470    -1.4110830     0.2143760
  O       -2.8041000    -0.0533200    -1.0004000
  O        2.6534740     0.6903680    -0.5128080
  O       -2.2475040    -0.2263980     1.1904210
  C        0.4723530     0.2278750     0.4110270
  C       -0.5274950    -0.4947260    -0.4920330
  C        1.9059298    -0.1743881     0.1389135
  C       -1.9249390    -0.2389030     0.0159280
  H        0.3131310    -0.0976200     1.4451750
  H       -0.3508850    -1.5764080    -0.4792290
  H       -0.4317560    -0.1356430    -1.5200150
  H        1.0272260     1.9763200    -0.1823570
  H        3.1099360    -1.5361820    -0.1045700
  H       -3.6753880     0.0844680    -0.5728280
units angstrom
no_reorient  #important for SAPT in psi4, default
symmetry c1  #important for SAPT in psi4, default
}

set PROPERTIES_ORIGIN ["COM"]
properties('MP2/aug-cc-pvtz', properties = ['dipole'])
--------------------------------------------------------------------------

    Molecular point group: c1
  Charge       = 0
  Multiplicity = 1
  Basis Set: AUG-CC-PVTZ
    Blend: AUG-CC-PVTZ
  Basis Set: (AUG-CC-PVTZ AUX)
    Blend: AUG-CC-PVTZ-JKFIT

    Orbital Energies [Eh]
    ---------------------

    Doubly Occupied:

       1A    -20.668422     2A    -20.626249     3A    -20.574014
       4A    -20.562732     5A    -20.559625     6A    -11.422809
       7A    -11.402759     8A    -11.325369     9A    -11.272066
      10A     -1.525571    11A     -1.470055    12A     -1.386907
      13A     -1.366437    14A     -1.328441    15A     -1.090625
      16A     -0.981299    17A     -0.868702    18A     -0.816032
      19A     -0.761721    20A     -0.740347    21A     -0.714397
      22A     -0.705505    23A     -0.673759    24A     -0.665112
      25A     -0.644750    26A     -0.619161    27A     -0.596388
      28A     -0.589672    29A     -0.560441    30A     -0.530995
      31A     -0.490693    32A     -0.480664    33A     -0.473138
      34A     -0.467707    35A     -0.462350

  @DF-RHF Final Energy:  -529.49587768748870

   => Energetics <=

    Nuclear Repulsion Energy =            463.6527762856593426
    One-Electron Energy =               -1647.4474830620752073
    Two-Electron Energy =                 654.2988290889270502
    Total Energy =                       -529.4958776874887008
  Basis Set: (AUG-CC-PVTZ AUX)
    Blend: AUG-CC-PVTZ-RI
    Molecular point group: c1

    Geometry (in Angstrom), charge = 0, multiplicity = 1:

       Center              X                  Y                   Z               Mass
    ------------   -----------------  -----------------  -----------------  -----------------
         O            0.276012635382     1.621832706615     0.315207605083    15.994914619570
         O            2.189656635382    -1.415170293385     0.190916605083    15.994914619570
         O           -2.805890364618    -0.057407293385    -1.023859394917    15.994914619570
         O            2.651683635382     0.686280706615    -0.536267394917    15.994914619570
         O           -2.249294364618    -0.230485293385     1.166961605083    15.994914619570
         C            0.470562635382     0.223787706615     0.387567605083    12.000000000000
         C           -0.529285364618    -0.498813293385    -0.515492394917    12.000000000000
         C            1.904139435382    -0.178475393385     0.115454105083    12.000000000000
         C           -1.926729364618    -0.242990293385    -0.007531394917    12.000000000000
         H            0.311340635382    -0.101707293385     1.421715605083     1.007825032230
         H           -0.352675364618    -1.580495293385    -0.502688394917     1.007825032230
         H           -0.433546364618    -0.139730293385    -1.543474394917     1.007825032230
         H            1.025435635382     1.972232706615    -0.205816394917     1.007825032230
         H            3.108145635382    -1.540269293385    -0.128029394917     1.007825032230
         H           -3.677178364618     0.080380706615    -0.596287394917     1.007825032230

  Basis Set: AUG-CC-PVTZ
    Blend: AUG-CC-PVTZ
  Basis Set: (AUG-CC-PVTZ AUX)
    Blend: AUG-CC-PVTZ-JKFIT
	 Reference Energy          =    -529.4958776874887008 [Eh]
	 Singles Energy            =      -0.0000000000000000 [Eh]
	 Same-Spin Energy          =      -0.5073177399314439 [Eh]
	 Opposite-Spin Energy      =      -1.5096401087457361 [Eh]
	 Correlation Energy        =      -2.0169578486771798 [Eh]
	 Total Energy              =    -531.5128355361658805 [Eh]

	 ================> DF-SCS-MP2 Energies <==================
	-----------------------------------------------------------
	 SCS Same-Spin Scale       =       0.3333333333333333 [-]
	 SCS Opposite-Spin Scale   =       1.2000000000000000 [-]
	 SCS Same-Spin Energy      =      -0.1691059133104813 [Eh]
	 SCS Opposite-Spin Energy  =      -1.8115681304948832 [Eh]
	 SCS Correlation Energy    =      -1.9806740438053645 [Eh]
	 SCS Total Energy          =    -531.4765517312940801 [Eh]
	-----------------------------------------------------------

  Dipole Moment: [D]
     X:     0.7926      Y:    -2.8425      Z:    -1.2870     Total:     3.2194

*** Psi4 exiting successfully. Buy a developer a beer!
