                               Psi4 1.3.2 release

  ==> Input File <==

--------------------------------------------------------------------------
#psi4
#
memory 32 gb

molecule  {
0 1
  O        0.2778030     1.6259200     0.3386670
  O        2.1914470    -1.4110830     0.2143760
  O       -2.8041000    -0.0533200    -1.0004000
  O        2.6534740     0.6903680    -0.5128080
  O       -2.2475040    -0.2263980     1.1904210
  C        0.4309420     0.2243585     0.4376079
  C       -0.5274950    -0.4947260    -0.4920330
  C        1.8865440    -0.1140510    -0.0062910
  C       -1.9249390    -0.2389030     0.0159280
  H        0.3131310    -0.0976200     1.4451750
  H       -0.3508850    -1.5764080    -0.4792290
  H       -0.4317560    -0.1356430    -1.5200150
  H        1.0272260     1.9763200    -0.1823570
  H        3.1099360    -1.5361820    -0.1045700
  H       -3.6753880     0.0844680    -0.5728280
units angstrom
no_reorient  #important for SAPT in psi4, default
symmetry c1  #important for SAPT in psi4, default
}

set PROPERTIES_ORIGIN ["COM"]
properties('MP2/aug-cc-pvtz', properties = ['dipole'])
--------------------------------------------------------------------------

    Molecular point group: c1
  Charge       = 0
  Multiplicity = 1
  Basis Set: AUG-CC-PVTZ
    Blend: AUG-CC-PVTZ
  Basis Set: (AUG-CC-PVTZ AUX)
    Blend: AUG-CC-PVTZ-JKFIT

    Orbital Energies [Eh]
    ---------------------

    Doubly Occupied:

       1A    -20.643854     2A    -20.625594     3A    -20.581635
       4A    -20.573858     5A    -20.559566     6A    -11.415462
       7A    -11.401698     8A    -11.324516     9A    -11.269133
      10A     -1.489224    11A     -1.469725    12A     -1.395922
      13A     -1.372378    14A     -1.365576    15A     -1.090890
      16A     -0.964254    17A     -0.846819    18A     -0.813243
      19A     -0.754105    20A     -0.735429    21A     -0.714385
      22A     -0.703289    23A     -0.674206    24A     -0.652424
      25A     -0.648718    26A     -0.628293    27A     -0.602768
      28A     -0.589331    29A     -0.561147    30A     -0.541884
      31A     -0.510559    32A     -0.490904    33A     -0.481645
      34A     -0.473967    35A     -0.460068

  @DF-RHF Final Energy:  -529.52132819369433

   => Energetics <=

    Nuclear Repulsion Energy =            464.1083655149982974
    One-Electron Energy =               -1648.4064490667178688
    Two-Electron Energy =                 654.7767553580252979
    Total Energy =                       -529.5213281936943304
  Basis Set: (AUG-CC-PVTZ AUX)
    Blend: AUG-CC-PVTZ-RI
    Molecular point group: c1

    Geometry (in Angstrom), charge = 0, multiplicity = 1:

       Center              X                  Y                   Z               Mass
    ------------   -----------------  -----------------  -----------------  -----------------
         O            0.281456250573     1.616745111852     0.325828908028    15.994914619570
         O            2.195100250573    -1.420257888148     0.201537908028    15.994914619570
         O           -2.800446749427    -0.062494888148    -1.013238091972    15.994914619570
         O            2.657127250573     0.681193111852    -0.525646091972    15.994914619570
         O           -2.243850749427    -0.235572888148     1.177582908028    15.994914619570
         C            0.434595250573     0.215183611852     0.424769808028    12.000000000000
         C           -0.523841749427    -0.503900888148    -0.504871091972    12.000000000000
         C            1.890197250573    -0.123225888148    -0.019129091972    12.000000000000
         C           -1.921285749427    -0.248077888148     0.003089908028    12.000000000000
         H            0.316784250573    -0.106794888148     1.432336908028     1.007825032230
         H           -0.347231749427    -1.585582888148    -0.492067091972     1.007825032230
         H           -0.428102749427    -0.144817888148    -1.532853091972     1.007825032230
         H            1.030879250573     1.967145111852    -0.195195091972     1.007825032230
         H            3.113589250573    -1.545356888148    -0.117408091972     1.007825032230
         H           -3.671734749427     0.075293111852    -0.585666091972     1.007825032230

  Basis Set: AUG-CC-PVTZ
    Blend: AUG-CC-PVTZ
  Basis Set: (AUG-CC-PVTZ AUX)
    Blend: AUG-CC-PVTZ-JKFIT
	 Reference Energy          =    -529.5213281936943304 [Eh]
	 Singles Energy            =      -0.0000000000000000 [Eh]
	 Same-Spin Energy          =      -0.5052952890868065 [Eh]
	 Opposite-Spin Energy      =      -1.5059830413105040 [Eh]
	 Correlation Energy        =      -2.0112783303973103 [Eh]
	 Total Energy              =    -531.5326065240916478 [Eh]

	 ================> DF-SCS-MP2 Energies <==================
	-----------------------------------------------------------
	 SCS Same-Spin Scale       =       0.3333333333333333 [-]
	 SCS Opposite-Spin Scale   =       1.2000000000000000 [-]
	 SCS Same-Spin Energy      =      -0.1684317630289355 [Eh]
	 SCS Opposite-Spin Energy  =      -1.8071796495726047 [Eh]
	 SCS Correlation Energy    =      -1.9756114126015403 [Eh]
	 SCS Total Energy          =    -531.4969396062958822 [Eh]
	-----------------------------------------------------------

  Dipole Moment: [D]
     X:     0.8460      Y:    -2.2090      Z:    -1.5791     Total:     2.8441

*** Psi4 exiting successfully. Buy a developer a beer!
