                               Psi4 1.4a3.dev225

  ==> Input File <==

--------------------------------------------------------------------------
#psi4
#
memory 32 gb

molecule  {
0 1
  O        0.2776560     1.6256810     0.3396990
  O        2.1917380    -1.4109440     0.2140340
  O       -2.8039560    -0.0525170    -1.0004960
  O        2.6531900     0.6906990    -0.5129330
  O       -2.2475620    -0.2274030     1.1902310
  C        0.4654431     0.2770717     0.4087004
  C       -0.5274300    -0.4946180    -0.4922450
  C        1.8865320    -0.1139530    -0.0063600
  C       -1.9248990    -0.2390210     0.0157560
  H        0.3131550    -0.0984550     1.4451980
  H       -0.3508110    -1.5763050    -0.4798880
  H       -0.4316230    -0.1350800    -1.5200620
  H        1.0266390     1.9763480    -0.1817870
  H        3.1101710    -1.5358420    -0.1051610
  H       -3.6752580     0.0850810    -0.5728850
units angstrom
no_reorient  #important for SAPT in psi4, default
symmetry c1  #important for SAPT in psi4, default
}

set PROPERTIES_ORIGIN ["COM"]
properties('MP2/aug-cc-pvtz', properties = ['dipole'])
--------------------------------------------------------------------------

    Molecular point group: c1
  Charge       = 0
  Multiplicity = 1
  Basis Set: AUG-CC-PVTZ
    Blend: AUG-CC-PVTZ
  Basis Set: (AUG-CC-PVTZ AUX)
    Blend: AUG-CC-PVTZ-JKFIT

    Orbital Energies [Eh]
    ---------------------

    Doubly Occupied:

       1A    -20.644592     2A    -20.624880     3A    -20.580737
       4A    -20.580174     5A    -20.558488     6A    -11.414291
       7A    -11.400575     8A    -11.325071     9A    -11.267967
      10A     -1.490104    11A     -1.468797    12A     -1.411385
      13A     -1.379854    14A     -1.365381    15A     -1.083713
      16A     -0.965867    17A     -0.845684    18A     -0.812356
      19A     -0.763010    20A     -0.734971    21A     -0.713616
      22A     -0.703533    23A     -0.672292    24A     -0.653545
      25A     -0.649594    26A     -0.631394    27A     -0.603927
      28A     -0.590757    29A     -0.562506    30A     -0.546296
      31A     -0.510605    32A     -0.490193    33A     -0.479493
      34A     -0.467420    35A     -0.458564

  @DF-RHF Final Energy:  -529.52221834482339

   => Energetics <=

    Nuclear Repulsion Energy =            464.4953837786092095
    One-Electron Energy =               -1649.1319431293679827
    Two-Electron Energy =                 655.1143410059353300
    Total Energy =                       -529.5222183448233864
  Basis Set: (AUG-CC-PVTZ AUX)
    Blend: AUG-CC-PVTZ-RI
    Molecular point group: c1

    Geometry (in Angstrom), charge = 0, multiplicity = 1:

       Center              X                  Y                   Z               Mass
    ------------   -----------------  -----------------  -----------------  -----------------
         O            0.278218145988     1.611768838384     0.329462209409    15.994914619570
         O            2.192300145988    -1.424856161616     0.203797209409    15.994914619570
         O           -2.803393854012    -0.066429161616    -1.010732790591    15.994914619570
         O            2.653752145988     0.676786838384    -0.523169790591    15.994914619570
         O           -2.246999854012    -0.241315161616     1.179994209409    15.994914619570
         C            0.466005245988     0.263159538384     0.398463609409    12.000000000000
         C           -0.526867854012    -0.508530161616    -0.502481790591    12.000000000000
         C            1.887094145988    -0.127865161616    -0.016596790591    12.000000000000
         C           -1.924336854012    -0.252933161616     0.005519209409    12.000000000000
         H            0.313717145988    -0.112367161616     1.434961209409     1.007825032230
         H           -0.350248854012    -1.590217161616    -0.490124790591     1.007825032230
         H           -0.431060854012    -0.148992161616    -1.530298790591     1.007825032230
         H            1.027201145988     1.962435838384    -0.192023790591     1.007825032230
         H            3.110733145988    -1.549754161616    -0.115397790591     1.007825032230
         H           -3.674695854012     0.071168838384    -0.583121790591     1.007825032230

  Basis Set: AUG-CC-PVTZ
    Blend: AUG-CC-PVTZ
  Basis Set: (AUG-CC-PVTZ AUX)
    Blend: AUG-CC-PVTZ-JKFIT
	 Reference Energy          =    -529.5222183448233864 [Eh]
	 Singles Energy            =      -0.0000000000000000 [Eh]
	 Same-Spin Energy          =      -0.5053829256695850 [Eh]
	 Opposite-Spin Energy      =      -1.5053196707375422 [Eh]
	 Correlation Energy        =      -2.0107025964071275 [Eh]
	 Total Energy              =    -531.5329209412304863 [Eh]

	 ================> DF-SCS-MP2 Energies <==================
	-----------------------------------------------------------
	 SCS Same-Spin Scale       =       0.3333333333333333 [-]
	 SCS Opposite-Spin Scale   =       1.2000000000000000 [-]
	 SCS Same-Spin Energy      =      -0.1684609752231950 [Eh]
	 SCS Opposite-Spin Energy  =      -1.8063836048850506 [Eh]
	 SCS Correlation Energy    =      -1.9748445801082455 [Eh]
	 SCS Total Energy          =    -531.4970629249315834 [Eh]
	-----------------------------------------------------------

  Dipole Moment: [D]
     X:     0.8576      Y:    -2.0119      Z:    -1.5795     Total:     2.6978

*** Psi4 exiting successfully. Buy a developer a beer!
