                               Psi4 1.3.2 release

  ==> Input File <==

--------------------------------------------------------------------------
#psi4
#
memory 32 gb

molecule  {
0 1
  O        0.2778030     1.6259200     0.3386670
  O        2.1914470    -1.4110830     0.2143760
  O       -2.8041000    -0.0533200    -1.0004000
  O        2.6534740     0.6903680    -0.5128080
  O       -2.2475040    -0.2263980     1.1904210
  C        0.4723530     0.2278750     0.4110270
  C       -0.5274950    -0.4947260    -0.4920330
  C        2.0167029    -0.1002422    -0.0596911
  C       -1.9249390    -0.2389030     0.0159280
  H        0.3131310    -0.0976200     1.4451750
  H       -0.3508850    -1.5764080    -0.4792290
  H       -0.4317560    -0.1356430    -1.5200150
  H        1.0272260     1.9763200    -0.1823570
  H        3.1099360    -1.5361820    -0.1045700
  H       -3.6753880     0.0844680    -0.5728280
units angstrom
no_reorient  #important for SAPT in psi4, default
symmetry c1  #important for SAPT in psi4, default
}

set PROPERTIES_ORIGIN ["COM"]
properties('MP2/aug-cc-pvtz', properties = ['dipole'])
--------------------------------------------------------------------------

    Molecular point group: c1
  Charge       = 0
  Multiplicity = 1
  Basis Set: AUG-CC-PVTZ
    Blend: AUG-CC-PVTZ
  Basis Set: (AUG-CC-PVTZ AUX)
    Blend: AUG-CC-PVTZ-JKFIT

    Orbital Energies [Eh]
    ---------------------

    Doubly Occupied:

       1A    -20.644909     2A    -20.620347     3A    -20.597601
       4A    -20.568473     5A    -20.553000     6A    -11.405141
       7A    -11.395060     8A    -11.312549     9A    -11.259447
      10A     -1.534115    11A     -1.463906    12A     -1.437256
      13A     -1.373961    14A     -1.359876    15A     -1.071135
      16A     -0.938408    17A     -0.837522    18A     -0.800947
      19A     -0.765307    20A     -0.749781    21A     -0.708714
      22A     -0.702180    23A     -0.675231    24A     -0.662385
      25A     -0.657009    26A     -0.629246    27A     -0.596037
      28A     -0.586335    29A     -0.558891    30A     -0.552374
      31A     -0.543656    32A     -0.484119    33A     -0.465689
      34A     -0.461867    35A     -0.443143

  @DF-RHF Final Energy:  -529.50090906070693

   => Energetics <=

    Nuclear Repulsion Energy =            464.0321165805796113
    One-Electron Energy =               -1648.2348139248144889
    Two-Electron Energy =                 654.7017882835278897
    Total Energy =                       -529.5009090607069311
  Basis Set: (AUG-CC-PVTZ AUX)
    Blend: AUG-CC-PVTZ-RI
    Molecular point group: c1

    Geometry (in Angstrom), charge = 0, multiplicity = 1:

       Center              X                  Y                   Z               Mass
    ------------   -----------------  -----------------  -----------------  -----------------
         O            0.266094249385     1.615193841617     0.332990235376    15.994914619570
         O            2.179738249385    -1.421809158383     0.208699235376    15.994914619570
         O           -2.815808750615    -0.064046158383    -1.006076764624    15.994914619570
         O            2.641765249385     0.679641841617    -0.518484764624    15.994914619570
         O           -2.259212750615    -0.237124158383     1.184744235376    15.994914619570
         C            0.460644249385     0.217148841617     0.405350235376    12.000000000000
         C           -0.539203750615    -0.505452158383    -0.497709764624    12.000000000000
         C            2.004994149385    -0.110968358383    -0.065367864624    12.000000000000
         C           -1.936647750615    -0.249629158383     0.010251235376    12.000000000000
         H            0.301422249385    -0.108346158383     1.439498235376     1.007825032230
         H           -0.362593750615    -1.587134158383    -0.484905764624     1.007825032230
         H           -0.443464750615    -0.146369158383    -1.525691764624     1.007825032230
         H            1.015517249385     1.965593841617    -0.188033764624     1.007825032230
         H            3.098227249385    -1.546908158383    -0.110246764624     1.007825032230
         H           -3.687096750615     0.073741841617    -0.578504764624     1.007825032230

  Basis Set: AUG-CC-PVTZ
    Blend: AUG-CC-PVTZ
  Basis Set: (AUG-CC-PVTZ AUX)
    Blend: AUG-CC-PVTZ-JKFIT
	 Reference Energy          =    -529.5009090607069311 [Eh]
	 Singles Energy            =      -0.0000000000000000 [Eh]
	 Same-Spin Energy          =      -0.5034839824070195 [Eh]
	 Opposite-Spin Energy      =      -1.5024289031349924 [Eh]
	 Correlation Energy        =      -2.0059128855420121 [Eh]
	 Total Energy              =    -531.5068219462489196 [Eh]

	 ================> DF-SCS-MP2 Energies <==================
	-----------------------------------------------------------
	 SCS Same-Spin Scale       =       0.3333333333333333 [-]
	 SCS Opposite-Spin Scale   =       1.2000000000000000 [-]
	 SCS Same-Spin Energy      =      -0.1678279941356732 [Eh]
	 SCS Opposite-Spin Energy  =      -1.8029146837619909 [Eh]
	 SCS Correlation Energy    =      -1.9707426778976642 [Eh]
	 SCS Total Energy          =    -531.4716517386045780 [Eh]
	-----------------------------------------------------------

  Dipole Moment: [D]
     X:     1.6958      Y:    -1.9720      Z:    -1.8554     Total:     3.1949

*** Psi4 exiting successfully. Buy a developer a beer!
