                               Psi4 1.3.2 release

  ==> Input File <==

--------------------------------------------------------------------------
#psi4
#
memory 32 gb

molecule  {
0 1
  O        0.2778030     1.6259200     0.3386670
  O        2.1914470    -1.4110830     0.2143760
  O       -2.8041000    -0.0533200    -1.0004000
  O        2.6534740     0.6903680    -0.5128080
  O       -2.2475040    -0.2263980     1.1904210
  C        0.4315175     0.2457253     0.4403791
  C       -0.5274950    -0.4947260    -0.4920330
  C        1.8865440    -0.1140510    -0.0062910
  C       -1.9249390    -0.2389030     0.0159280
  H        0.3131310    -0.0976200     1.4451750
  H       -0.3508850    -1.5764080    -0.4792290
  H       -0.4317560    -0.1356430    -1.5200150
  H        1.0272260     1.9763200    -0.1823570
  H        3.1099360    -1.5361820    -0.1045700
  H       -3.6753880     0.0844680    -0.5728280
units angstrom
no_reorient  #important for SAPT in psi4, default
symmetry c1  #important for SAPT in psi4, default
}

set PROPERTIES_ORIGIN ["COM"]
properties('MP2/aug-cc-pvtz', properties = ['dipole'])
--------------------------------------------------------------------------

    Molecular point group: c1
  Charge       = 0
  Multiplicity = 1
  Basis Set: AUG-CC-PVTZ
    Blend: AUG-CC-PVTZ
  Basis Set: (AUG-CC-PVTZ AUX)
    Blend: AUG-CC-PVTZ-JKFIT

    Orbital Energies [Eh]
    ---------------------

    Doubly Occupied:

       1A    -20.643742     2A    -20.625181     3A    -20.580929
       4A    -20.576091     5A    -20.559134     6A    -11.414646
       7A    -11.401057     8A    -11.324862     9A    -11.268514
      10A     -1.488818    11A     -1.469317    12A     -1.400209
      13A     -1.375864    14A     -1.365804    15A     -1.087566
      16A     -0.962569    17A     -0.846437    18A     -0.813607
      19A     -0.755607    20A     -0.735046    21A     -0.714136
      22A     -0.703787    23A     -0.673992    24A     -0.653643
      25A     -0.649061    26A     -0.629478    27A     -0.603323
      28A     -0.589351    29A     -0.562087    30A     -0.542900
      31A     -0.510272    32A     -0.490571    33A     -0.480226
      34A     -0.472536    35A     -0.458732

  @DF-RHF Final Energy:  -529.52170857390081

   => Energetics <=

    Nuclear Repulsion Energy =            464.1391604690784902
    One-Electron Energy =               -1648.4635461932007274
    Two-Electron Energy =                 654.8026771502214842
    Total Energy =                       -529.5217085739008098
  Basis Set: (AUG-CC-PVTZ AUX)
    Blend: AUG-CC-PVTZ-RI
    Molecular point group: c1

    Geometry (in Angstrom), charge = 0, multiplicity = 1:

       Center              X                  Y                   Z               Mass
    ------------   -----------------  -----------------  -----------------  -----------------
         O            0.281404721536     1.614831974367     0.325580780718    15.994914619570
         O            2.195048721536    -1.422171025633     0.201289780718    15.994914619570
         O           -2.800498278464    -0.064408025633    -1.013486219282    15.994914619570
         O            2.657075721536     0.679279974367    -0.525894219282    15.994914619570
         O           -2.243902278464    -0.237486025633     1.177334780718    15.994914619570
         C            0.435119221536     0.234637274367     0.427292880718    12.000000000000
         C           -0.523893278464    -0.505814025633    -0.505119219282    12.000000000000
         C            1.890145721536    -0.125139025633    -0.019377219282    12.000000000000
         C           -1.921337278464    -0.249991025633     0.002841780718    12.000000000000
         H            0.316732721536    -0.108708025633     1.432088780718     1.007825032230
         H           -0.347283278464    -1.587496025633    -0.492315219282     1.007825032230
         H           -0.428154278464    -0.146731025633    -1.533101219282     1.007825032230
         H            1.030827721536     1.965231974367    -0.195443219282     1.007825032230
         H            3.113537721536    -1.547270025633    -0.117656219282     1.007825032230
         H           -3.671786278464     0.073379974367    -0.585914219282     1.007825032230

  Basis Set: AUG-CC-PVTZ
    Blend: AUG-CC-PVTZ
  Basis Set: (AUG-CC-PVTZ AUX)
    Blend: AUG-CC-PVTZ-JKFIT
	 Reference Energy          =    -529.5217085739008098 [Eh]
	 Singles Energy            =      -0.0000000000000000 [Eh]
	 Same-Spin Energy          =      -0.5052262643383318 [Eh]
	 Opposite-Spin Energy      =      -1.5055450795050920 [Eh]
	 Correlation Energy        =      -2.0107713438434240 [Eh]
	 Total Energy              =    -531.5324799177442401 [Eh]

	 ================> DF-SCS-MP2 Energies <==================
	-----------------------------------------------------------
	 SCS Same-Spin Scale       =       0.3333333333333333 [-]
	 SCS Opposite-Spin Scale   =       1.2000000000000000 [-]
	 SCS Same-Spin Energy      =      -0.1684087547794439 [Eh]
	 SCS Opposite-Spin Energy  =      -1.8066540954061103 [Eh]
	 SCS Correlation Energy    =      -1.9750628501855543 [Eh]
	 SCS Total Energy          =    -531.4967714240863188 [Eh]
	-----------------------------------------------------------

  Dipole Moment: [D]
     X:     0.8531      Y:    -2.1352      Z:    -1.5678     Total:     2.7830

*** Psi4 exiting successfully. Buy a developer a beer!
