                               Psi4 1.3.2 release

  ==> Input File <==

--------------------------------------------------------------------------
#psi4
#
memory 32 gb

molecule  {
0 1
  O        0.2778030     1.6259200     0.3386670
  O        2.1914470    -1.4110830     0.2143760
  O       -2.8041000    -0.0533200    -1.0004000
  O        2.6534740     0.6903680    -0.5128080
  O       -2.2475040    -0.2263980     1.1904210
  C        0.4723530     0.2278750     0.4110270
  C       -0.5274950    -0.4947260    -0.4920330
  C        1.8865440    -0.1140510    -0.0062910
  C       -1.9249390    -0.2389030     0.0159280
  H        0.3131310    -0.0976200     1.4451750
  H       -0.3508850    -1.5764080    -0.4792290
  H       -0.4317560    -0.1356430    -1.5200150
  H        1.1038783     2.0121595    -0.2356482
  H        3.1099360    -1.5361820    -0.1045700
  H       -3.6753880     0.0844680    -0.5728280
units angstrom
no_reorient  #important for SAPT in psi4, default
symmetry c1  #important for SAPT in psi4, default
}

set PROPERTIES_ORIGIN ["COM"]
properties('MP2/aug-cc-pvtz', properties = ['dipole'])
--------------------------------------------------------------------------

    Molecular point group: c1
  Charge       = 0
  Multiplicity = 1
  Basis Set: AUG-CC-PVTZ
    Blend: AUG-CC-PVTZ
  Basis Set: (AUG-CC-PVTZ AUX)
    Blend: AUG-CC-PVTZ-JKFIT

    Orbital Energies [Eh]
    ---------------------

    Doubly Occupied:

       1A    -20.645234     2A    -20.625070     3A    -20.583265
       4A    -20.579409     5A    -20.558537     6A    -11.416242
       7A    -11.401206     8A    -11.322051     9A    -11.268806
      10A     -1.491506    11A     -1.468880    12A     -1.393627
      13A     -1.366777    14A     -1.357033    15A     -1.085684
      16A     -0.969588    17A     -0.843489    18A     -0.805962
      19A     -0.753932    20A     -0.736779    21A     -0.712806
      22A     -0.699711    23A     -0.671587    24A     -0.651369
      25A     -0.639824    26A     -0.626074    27A     -0.597357
      28A     -0.588978    29A     -0.556558    30A     -0.536780
      31A     -0.512248    32A     -0.491221    33A     -0.484517
      34A     -0.467135    35A     -0.460589

  @DF-RHF Final Energy:  -529.51047837224189

   => Energetics <=

    Nuclear Repulsion Energy =            463.8102585670719691
    One-Electron Energy =               -1647.9018100551729731
    Two-Electron Energy =                 654.5810731158591125
    Total Energy =                       -529.5104783722418915
  Basis Set: (AUG-CC-PVTZ AUX)
    Blend: AUG-CC-PVTZ-RI
    Molecular point group: c1

    Geometry (in Angstrom), charge = 0, multiplicity = 1:

       Center              X                  Y                   Z               Mass
    ------------   -----------------  -----------------  -----------------  -----------------
         O            0.277171982698     1.616160743436     0.328609647988    15.994914619570
         O            2.190815982698    -1.420842256564     0.204318647988    15.994914619570
         O           -2.804731017302    -0.063079256564    -1.010457352012    15.994914619570
         O            2.652842982698     0.680608743436    -0.522865352012    15.994914619570
         O           -2.248135017302    -0.236157256564     1.180363647988    15.994914619570
         C            0.471721982698     0.218115743436     0.400969647988    12.000000000000
         C           -0.528126017302    -0.504485256564    -0.502090352012    12.000000000000
         C            1.885912982698    -0.123810256564    -0.016348352012    12.000000000000
         C           -1.925570017302    -0.248662256564     0.005870647988    12.000000000000
         H            0.312499982698    -0.107379256564     1.435117647988     1.007825032230
         H           -0.351516017302    -1.586167256564    -0.489286352012     1.007825032230
         H           -0.432387017302    -0.145402256564    -1.530072352012     1.007825032230
         H            1.103247282698     2.002400243436    -0.245705552012     1.007825032230
         H            3.109304982698    -1.545941256564    -0.114627352012     1.007825032230
         H           -3.676019017302     0.074708743436    -0.582885352012     1.007825032230

  Basis Set: AUG-CC-PVTZ
    Blend: AUG-CC-PVTZ
  Basis Set: (AUG-CC-PVTZ AUX)
    Blend: AUG-CC-PVTZ-JKFIT
	 Reference Energy          =    -529.5104783722418915 [Eh]
	 Singles Energy            =      -0.0000000000000000 [Eh]
	 Same-Spin Energy          =      -0.5068483701499440 [Eh]
	 Opposite-Spin Energy      =      -1.5093539225729882 [Eh]
	 Correlation Energy        =      -2.0162022927229319 [Eh]
	 Total Energy              =    -531.5266806649648288 [Eh]

	 ================> DF-SCS-MP2 Energies <==================
	-----------------------------------------------------------
	 SCS Same-Spin Scale       =       0.3333333333333333 [-]
	 SCS Opposite-Spin Scale   =       1.2000000000000000 [-]
	 SCS Same-Spin Energy      =      -0.1689494567166480 [Eh]
	 SCS Opposite-Spin Energy  =      -1.8112247070875858 [Eh]
	 SCS Correlation Energy    =      -1.9801741638042338 [Eh]
	 SCS Total Energy          =    -531.4906525360461274 [Eh]
	-----------------------------------------------------------

  Dipole Moment: [D]
     X:     0.9783      Y:    -2.1557      Z:    -1.6444     Total:     2.8824

*** Psi4 exiting successfully. Buy a developer a beer!
