                               Psi4 1.3.2 release

  ==> Input File <==

--------------------------------------------------------------------------
#psi4
#
memory 32 gb

molecule  {
0 1
  O        0.2778030     1.6259200     0.3386670
  O        2.1914470    -1.4110830     0.2143760
  O       -2.8041000    -0.0533200    -1.0004000
  O        2.6534740     0.6903680    -0.5128080
  O       -2.2475040    -0.2263980     1.1904210
  C        0.5503212     0.1895560     0.3490591
  C       -0.5274950    -0.4947260    -0.4920330
  C        1.8865440    -0.1140510    -0.0062910
  C       -1.9249390    -0.2389030     0.0159280
  H        0.3131310    -0.0976200     1.4451750
  H       -0.3508850    -1.5764080    -0.4792290
  H       -0.4317560    -0.1356430    -1.5200150
  H        1.0272260     1.9763200    -0.1823570
  H        3.1099360    -1.5361820    -0.1045700
  H       -3.6753880     0.0844680    -0.5728280
units angstrom
no_reorient  #important for SAPT in psi4, default
symmetry c1  #important for SAPT in psi4, default
}

set PROPERTIES_ORIGIN ["COM"]
properties('MP2/aug-cc-pvtz', properties = ['dipole'])
--------------------------------------------------------------------------

    Molecular point group: c1
  Charge       = 0
  Multiplicity = 1
  Basis Set: AUG-CC-PVTZ
    Blend: AUG-CC-PVTZ
  Basis Set: (AUG-CC-PVTZ AUX)
    Blend: AUG-CC-PVTZ-JKFIT

    Orbital Energies [Eh]
    ---------------------

    Doubly Occupied:

       1A    -20.645512     2A    -20.627511     3A    -20.582783
       4A    -20.574700     5A    -20.560528     6A    -11.415441
       7A    -11.404645     8A    -11.323376     9A    -11.274090
      10A     -1.495022    11A     -1.470932    12A     -1.396231
      13A     -1.368429    14A     -1.360452    15A     -1.097758
      16A     -0.992030    17A     -0.846806    18A     -0.806232
      19A     -0.762742    20A     -0.737817    21A     -0.714695
      22A     -0.704820    23A     -0.671109    24A     -0.653633
      25A     -0.642682    26A     -0.620760    27A     -0.594833
      28A     -0.592060    29A     -0.557519    30A     -0.546968
      31A     -0.511564    32A     -0.496107    33A     -0.487583
      34A     -0.465708    35A     -0.465014

  @DF-RHF Final Energy:  -529.50820511784673

   => Energetics <=

    Nuclear Repulsion Energy =            464.7746075329129667
    One-Electron Energy =               -1649.6294402852117855
    Two-Electron Energy =                 655.3466276344520338
    Total Energy =                       -529.5082051178467282
  Basis Set: (AUG-CC-PVTZ AUX)
    Blend: AUG-CC-PVTZ-RI
    Molecular point group: c1

    Geometry (in Angstrom), charge = 0, multiplicity = 1:

       Center              X                  Y                   Z               Mass
    ------------   -----------------  -----------------  -----------------  -----------------
         O            0.270767292823     1.619861253124     0.333757377828    15.994914619570
         O            2.184411292823    -1.417141746876     0.209466377828    15.994914619570
         O           -2.811135707177    -0.059378746876    -1.005309622172    15.994914619570
         O            2.646438292823     0.684309253124    -0.517717622172    15.994914619570
         O           -2.254539707177    -0.232456746876     1.185511377828    15.994914619570
         C            0.543285492823     0.183497253124     0.344149477828    12.000000000000
         C           -0.534530707177    -0.500784746876    -0.496942622172    12.000000000000
         C            1.879508292823    -0.120109746876    -0.011200622172    12.000000000000
         C           -1.931974707177    -0.244961746876     0.011018377828    12.000000000000
         H            0.306095292823    -0.103678746876     1.440265377828     1.007825032230
         H           -0.357920707177    -1.582466746876    -0.484138622172     1.007825032230
         H           -0.438791707177    -0.141701746876    -1.524924622172     1.007825032230
         H            1.020190292823     1.970261253124    -0.187266622172     1.007825032230
         H            3.102900292823    -1.542240746876    -0.109479622172     1.007825032230
         H           -3.682423707177     0.078409253124    -0.577737622172     1.007825032230

  Basis Set: AUG-CC-PVTZ
    Blend: AUG-CC-PVTZ
  Basis Set: (AUG-CC-PVTZ AUX)
    Blend: AUG-CC-PVTZ-JKFIT
	 Reference Energy          =    -529.5082051178467282 [Eh]
	 Singles Energy            =      -0.0000000000000000 [Eh]
	 Same-Spin Energy          =      -0.5066915714630577 [Eh]
	 Opposite-Spin Energy      =      -1.5090594110679614 [Eh]
	 Correlation Energy        =      -2.0157509825310189 [Eh]
	 Total Energy              =    -531.5239561003777453 [Eh]

	 ================> DF-SCS-MP2 Energies <==================
	-----------------------------------------------------------
	 SCS Same-Spin Scale       =       0.3333333333333333 [-]
	 SCS Opposite-Spin Scale   =       1.2000000000000000 [-]
	 SCS Same-Spin Energy      =      -0.1688971904876859 [Eh]
	 SCS Opposite-Spin Energy  =      -1.8108712932815536 [Eh]
	 SCS Correlation Energy    =      -1.9797684837692395 [Eh]
	 SCS Total Energy          =    -531.4879736016159768 [Eh]
	-----------------------------------------------------------

  Dipole Moment: [D]
     X:     0.7748      Y:    -2.2627      Z:    -1.6207     Total:     2.8891

*** Psi4 exiting successfully. Buy a developer a beer!
