                               Psi4 1.3.2 release

  ==> Input File <==

--------------------------------------------------------------------------
#psi4
#
memory 32 gb

molecule  {
0 1
  O        0.2778030     1.6259200     0.3386670
  O        2.1914470    -1.4110830     0.2143760
  O       -2.8041000    -0.0533200    -1.0004000
  O        2.6534740     0.6903680    -0.5128080
  O       -2.2475040    -0.2263980     1.1904210
  C        0.3476108     0.2224505     0.4903759
  C       -0.5274950    -0.4947260    -0.4920330
  C        1.8865440    -0.1140510    -0.0062910
  C       -1.9249390    -0.2389030     0.0159280
  H        0.3131310    -0.0976200     1.4451750
  H       -0.3508850    -1.5764080    -0.4792290
  H       -0.4317560    -0.1356430    -1.5200150
  H        1.0272260     1.9763200    -0.1823570
  H        3.1099360    -1.5361820    -0.1045700
  H       -3.6753880     0.0844680    -0.5728280
units angstrom
no_reorient  #important for SAPT in psi4, default
symmetry c1  #important for SAPT in psi4, default
}

set PROPERTIES_ORIGIN ["COM"]
properties('MP2/aug-cc-pvtz', properties = ['dipole'])
--------------------------------------------------------------------------

    Molecular point group: c1
  Charge       = 0
  Multiplicity = 1
  Basis Set: AUG-CC-PVTZ
    Blend: AUG-CC-PVTZ
  Basis Set: (AUG-CC-PVTZ AUX)
    Blend: AUG-CC-PVTZ-JKFIT

    Orbital Energies [Eh]
    ---------------------

    Doubly Occupied:

       1A    -20.641011     2A    -20.625696     3A    -20.579883
       4A    -20.571621     5A    -20.560658     6A    -11.411990
       7A    -11.401709     8A    -11.328043     9A    -11.269393
      10A     -1.484715    11A     -1.470482    12A     -1.391908
      13A     -1.371424    14A     -1.365713    15A     -1.094124
      16A     -0.953285    17A     -0.847266    18A     -0.818161
      19A     -0.745124    20A     -0.733219    21A     -0.715636
      22A     -0.707222    23A     -0.677596    24A     -0.655948
      25A     -0.647049    26A     -0.627885    27A     -0.607844
      28A     -0.587504    29A     -0.567406    30A     -0.531356
      31A     -0.508747    32A     -0.491966    33A     -0.482723
      34A     -0.472185    35A     -0.450114

  @DF-RHF Final Energy:  -529.50220927197222

   => Energetics <=

    Nuclear Repulsion Energy =            463.6747117044948254
    One-Electron Energy =               -1647.5606347277234818
    Two-Electron Energy =                 654.3837137512565505
    Total Energy =                       -529.5022092719722195
  Basis Set: (AUG-CC-PVTZ AUX)
    Blend: AUG-CC-PVTZ-RI
    Molecular point group: c1

    Geometry (in Angstrom), charge = 0, multiplicity = 1:

       Center              X                  Y                   Z               Mass
    ------------   -----------------  -----------------  -----------------  -----------------
         O            0.288917547650     1.616915950083     0.321104174385    15.994914619570
         O            2.202561547650    -1.420087049917     0.196813174385    15.994914619570
         O           -2.792985452350    -0.062324049917    -1.017962825615    15.994914619570
         O            2.664588547650     0.681363950083    -0.530370825615    15.994914619570
         O           -2.236389452350    -0.235402049917     1.172858174385    15.994914619570
         C            0.358725347650     0.213446450083     0.472813074385    12.000000000000
         C           -0.516380452350    -0.503730049917    -0.509595825615    12.000000000000
         C            1.897658547650    -0.123055049917    -0.023853825615    12.000000000000
         C           -1.913824452350    -0.247907049917    -0.001634825615    12.000000000000
         H            0.324245547650    -0.106624049917     1.427612174385     1.007825032230
         H           -0.339770452350    -1.585412049917    -0.496791825615     1.007825032230
         H           -0.420641452350    -0.144647049917    -1.537577825615     1.007825032230
         H            1.038340547650     1.967315950083    -0.199919825615     1.007825032230
         H            3.121050547650    -1.545186049917    -0.122132825615     1.007825032230
         H           -3.664273452350     0.075463950083    -0.590390825615     1.007825032230

  Basis Set: AUG-CC-PVTZ
    Blend: AUG-CC-PVTZ
  Basis Set: (AUG-CC-PVTZ AUX)
    Blend: AUG-CC-PVTZ-JKFIT
	 Reference Energy          =    -529.5022092719722195 [Eh]
	 Singles Energy            =      -0.0000000000000000 [Eh]
	 Same-Spin Energy          =      -0.5056021100481960 [Eh]
	 Opposite-Spin Energy      =      -1.5067312709715655 [Eh]
	 Correlation Energy        =      -2.0123333810197614 [Eh]
	 Total Energy              =    -531.5145426529919632 [Eh]

	 ================> DF-SCS-MP2 Energies <==================
	-----------------------------------------------------------
	 SCS Same-Spin Scale       =       0.3333333333333333 [-]
	 SCS Opposite-Spin Scale   =       1.2000000000000000 [-]
	 SCS Same-Spin Energy      =      -0.1685340366827320 [Eh]
	 SCS Opposite-Spin Energy  =      -1.8080775251658785 [Eh]
	 SCS Correlation Energy    =      -1.9766115618486104 [Eh]
	 SCS Total Energy          =    -531.4788208338208051 [Eh]
	-----------------------------------------------------------

  Dipole Moment: [D]
     X:     0.7851      Y:    -2.2407      Z:    -1.5605     Total:     2.8412

*** Psi4 exiting successfully. Buy a developer a beer!
