                               Psi4 1.4a3.dev225

  ==> Input File <==

--------------------------------------------------------------------------
#psi4
#
memory 32 gb

molecule  {
0 1
  O        0.2776560     1.6256810     0.3396990
  O        2.1917380    -1.4109440     0.2140340
  O       -2.8039560    -0.0525170    -1.0004960
  O        2.6531900     0.6906990    -0.5129330
  O       -2.2475620    -0.2274030     1.1902310
  C        0.4750848     0.2078295     0.4122432
  C       -0.5274300    -0.4946180    -0.4922450
  C        1.8865320    -0.1139530    -0.0063600
  C       -1.9248990    -0.2390210     0.0157560
  H        0.3131550    -0.0984550     1.4451980
  H       -0.3508110    -1.5763050    -0.4798880
  H       -0.4316230    -0.1350800    -1.5200620
  H        1.0266390     1.9763480    -0.1817870
  H        3.1101710    -1.5358420    -0.1051610
  H       -3.6752580     0.0850810    -0.5728850
units angstrom
no_reorient  #important for SAPT in psi4, default
symmetry c1  #important for SAPT in psi4, default
}

set PROPERTIES_ORIGIN ["COM"]
properties('MP2/aug-cc-pvtz', properties = ['dipole'])
--------------------------------------------------------------------------

    Molecular point group: c1
  Charge       = 0
  Multiplicity = 1
  Basis Set: AUG-CC-PVTZ
    Blend: AUG-CC-PVTZ
  Basis Set: (AUG-CC-PVTZ AUX)
    Blend: AUG-CC-PVTZ-JKFIT

    Orbital Energies [Eh]
    ---------------------

    Doubly Occupied:

       1A    -20.644873     2A    -20.626105     3A    -20.582622
       4A    -20.573483     5A    -20.559665     6A    -11.416618
       7A    -11.402540     8A    -11.323495     9A    -11.270528
      10A     -1.491603    11A     -1.469946    12A     -1.395395
      13A     -1.369654    14A     -1.364292    15A     -1.092270
      16A     -0.973622    17A     -0.846706    18A     -0.810647
      19A     -0.757720    20A     -0.736644    21A     -0.714248
      22A     -0.702434    23A     -0.672810    24A     -0.652342
      25A     -0.646205    26A     -0.626489    27A     -0.599351
      28A     -0.590102    29A     -0.557135    30A     -0.546999
      31A     -0.511353    32A     -0.491864    33A     -0.485425
      34A     -0.471872    35A     -0.462729

  @DF-RHF Final Energy:  -529.52256170936198

   => Energetics <=

    Nuclear Repulsion Energy =            464.2756942667302837
    One-Electron Energy =               -1648.7169436714445965
    Two-Electron Energy =                 654.9186876953522187
    Total Energy =                       -529.5225617093619803
  Basis Set: (AUG-CC-PVTZ AUX)
    Blend: AUG-CC-PVTZ-RI
    Molecular point group: c1

    Geometry (in Angstrom), charge = 0, multiplicity = 1:

       Center              X                  Y                   Z               Mass
    ------------   -----------------  -----------------  -----------------  -----------------
         O            0.277354848832     1.617968636592     0.329144994689    15.994914619570
         O            2.191436848832    -1.418656363408     0.203479994689    15.994914619570
         O           -2.804257151168    -0.060229363408    -1.011050005311    15.994914619570
         O            2.652888848832     0.682986636592    -0.523487005311    15.994914619570
         O           -2.247863151168    -0.235115363408     1.179676994689    15.994914619570
         C            0.474783648832     0.200117136592     0.401689194689    12.000000000000
         C           -0.527731151168    -0.502330363408    -0.502799005311    12.000000000000
         C            1.886230848832    -0.121665363408    -0.016914005311    12.000000000000
         C           -1.925200151168    -0.246733363408     0.005201994689    12.000000000000
         H            0.312853848832    -0.106167363408     1.434643994689     1.007825032230
         H           -0.351112151168    -1.584017363408    -0.490442005311     1.007825032230
         H           -0.431924151168    -0.142792363408    -1.530616005311     1.007825032230
         H            1.026337848832     1.968635636592    -0.192341005311     1.007825032230
         H            3.109869848832    -1.543554363408    -0.115715005311     1.007825032230
         H           -3.675559151168     0.077368636592    -0.583439005311     1.007825032230

  Basis Set: AUG-CC-PVTZ
    Blend: AUG-CC-PVTZ
  Basis Set: (AUG-CC-PVTZ AUX)
    Blend: AUG-CC-PVTZ-JKFIT
	 Reference Energy          =    -529.5225617093619803 [Eh]
	 Singles Energy            =      -0.0000000000000000 [Eh]
	 Same-Spin Energy          =      -0.5055210639633496 [Eh]
	 Opposite-Spin Energy      =      -1.5066431522324510 [Eh]
	 Correlation Energy        =      -2.0121642161958007 [Eh]
	 Total Energy              =    -531.5347259255578365 [Eh]

	 ================> DF-SCS-MP2 Energies <==================
	-----------------------------------------------------------
	 SCS Same-Spin Scale       =       0.3333333333333333 [-]
	 SCS Opposite-Spin Scale   =       1.2000000000000000 [-]
	 SCS Same-Spin Energy      =      -0.1685070213211165 [Eh]
	 SCS Opposite-Spin Energy  =      -1.8079717826789412 [Eh]
	 SCS Correlation Energy    =      -1.9764788040000578 [Eh]
	 SCS Total Energy          =    -531.4990405133620470 [Eh]
	-----------------------------------------------------------

  Dipole Moment: [D]
     X:     0.8470      Y:    -2.2437      Z:    -1.5930     Total:     2.8791

*** Psi4 exiting successfully. Buy a developer a beer!
