                               Psi4 1.3.2 release

  ==> Input File <==

--------------------------------------------------------------------------
#psi4
#
memory 32 gb

molecule  {
0 1
  O        0.2778030     1.6259200     0.3386670
  O        2.1914470    -1.4110830     0.2143760
  O       -2.8041000    -0.0533200    -1.0004000
  O        2.6534740     0.6903680    -0.5128080
  O       -2.2475040    -0.2263980     1.1904210
  C        0.4516740     0.2259035     0.4243305
  C       -0.5274950    -0.4947260    -0.4920330
  C        1.8865440    -0.1140510    -0.0062910
  C       -1.9249390    -0.2389030     0.0159280
  H        0.3131310    -0.0976200     1.4451750
  H       -0.3508850    -1.5764080    -0.4792290
  H       -0.4317560    -0.1356430    -1.5200150
  H        1.0272260     1.9763200    -0.1823570
  H        3.1099360    -1.5361820    -0.1045700
  H       -3.6753880     0.0844680    -0.5728280
units angstrom
no_reorient  #important for SAPT in psi4, default
symmetry c1  #important for SAPT in psi4, default
}

set PROPERTIES_ORIGIN ["COM"]
properties('MP2/aug-cc-pvtz', properties = ['dipole'])
--------------------------------------------------------------------------

    Molecular point group: c1
  Charge       = 0
  Multiplicity = 1
  Basis Set: AUG-CC-PVTZ
    Blend: AUG-CC-PVTZ
  Basis Set: (AUG-CC-PVTZ AUX)
    Blend: AUG-CC-PVTZ-JKFIT

    Orbital Energies [Eh]
    ---------------------

    Doubly Occupied:

       1A    -20.644367     2A    -20.625661     3A    -20.581832
       4A    -20.574641     5A    -20.559430     6A    -11.415814
       7A    -11.401821     8A    -11.324063     9A    -11.269405
      10A     -1.490207    11A     -1.469654    12A     -1.396935
      13A     -1.372736    14A     -1.365557    15A     -1.090302
      16A     -0.967730    17A     -0.846550    18A     -0.812076
      19A     -0.756538    20A     -0.735838    21A     -0.714191
      22A     -0.702916    23A     -0.673358    24A     -0.652006
      25A     -0.648466    26A     -0.628048    27A     -0.601515
      28A     -0.589758    29A     -0.559661    30A     -0.544823
      31A     -0.510869    32A     -0.491006    33A     -0.482824
      34A     -0.472671    35A     -0.461109

  @DF-RHF Final Energy:  -529.52307792964245

   => Energetics <=

    Nuclear Repulsion Energy =            464.2200469230181170
    One-Electron Energy =               -1648.6174959583229338
    Two-Electron Energy =                 654.8743711056623624
    Total Energy =                       -529.5230779296424544
  Basis Set: (AUG-CC-PVTZ AUX)
    Blend: AUG-CC-PVTZ-RI
    Molecular point group: c1

    Geometry (in Angstrom), charge = 0, multiplicity = 1:

       Center              X                  Y                   Z               Mass
    ------------   -----------------  -----------------  -----------------  -----------------
         O            0.279599951719     1.616606775863     0.327017737972    15.994914619570
         O            2.193243951719    -1.420396224137     0.202726737972    15.994914619570
         O           -2.802303048281    -0.062633224137    -1.012049262028    15.994914619570
         O            2.655270951719     0.681054775863    -0.524457262028    15.994914619570
         O           -2.245707048281    -0.235711224137     1.178771737972    15.994914619570
         C            0.453470951719     0.216590275863     0.412681237972    12.000000000000
         C           -0.525698048281    -0.504039224137    -0.503682262028    12.000000000000
         C            1.888340951719    -0.123364224137    -0.017940262028    12.000000000000
         C           -1.923142048281    -0.248216224137     0.004278737972    12.000000000000
         H            0.314927951719    -0.106933224137     1.433525737972     1.007825032230
         H           -0.349088048281    -1.585721224137    -0.490878262028     1.007825032230
         H           -0.429959048281    -0.144956224137    -1.531664262028     1.007825032230
         H            1.029022951719     1.967006775863    -0.194006262028     1.007825032230
         H            3.111732951719    -1.545495224137    -0.116219262028     1.007825032230
         H           -3.673591048281     0.075154775863    -0.584477262028     1.007825032230

  Basis Set: AUG-CC-PVTZ
    Blend: AUG-CC-PVTZ
  Basis Set: (AUG-CC-PVTZ AUX)
    Blend: AUG-CC-PVTZ-JKFIT
	 Reference Energy          =    -529.5230779296424544 [Eh]
	 Singles Energy            =      -0.0000000000000000 [Eh]
	 Same-Spin Energy          =      -0.5053414633560720 [Eh]
	 Opposite-Spin Energy      =      -1.5060355841166762 [Eh]
	 Correlation Energy        =      -2.0113770474727479 [Eh]
	 Total Energy              =    -531.5344549771151605 [Eh]

	 ================> DF-SCS-MP2 Energies <==================
	-----------------------------------------------------------
	 SCS Same-Spin Scale       =       0.3333333333333333 [-]
	 SCS Opposite-Spin Scale   =       1.2000000000000000 [-]
	 SCS Same-Spin Energy      =      -0.1684471544520240 [Eh]
	 SCS Opposite-Spin Energy  =      -1.8072427009400114 [Eh]
	 SCS Correlation Energy    =      -1.9756898553920355 [Eh]
	 SCS Total Energy          =    -531.4987677850344880 [Eh]
	-----------------------------------------------------------

  Dipole Moment: [D]
     X:     0.8503      Y:    -2.1965      Z:    -1.5833     Total:     2.8381

*** Psi4 exiting successfully. Buy a developer a beer!
