                               Psi4 1.3.2 release

  ==> Input File <==

--------------------------------------------------------------------------
#psi4
#
memory 32 gb

molecule  {
0 1
  O        0.2778030     1.6259200     0.3386670
  O        2.1914470    -1.4110830     0.2143760
  O       -2.8041000    -0.0533200    -1.0004000
  O        2.6534740     0.6903680    -0.5128080
  O       -2.2475040    -0.2263980     1.1904210
  C        0.4723530     0.2278750     0.4110270
  C       -0.5274950    -0.4947260    -0.4920330
  C        1.9296289    -0.1078584    -0.0243892
  C       -1.9249390    -0.2389030     0.0159280
  H        0.3131310    -0.0976200     1.4451750
  H       -0.3508850    -1.5764080    -0.4792290
  H       -0.4317560    -0.1356430    -1.5200150
  H        1.0272260     1.9763200    -0.1823570
  H        3.1099360    -1.5361820    -0.1045700
  H       -3.6753880     0.0844680    -0.5728280
units angstrom
no_reorient  #important for SAPT in psi4, default
symmetry c1  #important for SAPT in psi4, default
}

set PROPERTIES_ORIGIN ["COM"]
properties('MP2/aug-cc-pvtz', properties = ['dipole'])
--------------------------------------------------------------------------

    Molecular point group: c1
  Charge       = 0
  Multiplicity = 1
  Basis Set: AUG-CC-PVTZ
    Blend: AUG-CC-PVTZ
  Basis Set: (AUG-CC-PVTZ AUX)
    Blend: AUG-CC-PVTZ-JKFIT

    Orbital Energies [Eh]
    ---------------------

    Doubly Occupied:

       1A    -20.644219     2A    -20.624049     3A    -20.586984
       4A    -20.573247     5A    -20.557348     6A    -11.411663
       7A    -11.399816     8A    -11.321055     9A    -11.266393
      10A     -1.500874    11A     -1.467825    12A     -1.410624
      13A     -1.377415    14A     -1.363966    15A     -1.083024
      16A     -0.960071    17A     -0.843417    18A     -0.807590
      19A     -0.757322    20A     -0.741189    21A     -0.712377
      22A     -0.701583    23A     -0.671582    24A     -0.655575
      25A     -0.650833    26A     -0.630207    27A     -0.598964
      28A     -0.589031    29A     -0.556047    30A     -0.549743
      31A     -0.523350    32A     -0.488990    33A     -0.479977
      34A     -0.467914    35A     -0.458183

  @DF-RHF Final Energy:  -529.52377456426666

   => Energetics <=

    Nuclear Repulsion Energy =            464.2079769591145464
    One-Electron Energy =               -1648.5986013661731704
    Two-Electron Energy =                 654.8668498427919076
    Total Energy =                       -529.5237745642666596
  Basis Set: (AUG-CC-PVTZ AUX)
    Blend: AUG-CC-PVTZ-RI
    Molecular point group: c1

    Geometry (in Angstrom), charge = 0, multiplicity = 1:

       Center              X                  Y                   Z               Mass
    ------------   -----------------  -----------------  -----------------  -----------------
         O            0.273890668753     1.615875779844     0.329829378899    15.994914619570
         O            2.187534668753    -1.421127220156     0.205538378899    15.994914619570
         O           -2.808012331247    -0.063364220156    -1.009237621101    15.994914619570
         O            2.649561668753     0.680323779844    -0.521645621101    15.994914619570
         O           -2.251416331247    -0.236442220156     1.181583378899    15.994914619570
         C            0.468440668753     0.217830779844     0.402189378899    12.000000000000
         C           -0.531407331247    -0.504770220156    -0.500870621101    12.000000000000
         C            1.925716568753    -0.117902620156    -0.033226821101    12.000000000000
         C           -1.928851331247    -0.248947220156     0.007090378899    12.000000000000
         H            0.309218668753    -0.107664220156     1.436337378899     1.007825032230
         H           -0.354797331247    -1.586452220156    -0.488066621101     1.007825032230
         H           -0.435668331247    -0.145687220156    -1.528852621101     1.007825032230
         H            1.023313668753     1.966275779844    -0.191194621101     1.007825032230
         H            3.106023668753    -1.546226220156    -0.113407621101     1.007825032230
         H           -3.679300331247     0.074423779844    -0.581665621101     1.007825032230

  Basis Set: AUG-CC-PVTZ
    Blend: AUG-CC-PVTZ
  Basis Set: (AUG-CC-PVTZ AUX)
    Blend: AUG-CC-PVTZ-JKFIT
	 Reference Energy          =    -529.5237745642666596 [Eh]
	 Singles Energy            =      -0.0000000000000000 [Eh]
	 Same-Spin Energy          =      -0.5045288874997675 [Eh]
	 Opposite-Spin Energy      =      -1.5044652082658843 [Eh]
	 Correlation Energy        =      -2.0089940957656518 [Eh]
	 Total Energy              =    -531.5327686600322750 [Eh]

	 ================> DF-SCS-MP2 Energies <==================
	-----------------------------------------------------------
	 SCS Same-Spin Scale       =       0.3333333333333333 [-]
	 SCS Opposite-Spin Scale   =       1.2000000000000000 [-]
	 SCS Same-Spin Energy      =      -0.1681762958332558 [Eh]
	 SCS Opposite-Spin Energy  =      -1.8053582499190610 [Eh]
	 SCS Correlation Energy    =      -1.9735345457523168 [Eh]
	 SCS Total Energy          =    -531.4973091100189322 [Eh]
	-----------------------------------------------------------

  Dipole Moment: [D]
     X:     1.1119      Y:    -2.1079      Z:    -1.6720     Total:     2.9112

*** Psi4 exiting successfully. Buy a developer a beer!
