                               Psi4 1.4a3.dev225

  ==> Input File <==

--------------------------------------------------------------------------
#psi4
#
memory 32 gb

molecule  {
0 1
  O        0.2776560     1.6256810     0.3396990
  O        2.1917380    -1.4109440     0.2140340
  O       -2.8039560    -0.0525170    -1.0004960
  O        2.6531900     0.6906990    -0.5129330
  O       -2.2475620    -0.2274030     1.1902310
  C        0.4723300     0.2276130     0.4112310
  C       -0.5274300    -0.4946180    -0.4922450
  C        1.8910518    -0.1331603    -0.0030962
  C       -1.9248990    -0.2390210     0.0157560
  H        0.3131550    -0.0984550     1.4451980
  H       -0.3508110    -1.5763050    -0.4798880
  H       -0.4316230    -0.1350800    -1.5200620
  H        1.0266390     1.9763480    -0.1817870
  H        3.1101710    -1.5358420    -0.1051610
  H       -3.6752580     0.0850810    -0.5728850
units angstrom
no_reorient  #important for SAPT in psi4, default
symmetry c1  #important for SAPT in psi4, default
}

set PROPERTIES_ORIGIN ["COM"]
properties('MP2/aug-cc-pvtz', properties = ['dipole'])
--------------------------------------------------------------------------

    Molecular point group: c1
  Charge       = 0
  Multiplicity = 1
  Basis Set: AUG-CC-PVTZ
    Blend: AUG-CC-PVTZ
  Basis Set: (AUG-CC-PVTZ AUX)
    Blend: AUG-CC-PVTZ-JKFIT

    Orbital Energies [Eh]
    ---------------------

    Doubly Occupied:

       1A    -20.650449     2A    -20.625456     3A    -20.578513
       4A    -20.574812     5A    -20.558999     6A    -11.416335
       7A    -11.401597     8A    -11.323396     9A    -11.269332
      10A     -1.497759    11A     -1.469314    12A     -1.396558
      13A     -1.370013    14A     -1.364767    15A     -1.089100
      16A     -0.970898    17A     -0.850241    18A     -0.811551
      19A     -0.759518    20A     -0.737535    21A     -0.713734
      22A     -0.702463    23A     -0.672429    24A     -0.655188
      25A     -0.648114    26A     -0.626578    27A     -0.599844
      28A     -0.590121    29A     -0.558247    30A     -0.545299
      31A     -0.507646    32A     -0.490744    33A     -0.482167
      34A     -0.470143    35A     -0.461223

  @DF-RHF Final Energy:  -529.52267508524483

   => Energetics <=

    Nuclear Repulsion Energy =            464.2708682475380328
    One-Electron Energy =               -1648.7069240117466506
    Two-Electron Energy =                 654.9133806789636765
    Total Energy =                       -529.5226750852448276
  Basis Set: (AUG-CC-PVTZ AUX)
    Blend: AUG-CC-PVTZ-RI
    Molecular point group: c1

    Geometry (in Angstrom), charge = 0, multiplicity = 1:

       Center              X                  Y                   Z               Mass
    ------------   -----------------  -----------------  -----------------  -----------------
         O            0.277196814514     1.617917044879     0.328943391250    15.994914619570
         O            2.191278814514    -1.418707955121     0.203278391250    15.994914619570
         O           -2.804415185486    -0.060280955121    -1.011251608750    15.994914619570
         O            2.652730814514     0.682935044879    -0.523688608750    15.994914619570
         O           -2.248021185486    -0.235166955121     1.179475391250    15.994914619570
         C            0.471870814514     0.219849044879     0.400475391250    12.000000000000
         C           -0.527889185486    -0.502381955121    -0.503000608750    12.000000000000
         C            1.890592614514    -0.140924255121    -0.013851808750    12.000000000000
         C           -1.925358185486    -0.246784955121     0.005000391250    12.000000000000
         H            0.312695814514    -0.106218955121     1.434442391250     1.007825032230
         H           -0.351270185486    -1.584068955121    -0.490643608750     1.007825032230
         H           -0.432082185486    -0.142843955121    -1.530817608750     1.007825032230
         H            1.026179814514     1.968584044879    -0.192542608750     1.007825032230
         H            3.109711814514    -1.543605955121    -0.115916608750     1.007825032230
         H           -3.675717185486     0.077317044879    -0.583640608750     1.007825032230

  Basis Set: AUG-CC-PVTZ
    Blend: AUG-CC-PVTZ
  Basis Set: (AUG-CC-PVTZ AUX)
    Blend: AUG-CC-PVTZ-JKFIT
	 Reference Energy          =    -529.5226750852448276 [Eh]
	 Singles Energy            =      -0.0000000000000000 [Eh]
	 Same-Spin Energy          =      -0.5055542366166480 [Eh]
	 Opposite-Spin Energy      =      -1.5062489501279341 [Eh]
	 Correlation Energy        =      -2.0118031867445820 [Eh]
	 Total Energy              =    -531.5344782719894283 [Eh]

	 ================> DF-SCS-MP2 Energies <==================
	-----------------------------------------------------------
	 SCS Same-Spin Scale       =       0.3333333333333333 [-]
	 SCS Opposite-Spin Scale   =       1.2000000000000000 [-]
	 SCS Same-Spin Energy      =      -0.1685180788722160 [Eh]
	 SCS Opposite-Spin Energy  =      -1.8074987401535210 [Eh]
	 SCS Correlation Energy    =      -1.9760168190257370 [Eh]
	 SCS Total Energy          =    -531.4986919042705722 [Eh]
	-----------------------------------------------------------

  Dipole Moment: [D]
     X:     0.8872      Y:    -2.3316      Z:    -1.5550     Total:     2.9396

*** Psi4 exiting successfully. Buy a developer a beer!
