                               Psi4 1.3.2 release

  ==> Input File <==

--------------------------------------------------------------------------
#psi4
#
memory 32 gb

molecule  {
0 1
  O        0.3011007     1.6285476     0.3309985
  O        2.1914470    -1.4110830     0.2143760
  O       -2.8041000    -0.0533200    -1.0004000
  O        2.6534740     0.6903680    -0.5128080
  O       -2.2475040    -0.2263980     1.1904210
  C        0.4723530     0.2278750     0.4110270
  C       -0.5274950    -0.4947260    -0.4920330
  C        1.8865440    -0.1140510    -0.0062910
  C       -1.9249390    -0.2389030     0.0159280
  H        0.3131310    -0.0976200     1.4451750
  H       -0.3508850    -1.5764080    -0.4792290
  H       -0.4317560    -0.1356430    -1.5200150
  H        1.0272260     1.9763200    -0.1823570
  H        3.1099360    -1.5361820    -0.1045700
  H       -3.6753880     0.0844680    -0.5728280
units angstrom
no_reorient  #important for SAPT in psi4, default
symmetry c1  #important for SAPT in psi4, default
}

set PROPERTIES_ORIGIN ["COM"]
properties('MP2/aug-cc-pvtz', properties = ['dipole'])
--------------------------------------------------------------------------

    Molecular point group: c1
  Charge       = 0
  Multiplicity = 1
  Basis Set: AUG-CC-PVTZ
    Blend: AUG-CC-PVTZ
  Basis Set: (AUG-CC-PVTZ AUX)
    Blend: AUG-CC-PVTZ-JKFIT

    Orbital Energies [Eh]
    ---------------------

    Doubly Occupied:

       1A    -20.644225     2A    -20.626102     3A    -20.581113
       4A    -20.572966     5A    -20.559798     6A    -11.415161
       7A    -11.402378     8A    -11.324392     9A    -11.270283
      10A     -1.490671    11A     -1.469999    12A     -1.399728
      13A     -1.374232    14A     -1.366210    15A     -1.091116
      16A     -0.971827    17A     -0.846996    18A     -0.812733
      19A     -0.759286    20A     -0.735957    21A     -0.714602
      22A     -0.703613    23A     -0.672774    24A     -0.652848
      25A     -0.649608    26A     -0.627777    27A     -0.601089
      28A     -0.590463    29A     -0.559182    30A     -0.546767
      31A     -0.510376    32A     -0.491526    33A     -0.483837
      34A     -0.471751    35A     -0.462068

  @DF-RHF Final Energy:  -529.52453206030043

   => Energetics <=

    Nuclear Repulsion Energy =            464.4238387683406586
    One-Electron Energy =               -1648.9898302661270009
    Two-Electron Energy =                 655.0414594374859689
    Total Energy =                       -529.5245320603004302
  Basis Set: (AUG-CC-PVTZ AUX)
    Blend: AUG-CC-PVTZ-RI
    Molecular point group: c1

    Geometry (in Angstrom), charge = 0, multiplicity = 1:

       Center              X                  Y                   Z               Mass
    ------------   -----------------  -----------------  -----------------  -----------------
         O            0.298265614215     1.618744258783     0.321455608619    15.994914619570
         O            2.188611914215    -1.420886341217     0.204833108619    15.994914619570
         O           -2.806935085785    -0.063123341217    -1.009942891381    15.994914619570
         O            2.650638914215     0.680564658783    -0.522350891381    15.994914619570
         O           -2.250339085785    -0.236201341217     1.180878108619    15.994914619570
         C            0.469517914215     0.218071658783     0.401484108619    12.000000000000
         C           -0.530330085785    -0.504529341217    -0.501575891381    12.000000000000
         C            1.883708914215    -0.123854341217    -0.015833891381    12.000000000000
         C           -1.927774085785    -0.248706341217     0.006385108619    12.000000000000
         H            0.310295914215    -0.107423341217     1.435632108619     1.007825032230
         H           -0.353720085785    -1.586211341217    -0.488771891381     1.007825032230
         H           -0.434591085785    -0.145446341217    -1.529557891381     1.007825032230
         H            1.024390914215     1.966516658783    -0.191899891381     1.007825032230
         H            3.107100914215    -1.545985341217    -0.114112891381     1.007825032230
         H           -3.678223085785     0.074664658783    -0.582370891381     1.007825032230

  Basis Set: AUG-CC-PVTZ
    Blend: AUG-CC-PVTZ
  Basis Set: (AUG-CC-PVTZ AUX)
    Blend: AUG-CC-PVTZ-JKFIT
	 Reference Energy          =    -529.5245320603004302 [Eh]
	 Singles Energy            =      -0.0000000000000000 [Eh]
	 Same-Spin Energy          =      -0.5050752528466107 [Eh]
	 Opposite-Spin Energy      =      -1.5053586535588821 [Eh]
	 Correlation Energy        =      -2.0104339064054928 [Eh]
	 Total Energy              =    -531.5349659667059541 [Eh]

	 ================> DF-SCS-MP2 Energies <==================
	-----------------------------------------------------------
	 SCS Same-Spin Scale       =       0.3333333333333333 [-]
	 SCS Opposite-Spin Scale   =       1.2000000000000000 [-]
	 SCS Same-Spin Energy      =      -0.1683584176155369 [Eh]
	 SCS Opposite-Spin Energy  =      -1.8064303842706584 [Eh]
	 SCS Correlation Energy    =      -1.9747888018861952 [Eh]
	 SCS Total Energy          =    -531.4993208621866643 [Eh]
	-----------------------------------------------------------

  Dipole Moment: [D]
     X:     0.7978      Y:    -2.1931      Z:    -1.5815     Total:     2.8191

*** Psi4 exiting successfully. Buy a developer a beer!
