                               Psi4 1.3.2 release

  ==> Input File <==

--------------------------------------------------------------------------
#psi4
#
memory 32 gb

molecule  {
0 1
  O        0.2778030     1.6259200     0.3386670
  O        2.1914470    -1.4110830     0.2143760
  O       -2.8041000    -0.0533200    -1.0004000
  O        2.6534740     0.6903680    -0.5128080
  O       -2.2475040    -0.2263980     1.1904210
  C        0.5949637     0.2486168     0.3308853
  C       -0.5274950    -0.4947260    -0.4920330
  C        1.8865440    -0.1140510    -0.0062910
  C       -1.9249390    -0.2389030     0.0159280
  H        0.3131310    -0.0976200     1.4451750
  H       -0.3508850    -1.5764080    -0.4792290
  H       -0.4317560    -0.1356430    -1.5200150
  H        1.0272260     1.9763200    -0.1823570
  H        3.1099360    -1.5361820    -0.1045700
  H       -3.6753880     0.0844680    -0.5728280
units angstrom
no_reorient  #important for SAPT in psi4, default
symmetry c1  #important for SAPT in psi4, default
}

set PROPERTIES_ORIGIN ["COM"]
properties('MP2/aug-cc-pvtz', properties = ['dipole'])
--------------------------------------------------------------------------

    Molecular point group: c1
  Charge       = 0
  Multiplicity = 1
  Basis Set: AUG-CC-PVTZ
    Blend: AUG-CC-PVTZ
  Basis Set: (AUG-CC-PVTZ AUX)
    Blend: AUG-CC-PVTZ-JKFIT

    Orbital Energies [Eh]
    ---------------------

    Doubly Occupied:

       1A    -20.645437     2A    -20.627192     3A    -20.582302
       4A    -20.579933     5A    -20.559980     6A    -11.412284
       7A    -11.404030     8A    -11.324524     9A    -11.275173
      10A     -1.495285    11A     -1.470455    12A     -1.404137
      13A     -1.375232    14A     -1.366368    15A     -1.091387
      16A     -0.996359    17A     -0.843585    18A     -0.807348
      19A     -0.770198    20A     -0.736515    21A     -0.714348
      22A     -0.705365    23A     -0.670547    24A     -0.652163
      25A     -0.644089    26A     -0.622053    27A     -0.593856
      28A     -0.591633    29A     -0.572609    30A     -0.546022
      31A     -0.511641    32A     -0.494850    33A     -0.486311
      34A     -0.464803    35A     -0.452343

  @DF-RHF Final Energy:  -529.49608657892782

   => Energetics <=

    Nuclear Repulsion Energy =            465.0629433006104705
    One-Electron Energy =               -1650.1373469603447575
    Two-Electron Energy =                 655.5783170808065279
    Total Energy =                       -529.4960865789278159
  Basis Set: (AUG-CC-PVTZ AUX)
    Blend: AUG-CC-PVTZ-RI
    Molecular point group: c1

    Geometry (in Angstrom), charge = 0, multiplicity = 1:

       Center              X                  Y                   Z               Mass
    ------------   -----------------  -----------------  -----------------  -----------------
         O            0.266770099038     1.614573075653     0.335384620935    15.994914619570
         O            2.180414099038    -1.422429924347     0.211093620935    15.994914619570
         O           -2.815132900962    -0.064666924347    -1.003682379065    15.994914619570
         O            2.642441099038     0.679021075653    -0.516090379065    15.994914619570
         O           -2.258536900962    -0.237744924347     1.187138620935    15.994914619570
         C            0.583930799038     0.237269875653     0.327602920935    12.000000000000
         C           -0.538527900962    -0.506072924347    -0.495315379065    12.000000000000
         C            1.875511099038    -0.125397924347    -0.009573379065    12.000000000000
         C           -1.935971900962    -0.250249924347     0.012645620935    12.000000000000
         H            0.302098099038    -0.108966924347     1.441892620935     1.007825032230
         H           -0.361917900962    -1.587754924347    -0.482511379065     1.007825032230
         H           -0.442788900962    -0.146989924347    -1.523297379065     1.007825032230
         H            1.016193099038     1.964973075653    -0.185639379065     1.007825032230
         H            3.098903099038    -1.547528924347    -0.107852379065     1.007825032230
         H           -3.686420900962     0.073121075653    -0.576110379065     1.007825032230

  Basis Set: AUG-CC-PVTZ
    Blend: AUG-CC-PVTZ
  Basis Set: (AUG-CC-PVTZ AUX)
    Blend: AUG-CC-PVTZ-JKFIT
	 Reference Energy          =    -529.4960865789278159 [Eh]
	 Singles Energy            =      -0.0000000000000000 [Eh]
	 Same-Spin Energy          =      -0.5071919577443463 [Eh]
	 Opposite-Spin Energy      =      -1.5092703242223182 [Eh]
	 Correlation Energy        =      -2.0164622819666644 [Eh]
	 Total Energy              =    -531.5125488608945261 [Eh]

	 ================> DF-SCS-MP2 Energies <==================
	-----------------------------------------------------------
	 SCS Same-Spin Scale       =       0.3333333333333333 [-]
	 SCS Opposite-Spin Scale   =       1.2000000000000000 [-]
	 SCS Same-Spin Energy      =      -0.1690639859147821 [Eh]
	 SCS Opposite-Spin Energy  =      -1.8111243890667819 [Eh]
	 SCS Correlation Energy    =      -1.9801883749815641 [Eh]
	 SCS Total Energy          =    -531.4762749539094102 [Eh]
	-----------------------------------------------------------

  Dipole Moment: [D]
     X:     0.7305      Y:    -2.0650      Z:    -1.6030     Total:     2.7143

*** Psi4 exiting successfully. Buy a developer a beer!
