                               Psi4 1.4a3.dev225

  ==> Input File <==

--------------------------------------------------------------------------
#psi4
#
memory 32 gb

molecule  {
0 1
  O        0.2776560     1.6256810     0.3396990
  O        2.1917380    -1.4109440     0.2140340
  O       -2.8039560    -0.0525170    -1.0004960
  O        2.6531900     0.6906990    -0.5129330
  O       -2.2475620    -0.2274030     1.1902310
  C        0.4723300     0.2276130     0.4112310
  C       -0.5274300    -0.4946180    -0.4922450
  C        1.8865320    -0.1139530    -0.0063600
  C       -1.9248990    -0.2390210     0.0157560
  H        0.3131550    -0.0984550     1.4451980
  H       -0.3508110    -1.5763050    -0.4798880
  H       -0.4316230    -0.1350800    -1.5200620
  H        1.0649424     1.9942813    -0.2084561
  H        3.1101710    -1.5358420    -0.1051610
  H       -3.6752580     0.0850810    -0.5728850
units angstrom
no_reorient  #important for SAPT in psi4, default
symmetry c1  #important for SAPT in psi4, default
}

set PROPERTIES_ORIGIN ["COM"]
properties('MP2/aug-cc-pvtz', properties = ['dipole'])
--------------------------------------------------------------------------

    Molecular point group: c1
  Charge       = 0
  Multiplicity = 1
  Basis Set: AUG-CC-PVTZ
    Blend: AUG-CC-PVTZ
  Basis Set: (AUG-CC-PVTZ AUX)
    Blend: AUG-CC-PVTZ-JKFIT

    Orbital Energies [Eh]
    ---------------------

    Doubly Occupied:

       1A    -20.644990     2A    -20.625425     3A    -20.582544
       4A    -20.577788     5A    -20.558948     6A    -11.416066
       7A    -11.401606     8A    -11.322912     9A    -11.269318
      10A     -1.491279    11A     -1.469259    12A     -1.394925
      13A     -1.368530    14A     -1.362884    15A     -1.087668
      16A     -0.970467    17A     -0.844688    18A     -0.808287
      19A     -0.756373    20A     -0.736426    21A     -0.713411
      22A     -0.701197    23A     -0.672082    24A     -0.651475
      25A     -0.643917    26A     -0.626894    27A     -0.598882
      28A     -0.589561    29A     -0.557543    30A     -0.542524
      31A     -0.511652    32A     -0.491229    33A     -0.484283
      34A     -0.468939    35A     -0.461280

  @DF-RHF Final Energy:  -529.51849348788471

   => Energetics <=

    Nuclear Repulsion Energy =            464.0634683240310778
    One-Electron Energy =               -1648.3534154142953412
    Two-Electron Energy =                 654.7714536023796654
    Total Energy =                       -529.5184934878847116
  Basis Set: (AUG-CC-PVTZ AUX)
    Blend: AUG-CC-PVTZ-RI
    Molecular point group: c1

    Geometry (in Angstrom), charge = 0, multiplicity = 1:

       Center              X                  Y                   Z               Mass
    ------------   -----------------  -----------------  -----------------  -----------------
         O            0.277313470960     1.616062408232     0.329436173192    15.994914619570
         O            2.191395470960    -1.420562591768     0.203771173192    15.994914619570
         O           -2.804298529040    -0.062135591768    -1.010758826808    15.994914619570
         O            2.652847470960     0.681080408232    -0.523195826808    15.994914619570
         O           -2.247904529040    -0.237021591768     1.179968173192    15.994914619570
         C            0.471987470960     0.217994408232     0.400968173192    12.000000000000
         C           -0.527772529040    -0.504236591768    -0.502507826808    12.000000000000
         C            1.886189470960    -0.123571591768    -0.016622826808    12.000000000000
         C           -1.925241529040    -0.248639591768     0.005493173192    12.000000000000
         H            0.312812470960    -0.108073591768     1.434935173192     1.007825032230
         H           -0.351153529040    -1.585923591768    -0.490150826808     1.007825032230
         H           -0.431965529040    -0.144698591768    -1.530324826808     1.007825032230
         H            1.064599870960     1.984662708232    -0.218718926808     1.007825032230
         H            3.109828470960    -1.545460591768    -0.115423826808     1.007825032230
         H           -3.675600529040     0.075462408232    -0.583147826808     1.007825032230

  Basis Set: AUG-CC-PVTZ
    Blend: AUG-CC-PVTZ
  Basis Set: (AUG-CC-PVTZ AUX)
    Blend: AUG-CC-PVTZ-JKFIT
	 Reference Energy          =    -529.5184934878847116 [Eh]
	 Singles Energy            =      -0.0000000000000000 [Eh]
	 Same-Spin Energy          =      -0.5061427927450182 [Eh]
	 Opposite-Spin Energy      =      -1.5077397498371057 [Eh]
	 Correlation Energy        =      -2.0138825425821238 [Eh]
	 Total Energy              =    -531.5323760304668212 [Eh]

	 ================> DF-SCS-MP2 Energies <==================
	-----------------------------------------------------------
	 SCS Same-Spin Scale       =       0.3333333333333333 [-]
	 SCS Opposite-Spin Scale   =       1.2000000000000000 [-]
	 SCS Same-Spin Energy      =      -0.1687142642483394 [Eh]
	 SCS Opposite-Spin Energy  =      -1.8092876998045266 [Eh]
	 SCS Correlation Energy    =      -1.9780019640528661 [Eh]
	 SCS Total Energy          =    -531.4964954519375624 [Eh]
	-----------------------------------------------------------

  Dipole Moment: [D]
     X:     0.9121      Y:    -2.1659      Z:    -1.6170     Total:     2.8527

*** Psi4 exiting successfully. Buy a developer a beer!
