                               Psi4 1.4a3.dev225

  ==> Input File <==

--------------------------------------------------------------------------
#psi4
#
memory 32 gb

molecule  {
0 1
  O        0.2776560     1.6256810     0.3396990
  O        2.1917380    -1.4109440     0.2140340
  O       -2.8039560    -0.0525170    -1.0004960
  O        2.6531900     0.6906990    -0.5129330
  O       -2.2475620    -0.2274030     1.1902310
  C        0.4723300     0.2276130     0.4112310
  C       -0.5274300    -0.4946180    -0.4922450
  C        1.8551479    -0.1468924     0.0143772
  C       -1.9248990    -0.2390210     0.0157560
  H        0.3131550    -0.0984550     1.4451980
  H       -0.3508110    -1.5763050    -0.4798880
  H       -0.4316230    -0.1350800    -1.5200620
  H        1.0266390     1.9763480    -0.1817870
  H        3.1101710    -1.5358420    -0.1051610
  H       -3.6752580     0.0850810    -0.5728850
units angstrom
no_reorient  #important for SAPT in psi4, default
symmetry c1  #important for SAPT in psi4, default
}

set PROPERTIES_ORIGIN ["COM"]
properties('MP2/aug-cc-pvtz', properties = ['dipole'])
--------------------------------------------------------------------------

    Molecular point group: c1
  Charge       = 0
  Multiplicity = 1
  Basis Set: AUG-CC-PVTZ
    Blend: AUG-CC-PVTZ
  Basis Set: (AUG-CC-PVTZ AUX)
    Blend: AUG-CC-PVTZ-JKFIT

    Orbital Energies [Eh]
    ---------------------

    Doubly Occupied:

       1A    -20.653187     2A    -20.626818     3A    -20.576530
       4A    -20.572528     5A    -20.560582     6A    -11.420113
       7A    -11.403310     8A    -11.325151     9A    -11.272193
      10A     -1.496957    11A     -1.470751    12A     -1.392499
      13A     -1.367522    14A     -1.351963    15A     -1.095401
      16A     -0.980424    17A     -0.854398    18A     -0.814892
      19A     -0.763266    20A     -0.734615    21A     -0.715085
      22A     -0.704026    23A     -0.673562    24A     -0.654599
      25A     -0.647008    26A     -0.621848    27A     -0.600045
      28A     -0.590920    29A     -0.560508    30A     -0.544483
      31A     -0.495394    32A     -0.491526    33A     -0.481660
      34A     -0.472242    35A     -0.463360

  @DF-RHF Final Energy:  -529.51566948136610

   => Energetics <=

    Nuclear Repulsion Energy =            464.3926079140779279
    One-Electron Energy =               -1648.9178288875525595
    Two-Electron Energy =                 655.0095514921085851
    Total Energy =                       -529.5156694813661034
  Basis Set: (AUG-CC-PVTZ AUX)
    Blend: AUG-CC-PVTZ-RI
    Molecular point group: c1

    Geometry (in Angstrom), charge = 0, multiplicity = 1:

       Center              X                  Y                   Z               Mass
    ------------   -----------------  -----------------  -----------------  -----------------
         O            0.280411572781     1.619146587687     0.327378860458    15.994914619570
         O            2.194493572781    -1.417478412313     0.201713860458    15.994914619570
         O           -2.801200427219    -0.059051412313    -1.012816139542    15.994914619570
         O            2.655945572781     0.684164587687    -0.525253139542    15.994914619570
         O           -2.244806427219    -0.233937412313     1.177910860458    15.994914619570
         C            0.475085572781     0.221078587687     0.398910860458    12.000000000000
         C           -0.524674427219    -0.501152412313    -0.504565139542    12.000000000000
         C            1.857903472781    -0.153426812313     0.002057060458    12.000000000000
         C           -1.922143427219    -0.245555412313     0.003435860458    12.000000000000
         H            0.315910572781    -0.104989412313     1.432877860458     1.007825032230
         H           -0.348055427219    -1.582839412313    -0.492208139542     1.007825032230
         H           -0.428867427219    -0.141614412313    -1.532382139542     1.007825032230
         H            1.029394572781     1.969813587687    -0.194107139542     1.007825032230
         H            3.112926572781    -1.542376412313    -0.117481139542     1.007825032230
         H           -3.672502427219     0.078546587687    -0.585205139542     1.007825032230

  Basis Set: AUG-CC-PVTZ
    Blend: AUG-CC-PVTZ
  Basis Set: (AUG-CC-PVTZ AUX)
    Blend: AUG-CC-PVTZ-JKFIT
	 Reference Energy          =    -529.5156694813661034 [Eh]
	 Singles Energy            =      -0.0000000000000000 [Eh]
	 Same-Spin Energy          =      -0.5065533766037680 [Eh]
	 Opposite-Spin Energy      =      -1.5080520833767777 [Eh]
	 Correlation Energy        =      -2.0146054599805456 [Eh]
	 Total Energy              =    -531.5302749413466472 [Eh]

	 ================> DF-SCS-MP2 Energies <==================
	-----------------------------------------------------------
	 SCS Same-Spin Scale       =       0.3333333333333333 [-]
	 SCS Opposite-Spin Scale   =       1.2000000000000000 [-]
	 SCS Same-Spin Energy      =      -0.1688511255345893 [Eh]
	 SCS Opposite-Spin Energy  =      -1.8096625000521331 [Eh]
	 SCS Correlation Energy    =      -1.9785136255867224 [Eh]
	 SCS Total Energy          =    -531.4941831069528462 [Eh]
	-----------------------------------------------------------

  Dipole Moment: [D]
     X:     0.6833      Y:    -2.4497      Z:    -1.4729     Total:     2.9389

*** Psi4 exiting successfully. Buy a developer a beer!
