                               Psi4 1.4a3.dev225

  ==> Input File <==

--------------------------------------------------------------------------
#psi4
#
memory 32 gb

molecule  {
0 1
  O        0.2776560     1.6256810     0.3396990
  O        2.1917380    -1.4109440     0.2140340
  O       -2.8039560    -0.0525170    -1.0004960
  O        2.6531900     0.6906990    -0.5129330
  O       -2.2475620    -0.2274030     1.1902310
  C        0.4792169     0.1781543     0.4137616
  C       -0.5274300    -0.4946180    -0.4922450
  C        1.8865320    -0.1139530    -0.0063600
  C       -1.9248990    -0.2390210     0.0157560
  H        0.3131550    -0.0984550     1.4451980
  H       -0.3508110    -1.5763050    -0.4798880
  H       -0.4316230    -0.1350800    -1.5200620
  H        1.0266390     1.9763480    -0.1817870
  H        3.1101710    -1.5358420    -0.1051610
  H       -3.6752580     0.0850810    -0.5728850
units angstrom
no_reorient  #important for SAPT in psi4, default
symmetry c1  #important for SAPT in psi4, default
}

set PROPERTIES_ORIGIN ["COM"]
properties('MP2/aug-cc-pvtz', properties = ['dipole'])
--------------------------------------------------------------------------

    Molecular point group: c1
  Charge       = 0
  Multiplicity = 1
  Basis Set: AUG-CC-PVTZ
    Blend: AUG-CC-PVTZ
  Basis Set: (AUG-CC-PVTZ AUX)
    Blend: AUG-CC-PVTZ-JKFIT

    Orbital Energies [Eh]
    ---------------------

    Doubly Occupied:

       1A    -20.644992     2A    -20.626596     3A    -20.583690
       4A    -20.570438     5A    -20.560118     6A    -11.417630
       7A    -11.403338     8A    -11.323364     9A    -11.271576
      10A     -1.492371    11A     -1.470409    12A     -1.393483
      13A     -1.368137    14A     -1.357500    15A     -1.095867
      16A     -0.976818    17A     -0.847609    18A     -0.810328
      19A     -0.756321    20A     -0.737325    21A     -0.714581
      22A     -0.701917    23A     -0.673231    24A     -0.653190
      25A     -0.643643    26A     -0.625182    27A     -0.598338
      28A     -0.590339    29A     -0.556628    30A     -0.543561
      31A     -0.511747    32A     -0.492792    33A     -0.487068
      34A     -0.472901    35A     -0.463797

  @DF-RHF Final Energy:  -529.51975139382989

   => Energetics <=

    Nuclear Repulsion Energy =            464.1909284351839347
    One-Electron Energy =               -1648.5477067577235175
    Two-Electron Energy =                 654.8370269287097472
    Total Energy =                       -529.5197513938298925
  Basis Set: (AUG-CC-PVTZ AUX)
    Blend: AUG-CC-PVTZ-RI
    Molecular point group: c1

    Geometry (in Angstrom), charge = 0, multiplicity = 1:

       Center              X                  Y                   Z               Mass
    ------------   -----------------  -----------------  -----------------  -----------------
         O            0.276984869452     1.620625690409     0.329009040407    15.994914619570
         O            2.191066869452    -1.415999309591     0.203344040407    15.994914619570
         O           -2.804627130548    -0.057572309591    -1.011185959593    15.994914619570
         O            2.652518869452     0.685643690409    -0.523622959593    15.994914619570
         O           -2.248233130548    -0.232458309591     1.179541040407    15.994914619570
         C            0.478545769452     0.173098990409     0.403071640407    12.000000000000
         C           -0.528101130548    -0.499673309591    -0.502934959593    12.000000000000
         C            1.885860869452    -0.119008309591    -0.017049959593    12.000000000000
         C           -1.925570130548    -0.244076309591     0.005066040407    12.000000000000
         H            0.312483869452    -0.103510309591     1.434508040407     1.007825032230
         H           -0.351482130548    -1.581360309591    -0.490577959593     1.007825032230
         H           -0.432294130548    -0.140135309591    -1.530751959593     1.007825032230
         H            1.025967869452     1.971292690409    -0.192476959593     1.007825032230
         H            3.109499869452    -1.540897309591    -0.115850959593     1.007825032230
         H           -3.675929130548     0.080025690409    -0.583574959593     1.007825032230

  Basis Set: AUG-CC-PVTZ
    Blend: AUG-CC-PVTZ
  Basis Set: (AUG-CC-PVTZ AUX)
    Blend: AUG-CC-PVTZ-JKFIT
	 Reference Energy          =    -529.5197513938298925 [Eh]
	 Singles Energy            =      -0.0000000000000000 [Eh]
	 Same-Spin Energy          =      -0.5057047249259460 [Eh]
	 Opposite-Spin Energy      =      -1.5074352941084368 [Eh]
	 Correlation Energy        =      -2.0131400190343829 [Eh]
	 Total Energy              =    -531.5328914128642737 [Eh]

	 ================> DF-SCS-MP2 Energies <==================
	-----------------------------------------------------------
	 SCS Same-Spin Scale       =       0.3333333333333333 [-]
	 SCS Opposite-Spin Scale   =       1.2000000000000000 [-]
	 SCS Same-Spin Energy      =      -0.1685682416419820 [Eh]
	 SCS Opposite-Spin Energy  =      -1.8089223529301242 [Eh]
	 SCS Correlation Energy    =      -1.9774905945721062 [Eh]
	 SCS Total Energy          =    -531.4972419884020383 [Eh]
	-----------------------------------------------------------

  Dipole Moment: [D]
     X:     0.8440      Y:    -2.3329      Z:    -1.5996     Total:     2.9519

*** Psi4 exiting successfully. Buy a developer a beer!
