                               Psi4 1.3.2 release

  ==> Input File <==

--------------------------------------------------------------------------
#psi4
#
memory 32 gb

molecule  {
0 1
  O        0.2778030     1.6259200     0.3386670
  O        2.1914470    -1.4110830     0.2143760
  O       -2.8041000    -0.0533200    -1.0004000
  O        2.6534740     0.6903680    -0.5128080
  O       -2.2475040    -0.2263980     1.1904210
  C        0.4998829     0.0300436     0.4212664
  C       -0.5274950    -0.4947260    -0.4920330
  C        1.8865440    -0.1140510    -0.0062910
  C       -1.9249390    -0.2389030     0.0159280
  H        0.3131310    -0.0976200     1.4451750
  H       -0.3508850    -1.5764080    -0.4792290
  H       -0.4317560    -0.1356430    -1.5200150
  H        1.0272260     1.9763200    -0.1823570
  H        3.1099360    -1.5361820    -0.1045700
  H       -3.6753880     0.0844680    -0.5728280
units angstrom
no_reorient  #important for SAPT in psi4, default
symmetry c1  #important for SAPT in psi4, default
}

set PROPERTIES_ORIGIN ["COM"]
properties('MP2/aug-cc-pvtz', properties = ['dipole'])
--------------------------------------------------------------------------

    Molecular point group: c1
  Charge       = 0
  Multiplicity = 1
  Basis Set: AUG-CC-PVTZ
    Blend: AUG-CC-PVTZ
  Basis Set: (AUG-CC-PVTZ AUX)
    Blend: AUG-CC-PVTZ-JKFIT

    Orbital Energies [Eh]
    ---------------------

    Doubly Occupied:

       1A    -20.646025     2A    -20.628875     3A    -20.589144
       4A    -20.562099     5A    -20.554065     6A    -11.423239
       7A    -11.407109     8A    -11.327685     9A    -11.277056
      10A     -1.497179    11A     -1.472539    12A     -1.393619
      13A     -1.369563    14A     -1.315171    15A     -1.112974
      16A     -0.991717    17A     -0.854287    18A     -0.811396
      19A     -0.754775    20A     -0.740815    21A     -0.716910
      22A     -0.699641    23A     -0.675590    24A     -0.658237
      25A     -0.636281    26A     -0.620106    27A     -0.598944
      28A     -0.594269    29A     -0.563286    30A     -0.516902
      31A     -0.504724    32A     -0.498333    33A     -0.488012
      34A     -0.468939    35A     -0.466223

  @DF-RHF Final Energy:  -529.48582494761524

   => Energetics <=

    Nuclear Repulsion Energy =            463.7878186414635593
    One-Electron Energy =               -1647.6758252027491380
    Two-Electron Energy =                 654.4021816136704501
    Total Energy =                       -529.4858249476152423
  Basis Set: (AUG-CC-PVTZ AUX)
    Blend: AUG-CC-PVTZ-RI
    Molecular point group: c1

    Geometry (in Angstrom), charge = 0, multiplicity = 1:

       Center              X                  Y                   Z               Mass
    ------------   -----------------  -----------------  -----------------  -----------------
         O            0.275283430120     1.634143651600     0.327292090919    15.994914619570
         O            2.188927430120    -1.402859348400     0.203001090919    15.994914619570
         O           -2.806619569880    -0.045096348400    -1.011774909081    15.994914619570
         O            2.650954430120     0.698591651600    -0.524182909081    15.994914619570
         O           -2.250023569880    -0.218174348400     1.179046090919    15.994914619570
         C            0.497363330120     0.038267251600     0.409891490919    12.000000000000
         C           -0.530014569880    -0.486502348400    -0.503407909081    12.000000000000
         C            1.884024430120    -0.105827348400    -0.017665909081    12.000000000000
         C           -1.927458569880    -0.230679348400     0.004553090919    12.000000000000
         H            0.310611430120    -0.089396348400     1.433800090919     1.007825032230
         H           -0.353404569880    -1.568184348400    -0.490603909081     1.007825032230
         H           -0.434275569880    -0.127419348400    -1.531389909081     1.007825032230
         H            1.024706430120     1.984543651600    -0.193731909081     1.007825032230
         H            3.107416430120    -1.527958348400    -0.115944909081     1.007825032230
         H           -3.677907569880     0.092691651600    -0.584202909081     1.007825032230

  Basis Set: AUG-CC-PVTZ
    Blend: AUG-CC-PVTZ
  Basis Set: (AUG-CC-PVTZ AUX)
    Blend: AUG-CC-PVTZ-JKFIT
	 Reference Energy          =    -529.4858249476152423 [Eh]
	 Singles Energy            =      -0.0000000000000000 [Eh]
	 Same-Spin Energy          =      -0.5076186593202701 [Eh]
	 Opposite-Spin Energy      =      -1.5131065641733441 [Eh]
	 Correlation Energy        =      -2.0207252234936144 [Eh]
	 Total Energy              =    -531.5065501711088700 [Eh]

	 ================> DF-SCS-MP2 Energies <==================
	-----------------------------------------------------------
	 SCS Same-Spin Scale       =       0.3333333333333333 [-]
	 SCS Opposite-Spin Scale   =       1.2000000000000000 [-]
	 SCS Same-Spin Energy      =      -0.1692062197734233 [Eh]
	 SCS Opposite-Spin Energy  =      -1.8157278770080127 [Eh]
	 SCS Correlation Energy    =      -1.9849340967814362 [Eh]
	 SCS Total Energy          =    -531.4707590443966865 [Eh]
	-----------------------------------------------------------

  Dipole Moment: [D]
     X:     0.8397      Y:    -2.7196      Z:    -1.6366     Total:     3.2833

*** Psi4 exiting successfully. Buy a developer a beer!
