                               Psi4 1.3.2 release

  ==> Input File <==

--------------------------------------------------------------------------
#psi4
#
memory 32 gb

molecule  {
0 1
  O        0.2778030     1.6259200     0.3386670
  O        2.1914470    -1.4110830     0.2143760
  O       -2.8041000    -0.0533200    -1.0004000
  O        2.6534740     0.6903680    -0.5128080
  O       -2.2475040    -0.2263980     1.1904210
  C        0.4723530     0.2278750     0.4110270
  C       -0.5274950    -0.4947260    -0.4920330
  C        1.8865440    -0.1140510    -0.0062910
  C       -1.9249390    -0.2389030     0.0159280
  H        0.3131310    -0.0976200     1.4451750
  H       -0.3508850    -1.5764080    -0.4792290
  H       -0.4317560    -0.1356430    -1.5200150
  H        0.9505737     1.9404805    -0.1290658
  H        3.1099360    -1.5361820    -0.1045700
  H       -3.6753880     0.0844680    -0.5728280
units angstrom
no_reorient  #important for SAPT in psi4, default
symmetry c1  #important for SAPT in psi4, default
}

set PROPERTIES_ORIGIN ["COM"]
properties('MP2/aug-cc-pvtz', properties = ['dipole'])
--------------------------------------------------------------------------

    Molecular point group: c1
  Charge       = 0
  Multiplicity = 1
  Basis Set: AUG-CC-PVTZ
    Blend: AUG-CC-PVTZ
  Basis Set: (AUG-CC-PVTZ AUX)
    Blend: AUG-CC-PVTZ-JKFIT

    Orbital Energies [Eh]
    ---------------------

    Doubly Occupied:

       1A    -20.644546     2A    -20.626419     3A    -20.580894
       4A    -20.568983     5A    -20.560113     6A    -11.415892
       7A    -11.402742     8A    -11.325467     9A    -11.270802
      10A     -1.491132    11A     -1.470347    12A     -1.414381
      13A     -1.380921    14A     -1.367021    15A     -1.094868
      16A     -0.973770    17A     -0.850935    18A     -0.817298
      19A     -0.764129    20A     -0.735976    21A     -0.715462
      22A     -0.705894    23A     -0.673577    24A     -0.657350
      25A     -0.650876    26A     -0.628931    27A     -0.602868
      28A     -0.591529    29A     -0.560617    30A     -0.555826
      31A     -0.510219    32A     -0.491771    33A     -0.483517
      34A     -0.474754    35A     -0.462744

  @DF-RHF Final Energy:  -529.51884377248257

   => Energetics <=

    Nuclear Repulsion Energy =            464.9479609054193361
    One-Electron Energy =               -1649.8884691145149191
    Two-Electron Energy =                 655.4216644366131277
    Total Energy =                       -529.5188437724825690
  Basis Set: (AUG-CC-PVTZ AUX)
    Blend: AUG-CC-PVTZ-RI
    Molecular point group: c1

    Geometry (in Angstrom), charge = 0, multiplicity = 1:

       Center              X                  Y                   Z               Mass
    ------------   -----------------  -----------------  -----------------  -----------------
         O            0.278324814047     1.616699760519     0.327808161719    15.994914619570
         O            2.191968814047    -1.420303239481     0.203517161719    15.994914619570
         O           -2.803578185953    -0.062540239481    -1.011258838281    15.994914619570
         O            2.653995814047     0.681147760519    -0.523666838281    15.994914619570
         O           -2.246982185953    -0.235618239481     1.179562161719    15.994914619570
         C            0.472874814047     0.218654760519     0.400168161719    12.000000000000
         C           -0.526973185953    -0.503946239481    -0.502891838281    12.000000000000
         C            1.887065814047    -0.123271239481    -0.017149838281    12.000000000000
         C           -1.924417185953    -0.248123239481     0.005069161719    12.000000000000
         H            0.313652814047    -0.106840239481     1.434316161719     1.007825032230
         H           -0.350363185953    -1.585628239481    -0.490087838281     1.007825032230
         H           -0.431234185953    -0.144863239481    -1.530873838281     1.007825032230
         H            0.951095514047     1.931260260519    -0.139924638281     1.007825032230
         H            3.110457814047    -1.545402239481    -0.115428838281     1.007825032230
         H           -3.674866185953     0.075247760519    -0.583686838281     1.007825032230

  Basis Set: AUG-CC-PVTZ
    Blend: AUG-CC-PVTZ
  Basis Set: (AUG-CC-PVTZ AUX)
    Blend: AUG-CC-PVTZ-JKFIT
	 Reference Energy          =    -529.5188437724825690 [Eh]
	 Singles Energy            =      -0.0000000000000000 [Eh]
	 Same-Spin Energy          =      -0.5040582206479692 [Eh]
	 Opposite-Spin Energy      =      -1.5033072836457746 [Eh]
	 Correlation Energy        =      -2.0073655042937437 [Eh]
	 Total Energy              =    -531.5262092767762852 [Eh]

	 ================> DF-SCS-MP2 Energies <==================
	-----------------------------------------------------------
	 SCS Same-Spin Scale       =       0.3333333333333333 [-]
	 SCS Opposite-Spin Scale   =       1.2000000000000000 [-]
	 SCS Same-Spin Energy      =      -0.1680194068826564 [Eh]
	 SCS Opposite-Spin Energy  =      -1.8039687403749294 [Eh]
	 SCS Correlation Energy    =      -1.9719881472575858 [Eh]
	 SCS Total Energy          =    -531.4908319197401170 [Eh]
	-----------------------------------------------------------

  Dipole Moment: [D]
     X:     0.7359      Y:    -2.2228      Z:    -1.5338     Total:     2.7991

*** Psi4 exiting successfully. Buy a developer a beer!
