                               Psi4 1.4a3.dev225

  ==> Input File <==

--------------------------------------------------------------------------
#psi4
#
memory 32 gb

molecule  {
0 1
  O        0.2776560     1.6256810     0.3396990
  O        2.1917380    -1.4109440     0.2140340
  O       -2.8039560    -0.0525170    -1.0004960
  O        2.6531900     0.6906990    -0.5129330
  O       -2.2475620    -0.2274030     1.1902310
  C        0.4723300     0.2276130     0.4112310
  C       -0.5274300    -0.4946180    -0.4922450
  C        1.8752324    -0.0659349    -0.0145196
  C       -1.9248990    -0.2390210     0.0157560
  H        0.3131550    -0.0984550     1.4451980
  H       -0.3508110    -1.5763050    -0.4798880
  H       -0.4316230    -0.1350800    -1.5200620
  H        1.0266390     1.9763480    -0.1817870
  H        3.1101710    -1.5358420    -0.1051610
  H       -3.6752580     0.0850810    -0.5728850
units angstrom
no_reorient  #important for SAPT in psi4, default
symmetry c1  #important for SAPT in psi4, default
}

set PROPERTIES_ORIGIN ["COM"]
properties('MP2/aug-cc-pvtz', properties = ['dipole'])
--------------------------------------------------------------------------

    Molecular point group: c1
  Charge       = 0
  Multiplicity = 1
  Basis Set: AUG-CC-PVTZ
    Blend: AUG-CC-PVTZ
  Basis Set: (AUG-CC-PVTZ AUX)
    Blend: AUG-CC-PVTZ-JKFIT

    Orbital Energies [Eh]
    ---------------------

    Doubly Occupied:

       1A    -20.630420     2A    -20.626580     3A    -20.590243
       4A    -20.577414     5A    -20.560263     6A    -11.415091
       7A    -11.403032     8A    -11.324976     9A    -11.271093
      10A     -1.485262    11A     -1.470453    12A     -1.395203
      13A     -1.379092    14A     -1.366793    15A     -1.091780
      16A     -0.973590    17A     -0.839221    18A     -0.809056
      19A     -0.757164    20A     -0.734728    21A     -0.714927
      22A     -0.704133    23A     -0.673161    24A     -0.648196
      25A     -0.644675    26A     -0.629943    27A     -0.600902
      28A     -0.590222    29A     -0.559453    30A     -0.552327
      31A     -0.517484    32A     -0.492549    33A     -0.486994
      34A     -0.472669    35A     -0.463137

  @DF-RHF Final Energy:  -529.52121373317323

   => Energetics <=

    Nuclear Repulsion Energy =            464.5233170875268911
    One-Electron Energy =               -1649.1846113944575336
    Two-Electron Energy =                 655.1400805737573592
    Total Energy =                       -529.5212137331732265
  Basis Set: (AUG-CC-PVTZ AUX)
    Blend: AUG-CC-PVTZ-RI
    Molecular point group: c1

    Geometry (in Angstrom), charge = 0, multiplicity = 1:

       Center              X                  Y                   Z               Mass
    ------------   -----------------  -----------------  -----------------  -----------------
         O            0.278613249690     1.611897826621     0.329966218007    15.994914619570
         O            2.192695249690    -1.424727173379     0.204301218007    15.994914619570
         O           -2.802998750310    -0.066300173379    -1.010228781993    15.994914619570
         O            2.654147249690     0.676915826621    -0.522665781993    15.994914619570
         O           -2.246604750310    -0.241186173379     1.180498218007    15.994914619570
         C            0.473287249690     0.213829826621     0.401498218007    12.000000000000
         C           -0.526472750310    -0.508401173379    -0.501977781993    12.000000000000
         C            1.876189649690    -0.079718073379    -0.024252381993    12.000000000000
         C           -1.923941750310    -0.252804173379     0.006023218007    12.000000000000
         H            0.314112249690    -0.112238173379     1.435465218007     1.007825032230
         H           -0.349853750310    -1.590088173379    -0.489620781993     1.007825032230
         H           -0.430665750310    -0.148863173379    -1.529794781993     1.007825032230
         H            1.027596249690     1.962564826621    -0.191519781993     1.007825032230
         H            3.111128249690    -1.549625173379    -0.114893781993     1.007825032230
         H           -3.674300750310     0.071297826621    -0.582617781993     1.007825032230

  Basis Set: AUG-CC-PVTZ
    Blend: AUG-CC-PVTZ
  Basis Set: (AUG-CC-PVTZ AUX)
    Blend: AUG-CC-PVTZ-JKFIT
	 Reference Energy          =    -529.5212137331732265 [Eh]
	 Singles Energy            =      -0.0000000000000000 [Eh]
	 Same-Spin Energy          =      -0.5052397267537861 [Eh]
	 Opposite-Spin Energy      =      -1.5062103293989137 [Eh]
	 Correlation Energy        =      -2.0114500561526998 [Eh]
	 Total Energy              =    -531.5326637893259658 [Eh]

	 ================> DF-SCS-MP2 Energies <==================
	-----------------------------------------------------------
	 SCS Same-Spin Scale       =       0.3333333333333333 [-]
	 SCS Opposite-Spin Scale   =       1.2000000000000000 [-]
	 SCS Same-Spin Energy      =      -0.1684132422512620 [Eh]
	 SCS Opposite-Spin Energy  =      -1.8074523952786965 [Eh]
	 SCS Correlation Energy    =      -1.9758656375299586 [Eh]
	 SCS Total Energy          =    -531.4970793707032044 [Eh]
	-----------------------------------------------------------

  Dipole Moment: [D]
     X:     0.7464      Y:    -1.7979      Z:    -1.6723     Total:     2.5663

*** Psi4 exiting successfully. Buy a developer a beer!
