                               Psi4 1.3.2 release

  ==> Input File <==

--------------------------------------------------------------------------
#psi4
#
memory 32 gb

molecule  {
0 1
  O        0.2778030     1.6259200     0.3386670
  O        2.1914470    -1.4110830     0.2143760
  O       -2.8041000    -0.0533200    -1.0004000
  O        2.6534740     0.6903680    -0.5128080
  O       -2.2475040    -0.2263980     1.1904210
  C        0.4723530     0.2278750     0.4110270
  C       -0.5274950    -0.4947260    -0.4920330
  C        1.8865440    -0.1140510    -0.0062910
  C       -1.9249390    -0.2389030     0.0159280
  H        0.3131310    -0.0976200     1.4451750
  H       -0.3508850    -1.5764080    -0.4792290
  H       -0.4317560    -0.1356430    -1.5200150
  H        1.0272260     1.9763200    -0.1823570
  H        3.2973244    -1.5617045    -0.1696408
  H       -3.6753880     0.0844680    -0.5728280
units angstrom
no_reorient  #important for SAPT in psi4, default
symmetry c1  #important for SAPT in psi4, default
}

set PROPERTIES_ORIGIN ["COM"]
properties('MP2/aug-cc-pvtz', properties = ['dipole'])
--------------------------------------------------------------------------

    Molecular point group: c1
  Charge       = 0
  Multiplicity = 1
  Basis Set: AUG-CC-PVTZ
    Blend: AUG-CC-PVTZ
  Basis Set: (AUG-CC-PVTZ AUX)
    Blend: AUG-CC-PVTZ-JKFIT

    Orbital Energies [Eh]
    ---------------------

    Doubly Occupied:

       1A    -20.652282     2A    -20.624882     3A    -20.577996
       4A    -20.574249     5A    -20.558353     6A    -11.411873
       7A    -11.400919     8A    -11.322640     9A    -11.268415
      10A     -1.471555    11A     -1.468404    12A     -1.386732
      13A     -1.366692    14A     -1.363090    15A     -1.086615
      16A     -0.962235    17A     -0.831149    18A     -0.803018
      19A     -0.750507    20A     -0.719335    21A     -0.711522
      22A     -0.698643    23A     -0.669185    24A     -0.645452
      25A     -0.637827    26A     -0.621788    27A     -0.597055
      28A     -0.588403    29A     -0.556962    30A     -0.540091
      31A     -0.505463    32A     -0.489839    33A     -0.481211
      34A     -0.469496    35A     -0.460502

  @DF-RHF Final Energy:  -529.48869929258217

   => Energetics <=

    Nuclear Repulsion Energy =            463.2166794116402002
    One-Electron Energy =               -1646.8620002127402131
    Two-Electron Energy =                 654.1566215085179010
    Total Energy =                       -529.4886992925821687
  Basis Set: (AUG-CC-PVTZ AUX)
    Blend: AUG-CC-PVTZ-RI
    Molecular point group: c1

    Geometry (in Angstrom), charge = 0, multiplicity = 1:

       Center              X                  Y                   Z               Mass
    ------------   -----------------  -----------------  -----------------  -----------------
         O            0.276339261126     1.616622177974     0.328698229101    15.994914619570
         O            2.189983261126    -1.420380822026     0.204407229101    15.994914619570
         O           -2.805563738874    -0.062617822026    -1.010368770899    15.994914619570
         O            2.652010261126     0.681070177974    -0.522776770899    15.994914619570
         O           -2.248967738874    -0.235695822026     1.180452229101    15.994914619570
         C            0.470889261126     0.218577177974     0.401058229101    12.000000000000
         C           -0.528958738874    -0.504023822026    -0.502001770899    12.000000000000
         C            1.885080261126    -0.123348822026    -0.016259770899    12.000000000000
         C           -1.926402738874    -0.248200822026     0.005959229101    12.000000000000
         H            0.311667261126    -0.106917822026     1.435206229101     1.007825032230
         H           -0.352348738874    -1.585705822026    -0.489197770899     1.007825032230
         H           -0.433219738874    -0.144940822026    -1.529983770899     1.007825032230
         H            1.025762261126     1.967022177974    -0.192325770899     1.007825032230
         H            3.295860661126    -1.571002322026    -0.179609570899     1.007825032230
         H           -3.676851738874     0.075170177974    -0.582796770899     1.007825032230

  Basis Set: AUG-CC-PVTZ
    Blend: AUG-CC-PVTZ
  Basis Set: (AUG-CC-PVTZ AUX)
    Blend: AUG-CC-PVTZ-JKFIT
	 Reference Energy          =    -529.4886992925821687 [Eh]
	 Singles Energy            =      -0.0000000000000000 [Eh]
	 Same-Spin Energy          =      -0.5079583857152409 [Eh]
	 Opposite-Spin Energy      =      -1.5125693731140588 [Eh]
	 Correlation Energy        =      -2.0205277588292998 [Eh]
	 Total Energy              =    -531.5092270514114716 [Eh]

	 ================> DF-SCS-MP2 Energies <==================
	-----------------------------------------------------------
	 SCS Same-Spin Scale       =       0.3333333333333333 [-]
	 SCS Opposite-Spin Scale   =       1.2000000000000000 [-]
	 SCS Same-Spin Energy      =      -0.1693194619050803 [Eh]
	 SCS Opposite-Spin Energy  =      -1.8150832477368706 [Eh]
	 SCS Correlation Energy    =      -1.9844027096419508 [Eh]
	 SCS Total Energy          =    -531.4731020022240955 [Eh]
	-----------------------------------------------------------

  Dipole Moment: [D]
     X:     1.0928      Y:    -2.2675      Z:    -1.6527     Total:     3.0112

*** Psi4 exiting successfully. Buy a developer a beer!
