                               Psi4 1.4a3.dev225

  ==> Input File <==

--------------------------------------------------------------------------
#psi4
#
memory 32 gb

molecule  {
0 1
  O        0.2776560     1.6256810     0.3396990
  O        2.1917380    -1.4109440     0.2140340
  O       -2.8039560    -0.0525170    -1.0004960
  O        2.6531900     0.6906990    -0.5129330
  O       -2.2475620    -0.2274030     1.1902310
  C        0.4723300     0.2276130     0.4112310
  C       -0.5274300    -0.4946180    -0.4922450
  C        1.8865320    -0.1139530    -0.0063600
  C       -1.9248990    -0.2390210     0.0157560
  H        0.3131550    -0.0984550     1.4451980
  H       -0.3508110    -1.5763050    -0.4798880
  H       -0.4316230    -0.1350800    -1.5200620
  H        1.0419604     1.9835213    -0.1924546
  H        3.1101710    -1.5358420    -0.1051610
  H       -3.6752580     0.0850810    -0.5728850
units angstrom
no_reorient  #important for SAPT in psi4, default
symmetry c1  #important for SAPT in psi4, default
}

set PROPERTIES_ORIGIN ["COM"]
properties('MP2/aug-cc-pvtz', properties = ['dipole'])
--------------------------------------------------------------------------

    Molecular point group: c1
  Charge       = 0
  Multiplicity = 1
  Basis Set: AUG-CC-PVTZ
    Blend: AUG-CC-PVTZ
  Basis Set: (AUG-CC-PVTZ AUX)
    Blend: AUG-CC-PVTZ-JKFIT

    Orbital Energies [Eh]
    ---------------------

    Doubly Occupied:

       1A    -20.644868     2A    -20.625632     3A    -20.582157
       4A    -20.576505     5A    -20.559189     6A    -11.415991
       7A    -11.401840     8A    -11.323424     9A    -11.269620
      10A     -1.491178    11A     -1.469482    12A     -1.396446
      13A     -1.371010    14A     -1.364875    15A     -1.088950
      16A     -0.971043    17A     -0.845565    18A     -0.809863
      19A     -0.757903    20A     -0.736265    21A     -0.713790
      22A     -0.702131    23A     -0.672380    24A     -0.651644
      25A     -0.646380    26A     -0.627326    27A     -0.599741
      28A     -0.589927    29A     -0.558128    30A     -0.545652
      31A     -0.511323    32A     -0.491282    33A     -0.484123
      34A     -0.470071    35A     -0.461630

  @DF-RHF Final Energy:  -529.52193605955290

   => Energetics <=

    Nuclear Repulsion Energy =            464.2237640660465559
    One-Electron Energy =               -1648.6367350936902767
    Two-Electron Energy =                 654.8910349680909349
    Total Energy =                       -529.5219360595528997
  Basis Set: (AUG-CC-PVTZ AUX)
    Blend: AUG-CC-PVTZ-RI
    Molecular point group: c1

    Geometry (in Angstrom), charge = 0, multiplicity = 1:

       Center              X                  Y                   Z               Mass
    ------------   -----------------  -----------------  -----------------  -----------------
         O            0.277486292716     1.616143322081     0.329315843921    15.994914619570
         O            2.191568292716    -1.420481677919     0.203650843921    15.994914619570
         O           -2.804125707284    -0.062054677919    -1.010879156079    15.994914619570
         O            2.653020292716     0.681161322081    -0.523316156079    15.994914619570
         O           -2.247731707284    -0.236940677919     1.179847843921    15.994914619570
         C            0.472160292716     0.218075322081     0.400847843921    12.000000000000
         C           -0.527599707284    -0.504155677919    -0.502628156079    12.000000000000
         C            1.886362292716    -0.123490677919    -0.016743156079    12.000000000000
         C           -1.925068707284    -0.248558677919     0.005372843921    12.000000000000
         H            0.312985292716    -0.107992677919     1.434814843921     1.007825032230
         H           -0.350980707284    -1.585842677919    -0.490271156079     1.007825032230
         H           -0.431792707284    -0.144617677919    -1.530445156079     1.007825032230
         H            1.041790692716     1.973983622081    -0.202837756079     1.007825032230
         H            3.110001292716    -1.545379677919    -0.115544156079     1.007825032230
         H           -3.675427707284     0.075543322081    -0.583268156079     1.007825032230

  Basis Set: AUG-CC-PVTZ
    Blend: AUG-CC-PVTZ
  Basis Set: (AUG-CC-PVTZ AUX)
    Blend: AUG-CC-PVTZ-JKFIT
	 Reference Energy          =    -529.5219360595528997 [Eh]
	 Singles Energy            =      -0.0000000000000000 [Eh]
	 Same-Spin Energy          =      -0.5057203868275887 [Eh]
	 Opposite-Spin Energy      =      -1.5068009109522471 [Eh]
	 Correlation Energy        =      -2.0125212977798359 [Eh]
	 Total Energy              =    -531.5344573573327125 [Eh]

	 ================> DF-SCS-MP2 Energies <==================
	-----------------------------------------------------------
	 SCS Same-Spin Scale       =       0.3333333333333333 [-]
	 SCS Opposite-Spin Scale   =       1.2000000000000000 [-]
	 SCS Same-Spin Energy      =      -0.1685734622758629 [Eh]
	 SCS Opposite-Spin Energy  =      -1.8081610931426964 [Eh]
	 SCS Correlation Energy    =      -1.9767345554185591 [Eh]
	 SCS Total Energy          =    -531.4986706149715019 [Eh]
	-----------------------------------------------------------

  Dipole Moment: [D]
     X:     0.8741      Y:    -2.1746      Z:    -1.6000     Total:     2.8378

*** Psi4 exiting successfully. Buy a developer a beer!
