                               Psi4 1.3.2 release

  ==> Input File <==

--------------------------------------------------------------------------
#psi4
#
memory 32 gb

molecule  {
0 1
  O        0.2778030     1.6259200     0.3386670
  O        2.3193437    -1.3823137     0.1614766
  O       -2.8041000    -0.0533200    -1.0004000
  O        2.6534740     0.6903680    -0.5128080
  O       -2.2475040    -0.2263980     1.1904210
  C        0.4723530     0.2278750     0.4110270
  C       -0.5274950    -0.4947260    -0.4920330
  C        1.8865440    -0.1140510    -0.0062910
  C       -1.9249390    -0.2389030     0.0159280
  H        0.3131310    -0.0976200     1.4451750
  H       -0.3508850    -1.5764080    -0.4792290
  H       -0.4317560    -0.1356430    -1.5200150
  H        1.0272260     1.9763200    -0.1823570
  H        3.1099360    -1.5361820    -0.1045700
  H       -3.6753880     0.0844680    -0.5728280
units angstrom
no_reorient  #important for SAPT in psi4, default
symmetry c1  #important for SAPT in psi4, default
}

set PROPERTIES_ORIGIN ["COM"]
properties('MP2/aug-cc-pvtz', properties = ['dipole'])
--------------------------------------------------------------------------

    Molecular point group: c1
  Charge       = 0
  Multiplicity = 1
  Basis Set: AUG-CC-PVTZ
    Blend: AUG-CC-PVTZ
  Basis Set: (AUG-CC-PVTZ AUX)
    Blend: AUG-CC-PVTZ-JKFIT

    Orbital Energies [Eh]
    ---------------------

    Doubly Occupied:

       1A    -20.627582     2A    -20.624063     3A    -20.579971
       4A    -20.575974     5A    -20.561469     6A    -11.417476
       7A    -11.404234     8A    -11.331005     9A    -11.273020
      10A     -1.506835    11A     -1.471579    12A     -1.403194
      13A     -1.374251    14A     -1.367557    15A     -1.094903
      16A     -0.982742    17A     -0.875179    18A     -0.817945
      19A     -0.772420    20A     -0.731866    21A     -0.716132
      22A     -0.705568    23A     -0.675483    24A     -0.652808
      25A     -0.648151    26A     -0.624517    27A     -0.602212
      28A     -0.592183    29A     -0.562012    30A     -0.550466
      31A     -0.506276    32A     -0.492840    33A     -0.484061
      34A     -0.474585    35A     -0.464440

  @DF-RHF Final Energy:  -529.50844915204550

   => Energetics <=

    Nuclear Repulsion Energy =            464.0817248221227374
    One-Electron Energy =               -1648.0903505034987120
    Two-Electron Energy =                 654.5001765293305880
    Total Energy =                       -529.5084491520455003
  Basis Set: (AUG-CC-PVTZ AUX)
    Blend: AUG-CC-PVTZ-RI
    Molecular point group: c1

    Geometry (in Angstrom), charge = 0, multiplicity = 1:

       Center              X                  Y                   Z               Mass
    ------------   -----------------  -----------------  -----------------  -----------------
         O            0.262484456086     1.612996754985     0.334522229502    15.994914619570
         O            2.304025156086    -1.395236945015     0.157331829502    15.994914619570
         O           -2.819418543914    -0.066243245015    -1.004544770498    15.994914619570
         O            2.638155456086     0.677444754985    -0.516952770498    15.994914619570
         O           -2.262822543914    -0.239321245015     1.186276229502    15.994914619570
         C            0.457034456086     0.214951754985     0.406882229502    12.000000000000
         C           -0.542813543914    -0.507649245015    -0.496177770498    12.000000000000
         C            1.871225456086    -0.126974245015    -0.010435770498    12.000000000000
         C           -1.940257543914    -0.251826245015     0.011783229502    12.000000000000
         H            0.297812456086    -0.110543245015     1.441030229502     1.007825032230
         H           -0.366203543914    -1.589331245015    -0.483373770498     1.007825032230
         H           -0.447074543914    -0.148566245015    -1.524159770498     1.007825032230
         H            1.011907456086     1.963396754985    -0.186501770498     1.007825032230
         H            3.094617456086    -1.549105245015    -0.108714770498     1.007825032230
         H           -3.690706543914     0.071544754985    -0.576972770498     1.007825032230

  Basis Set: AUG-CC-PVTZ
    Blend: AUG-CC-PVTZ
  Basis Set: (AUG-CC-PVTZ AUX)
    Blend: AUG-CC-PVTZ-JKFIT
	 Reference Energy          =    -529.5084491520455003 [Eh]
	 Singles Energy            =      -0.0000000000000000 [Eh]
	 Same-Spin Energy          =      -0.5032314690446027 [Eh]
	 Opposite-Spin Energy      =      -1.5015710602699168 [Eh]
	 Correlation Energy        =      -2.0048025293145195 [Eh]
	 Total Energy              =    -531.5132516813599750 [Eh]

	 ================> DF-SCS-MP2 Energies <==================
	-----------------------------------------------------------
	 SCS Same-Spin Scale       =       0.3333333333333333 [-]
	 SCS Opposite-Spin Scale   =       1.2000000000000000 [-]
	 SCS Same-Spin Energy      =      -0.1677438230148676 [Eh]
	 SCS Opposite-Spin Energy  =      -1.8018852723239001 [Eh]
	 SCS Correlation Energy    =      -1.9696290953387676 [Eh]
	 SCS Total Energy          =    -531.4780782473842464 [Eh]
	-----------------------------------------------------------

  Dipole Moment: [D]
     X:     0.5278      Y:    -2.0828      Z:    -1.5287     Total:     2.6369

*** Psi4 exiting successfully. Buy a developer a beer!
