                               Psi4 1.3.2 release

  ==> Input File <==

--------------------------------------------------------------------------
#psi4
#
memory 32 gb

molecule  {
0 1
  O        0.2778030     1.6259200     0.3386670
  O        2.1914470    -1.4110830     0.2143760
  O       -2.8041000    -0.0533200    -1.0004000
  O        2.6534740     0.6903680    -0.5128080
  O       -2.2475040    -0.2263980     1.1904210
  C        0.4723530     0.2278750     0.4110270
  C       -0.5274950    -0.4947260    -0.4920330
  C        1.8865440    -0.1140510    -0.0062910
  C       -1.9249390    -0.2389030     0.0159280
  H        0.3131310    -0.0976200     1.4451750
  H       -0.3508850    -1.5764080    -0.4792290
  H       -0.4317560    -0.1356430    -1.5200150
  H        0.8739214     1.9046410    -0.0757745
  H        3.1099360    -1.5361820    -0.1045700
  H       -3.6753880     0.0844680    -0.5728280
units angstrom
no_reorient  #important for SAPT in psi4, default
symmetry c1  #important for SAPT in psi4, default
}

set PROPERTIES_ORIGIN ["COM"]
properties('MP2/aug-cc-pvtz', properties = ['dipole'])
--------------------------------------------------------------------------

    Molecular point group: c1
  Charge       = 0
  Multiplicity = 1
  Basis Set: AUG-CC-PVTZ
    Blend: AUG-CC-PVTZ
  Basis Set: (AUG-CC-PVTZ AUX)
    Blend: AUG-CC-PVTZ-JKFIT

    Orbital Energies [Eh]
    ---------------------

    Doubly Occupied:

       1A    -20.644468     2A    -20.627033     3A    -20.580140
       4A    -20.560835     5A    -20.559903     6A    -11.416040
       7A    -11.403454     8A    -11.327183     9A    -11.271771
      10A     -1.492097    11A     -1.471098    12A     -1.445053
      13A     -1.383258    14A     -1.367856    15A     -1.100832
      16A     -0.976654    17A     -0.858889    18A     -0.823613
      19A     -0.768741    20A     -0.736147    21A     -0.717054
      22A     -0.708615    23A     -0.674583    24A     -0.664085
      25A     -0.651249    26A     -0.630332    27A     -0.605237
      28A     -0.593060    29A     -0.564079    30A     -0.560725
      31A     -0.509566    32A     -0.492453    33A     -0.483513
      34A     -0.478361    35A     -0.463473

  @DF-RHF Final Energy:  -529.47916379889546

   => Energetics <=

    Nuclear Repulsion Energy =            465.6889264818790934
    One-Electron Energy =               -1651.1132814105747002
    Two-Electron Energy =                 655.9451911298002642
    Total Energy =                       -529.4791637988954562
  Basis Set: (AUG-CC-PVTZ AUX)
    Blend: AUG-CC-PVTZ-RI
    Molecular point group: c1

    Geometry (in Angstrom), charge = 0, multiplicity = 1:

       Center              X                  Y                   Z               Mass
    ------------   -----------------  -----------------  -----------------  -----------------
         O            0.278901229721     1.616969269060     0.327407417832    15.994914619570
         O            2.192545229721    -1.420033730940     0.203116417832    15.994914619570
         O           -2.803001770279    -0.062270730940    -1.011659582168    15.994914619570
         O            2.654572229721     0.681417269060    -0.524067582168    15.994914619570
         O           -2.246405770279    -0.235348730940     1.179161417832    15.994914619570
         C            0.473451229721     0.218924269060     0.399767417832    12.000000000000
         C           -0.526396770279    -0.503676730940    -0.503292582168    12.000000000000
         C            1.887642229721    -0.123001730940    -0.017550582168    12.000000000000
         C           -1.923840770279    -0.247853730940     0.004668417832    12.000000000000
         H            0.314229229721    -0.106570730940     1.433915417832     1.007825032230
         H           -0.349786770279    -1.585358730940    -0.490488582168     1.007825032230
         H           -0.430657770279    -0.144593730940    -1.531274582168     1.007825032230
         H            0.875019629721     1.895690269060    -0.087034082168     1.007825032230
         H            3.111034229721    -1.545132730940    -0.115829582168     1.007825032230
         H           -3.674289770279     0.075517269060    -0.584087582168     1.007825032230

  Basis Set: AUG-CC-PVTZ
    Blend: AUG-CC-PVTZ
  Basis Set: (AUG-CC-PVTZ AUX)
    Blend: AUG-CC-PVTZ-JKFIT
	 Reference Energy          =    -529.4791637988954562 [Eh]
	 Singles Energy            =      -0.0000000000000000 [Eh]
	 Same-Spin Energy          =      -0.5027835150476223 [Eh]
	 Opposite-Spin Energy      =      -1.5007975364543893 [Eh]
	 Correlation Energy        =      -2.0035810515020116 [Eh]
	 Total Energy              =    -531.4827448503974665 [Eh]

	 ================> DF-SCS-MP2 Energies <==================
	-----------------------------------------------------------
	 SCS Same-Spin Scale       =       0.3333333333333333 [-]
	 SCS Opposite-Spin Scale   =       1.2000000000000000 [-]
	 SCS Same-Spin Energy      =      -0.1675945050158741 [Eh]
	 SCS Opposite-Spin Energy  =      -1.8009570437452671 [Eh]
	 SCS Correlation Energy    =      -1.9685515487611411 [Eh]
	 SCS Total Energy          =    -531.4477153476566400 [Eh]
	-----------------------------------------------------------

  Dipole Moment: [D]
     X:     0.6378      Y:    -2.2754      Z:    -1.4850     Total:     2.7909

*** Psi4 exiting successfully. Buy a developer a beer!
