                               Psi4 1.3.2 release

  ==> Input File <==

--------------------------------------------------------------------------
#psi4
#
memory 32 gb

molecule  {
0 1
  O        0.2778030     1.6259200     0.3386670
  O        2.1914470    -1.4110830     0.2143760
  O       -2.8041000    -0.0533200    -1.0004000
  O        2.6534740     0.6903680    -0.5128080
  O       -2.2475040    -0.2263980     1.1904210
  C        0.4448231     0.4257064     0.4007876
  C       -0.5274950    -0.4947260    -0.4920330
  C        1.8865440    -0.1140510    -0.0062910
  C       -1.9249390    -0.2389030     0.0159280
  H        0.3131310    -0.0976200     1.4451750
  H       -0.3508850    -1.5764080    -0.4792290
  H       -0.4317560    -0.1356430    -1.5200150
  H        1.0272260     1.9763200    -0.1823570
  H        3.1099360    -1.5361820    -0.1045700
  H       -3.6753880     0.0844680    -0.5728280
units angstrom
no_reorient  #important for SAPT in psi4, default
symmetry c1  #important for SAPT in psi4, default
}

set PROPERTIES_ORIGIN ["COM"]
properties('MP2/aug-cc-pvtz', properties = ['dipole'])
--------------------------------------------------------------------------

    Molecular point group: c1
  Charge       = 0
  Multiplicity = 1
  Basis Set: AUG-CC-PVTZ
    Blend: AUG-CC-PVTZ
  Basis Set: (AUG-CC-PVTZ AUX)
    Blend: AUG-CC-PVTZ-JKFIT

    Orbital Energies [Eh]
    ---------------------

    Doubly Occupied:

       1A    -20.643401     2A    -20.621674     3A    -20.599990
       4A    -20.575209     5A    -20.555120     6A    -11.408710
       7A    -11.395588     8A    -11.334303     9A    -11.260818
      10A     -1.503247    11A     -1.477083    12A     -1.465081
      13A     -1.381474    14A     -1.362350    15A     -1.064883
      16A     -0.948265    17A     -0.858074    18A     -0.818812
      19A     -0.779166    20A     -0.731939    21A     -0.713467
      22A     -0.707837    23A     -0.677743    24A     -0.672302
      25A     -0.647333    26A     -0.643427    27A     -0.621115
      28A     -0.589858    29A     -0.566223    30A     -0.539191
      31A     -0.509216    32A     -0.486936    33A     -0.464157
      34A     -0.451895    35A     -0.433020

  @DF-RHF Final Energy:  -529.47741406149032

   => Energetics <=

    Nuclear Repulsion Energy =            465.1603422584301484
    One-Electron Energy =               -1650.2576977762626029
    Two-Electron Energy =                 655.6199414563421897
    Total Energy =                       -529.4774140614903217
  Basis Set: (AUG-CC-PVTZ AUX)
    Blend: AUG-CC-PVTZ-RI
    Molecular point group: c1

    Geometry (in Angstrom), charge = 0, multiplicity = 1:

       Center              X                  Y                   Z               Mass
    ------------   -----------------  -----------------  -----------------  -----------------
         O            0.280213366624     1.598716852356     0.329125718787    15.994914619570
         O            2.193857366624    -1.438286147644     0.204834718787    15.994914619570
         O           -2.801689633376    -0.080523147644    -1.009941281213    15.994914619570
         O            2.655884366624     0.663164852356    -0.522349281213    15.994914619570
         O           -2.245093633376    -0.253601147644     1.180879718787    15.994914619570
         C            0.447233466624     0.398503252356     0.391246318787    12.000000000000
         C           -0.525084633376    -0.521929147644    -0.501574281213    12.000000000000
         C            1.888954366624    -0.141254147644    -0.015832281213    12.000000000000
         C           -1.922528633376    -0.266106147644     0.006386718787    12.000000000000
         H            0.315541366624    -0.124823147644     1.435633718787     1.007825032230
         H           -0.348474633376    -1.603611147644    -0.488770281213     1.007825032230
         H           -0.429345633376    -0.162846147644    -1.529556281213     1.007825032230
         H            1.029636366624     1.949116852356    -0.191898281213     1.007825032230
         H            3.112346366624    -1.563385147644    -0.114111281213     1.007825032230
         H           -3.672977633376     0.057264852356    -0.582369281213     1.007825032230

  Basis Set: AUG-CC-PVTZ
    Blend: AUG-CC-PVTZ
  Basis Set: (AUG-CC-PVTZ AUX)
    Blend: AUG-CC-PVTZ-JKFIT
	 Reference Energy          =    -529.4774140614903217 [Eh]
	 Singles Energy            =      -0.0000000000000000 [Eh]
	 Same-Spin Energy          =      -0.5065186059921281 [Eh]
	 Opposite-Spin Energy      =      -1.5050642777529404 [Eh]
	 Correlation Energy        =      -2.0115828837450684 [Eh]
	 Total Energy              =    -531.4889969452353853 [Eh]

	 ================> DF-SCS-MP2 Energies <==================
	-----------------------------------------------------------
	 SCS Same-Spin Scale       =       0.3333333333333333 [-]
	 SCS Opposite-Spin Scale   =       1.2000000000000000 [-]
	 SCS Same-Spin Energy      =      -0.1688395353307093 [Eh]
	 SCS Opposite-Spin Energy  =      -1.8060771333035284 [Eh]
	 SCS Correlation Energy    =      -1.9749166686342376 [Eh]
	 SCS Total Energy          =    -531.4523307301245723 [Eh]
	-----------------------------------------------------------

  Dipole Moment: [D]
     X:     0.8992      Y:    -1.3547      Z:    -1.5622     Total:     2.2548

*** Psi4 exiting successfully. Buy a developer a beer!
