                               Psi4 1.3.2 release

  ==> Input File <==

--------------------------------------------------------------------------
#psi4
#
memory 32 gb

molecule  {
0 1
  O        0.3244506     1.6307484     0.3233545
  O        2.1914470    -1.4110830     0.2143760
  O       -2.8041000    -0.0533200    -1.0004000
  O        2.6534740     0.6903680    -0.5128080
  O       -2.2475040    -0.2263980     1.1904210
  C        0.4723530     0.2278750     0.4110270
  C       -0.5274950    -0.4947260    -0.4920330
  C        1.8865440    -0.1140510    -0.0062910
  C       -1.9249390    -0.2389030     0.0159280
  H        0.3131310    -0.0976200     1.4451750
  H       -0.3508850    -1.5764080    -0.4792290
  H       -0.4317560    -0.1356430    -1.5200150
  H        1.0272260     1.9763200    -0.1823570
  H        3.1099360    -1.5361820    -0.1045700
  H       -3.6753880     0.0844680    -0.5728280
units angstrom
no_reorient  #important for SAPT in psi4, default
symmetry c1  #important for SAPT in psi4, default
}

set PROPERTIES_ORIGIN ["COM"]
properties('MP2/aug-cc-pvtz', properties = ['dipole'])
--------------------------------------------------------------------------

    Molecular point group: c1
  Charge       = 0
  Multiplicity = 1
  Basis Set: AUG-CC-PVTZ
    Blend: AUG-CC-PVTZ
  Basis Set: (AUG-CC-PVTZ AUX)
    Blend: AUG-CC-PVTZ-JKFIT

    Orbital Energies [Eh]
    ---------------------

    Doubly Occupied:

       1A    -20.643649     2A    -20.626442     3A    -20.580296
       4A    -20.570292     5A    -20.560247     6A    -11.414364
       7A    -11.402766     8A    -11.325085     9A    -11.270765
      10A     -1.490230    11A     -1.470373    12A     -1.402036
      13A     -1.375126    14A     -1.366790    15A     -1.092448
      16A     -0.972307    17A     -0.847863    18A     -0.814625
      19A     -0.759557    20A     -0.735782    21A     -0.715170
      22A     -0.704457    23A     -0.672986    24A     -0.655210
      25A     -0.650049    26A     -0.627815    27A     -0.601831
      28A     -0.590744    29A     -0.559953    30A     -0.545541
      31A     -0.509627    32A     -0.491755    33A     -0.483619
      34A     -0.472666    35A     -0.462287

  @DF-RHF Final Energy:  -529.52427087042281

   => Energetics <=

    Nuclear Repulsion Energy =            464.5271479850938476
    One-Electron Energy =               -1649.1733306987052856
    Two-Electron Energy =                 655.1219118431885136
    Total Energy =                       -529.5242708704228107
  Basis Set: (AUG-CC-PVTZ AUX)
    Blend: AUG-CC-PVTZ-RI
    Molecular point group: c1

    Geometry (in Angstrom), charge = 0, multiplicity = 1:

       Center              X                  Y                   Z               Mass
    ------------   -----------------  -----------------  -----------------  -----------------
         O            0.318828800202     1.620682402403     0.314723888410    15.994914619570
         O            2.185825200202    -1.421148997597     0.205745388410    15.994914619570
         O           -2.809721799798    -0.063385997597    -1.009030611590    15.994914619570
         O            2.647852200202     0.680302002403    -0.521438611590    15.994914619570
         O           -2.253125799798    -0.236463997597     1.181790388410    15.994914619570
         C            0.466731200202     0.217809002403     0.402396388410    12.000000000000
         C           -0.533116799798    -0.504791997597    -0.500663611590    12.000000000000
         C            1.880922200202    -0.124116997597    -0.014921611590    12.000000000000
         C           -1.930560799798    -0.248968997597     0.007297388410    12.000000000000
         H            0.307509200202    -0.107685997597     1.436544388410     1.007825032230
         H           -0.356506799798    -1.586473997597    -0.487859611590     1.007825032230
         H           -0.437377799798    -0.145708997597    -1.528645611590     1.007825032230
         H            1.021604200202     1.966254002403    -0.190987611590     1.007825032230
         H            3.104314200202    -1.546247997597    -0.113200611590     1.007825032230
         H           -3.681009799798     0.074402002403    -0.581458611590     1.007825032230

  Basis Set: AUG-CC-PVTZ
    Blend: AUG-CC-PVTZ
  Basis Set: (AUG-CC-PVTZ AUX)
    Blend: AUG-CC-PVTZ-JKFIT
	 Reference Energy          =    -529.5242708704228107 [Eh]
	 Singles Energy            =      -0.0000000000000000 [Eh]
	 Same-Spin Energy          =      -0.5047279904026424 [Eh]
	 Opposite-Spin Energy      =      -1.5045757356548459 [Eh]
	 Correlation Energy        =      -2.0093037260574884 [Eh]
	 Total Energy              =    -531.5335745964803209 [Eh]

	 ================> DF-SCS-MP2 Energies <==================
	-----------------------------------------------------------
	 SCS Same-Spin Scale       =       0.3333333333333333 [-]
	 SCS Opposite-Spin Scale   =       1.2000000000000000 [-]
	 SCS Same-Spin Energy      =      -0.1682426634675475 [Eh]
	 SCS Opposite-Spin Energy  =      -1.8054908827858149 [Eh]
	 SCS Correlation Energy    =      -1.9737335462533623 [Eh]
	 SCS Total Energy          =    -531.4980044166761672 [Eh]
	-----------------------------------------------------------

  Dipole Moment: [D]
     X:     0.7451      Y:    -2.2041      Z:    -1.5756     Total:     2.8099

*** Psi4 exiting successfully. Buy a developer a beer!
