                               Psi4 1.3.2 release

  ==> Input File <==

--------------------------------------------------------------------------
#psi4
#
memory 32 gb

molecule  {
0 1
  O        0.2778030     1.6259200     0.3386670
  O        2.2345205    -1.4030598     0.1969833
  O       -2.8041000    -0.0533200    -1.0004000
  O        2.6534740     0.6903680    -0.5128080
  O       -2.2475040    -0.2263980     1.1904210
  C        0.4723530     0.2278750     0.4110270
  C       -0.5274950    -0.4947260    -0.4920330
  C        1.8865440    -0.1140510    -0.0062910
  C       -1.9249390    -0.2389030     0.0159280
  H        0.3131310    -0.0976200     1.4451750
  H       -0.3508850    -1.5764080    -0.4792290
  H       -0.4317560    -0.1356430    -1.5200150
  H        1.0272260     1.9763200    -0.1823570
  H        3.1099360    -1.5361820    -0.1045700
  H       -3.6753880     0.0844680    -0.5728280
units angstrom
no_reorient  #important for SAPT in psi4, default
symmetry c1  #important for SAPT in psi4, default
}

set PROPERTIES_ORIGIN ["COM"]
properties('MP2/aug-cc-pvtz', properties = ['dipole'])
--------------------------------------------------------------------------

    Molecular point group: c1
  Charge       = 0
  Multiplicity = 1
  Basis Set: AUG-CC-PVTZ
    Blend: AUG-CC-PVTZ
  Basis Set: (AUG-CC-PVTZ AUX)
    Blend: AUG-CC-PVTZ-JKFIT

    Orbital Energies [Eh]
    ---------------------

    Doubly Occupied:

       1A    -20.638455     2A    -20.626361     3A    -20.579899
       4A    -20.576983     5A    -20.560042     6A    -11.416185
       7A    -11.402729     8A    -11.326124     9A    -11.270871
      10A     -1.495570    11A     -1.470269    12A     -1.399504
      13A     -1.373354    14A     -1.366207    15A     -1.091492
      16A     -0.974747    17A     -0.854241    18A     -0.813628
      19A     -0.763547    20A     -0.735464    21A     -0.714766
      22A     -0.703721    23A     -0.673653    24A     -0.652295
      25A     -0.648080    26A     -0.626737    27A     -0.601010
      28A     -0.590851    29A     -0.559661    30A     -0.548698
      31A     -0.509507    32A     -0.491867    33A     -0.484278
      34A     -0.472073    35A     -0.462746

  @DF-RHF Final Energy:  -529.52464883131984

   => Energetics <=

    Nuclear Repulsion Energy =            464.2054334118021757
    One-Electron Energy =               -1648.5089353931293772
    Two-Electron Energy =                 654.7788531500073077
    Total Energy =                       -529.5246488313198370
  Basis Set: (AUG-CC-PVTZ AUX)
    Blend: AUG-CC-PVTZ-RI
    Molecular point group: c1

    Geometry (in Angstrom), charge = 0, multiplicity = 1:

       Center              X                  Y                   Z               Mass
    ------------   -----------------  -----------------  -----------------  -----------------
         O            0.272607754258     1.615472716234     0.330284651679    15.994914619570
         O            2.229325254258    -1.413507083766     0.188600951679    15.994914619570
         O           -2.809295245742    -0.063767283766    -1.008782348321    15.994914619570
         O            2.648278754258     0.679920716234    -0.521190348321    15.994914619570
         O           -2.252699245742    -0.236845283766     1.182038651679    15.994914619570
         C            0.467157754258     0.217427716234     0.402644651679    12.000000000000
         C           -0.532690245742    -0.505173283766    -0.500415348321    12.000000000000
         C            1.881348754258    -0.124498283766    -0.014673348321    12.000000000000
         C           -1.930134245742    -0.249350283766     0.007545651679    12.000000000000
         H            0.307935754258    -0.108067283766     1.436792651679     1.007825032230
         H           -0.356080245742    -1.586855283766    -0.487611348321     1.007825032230
         H           -0.436951245742    -0.146090283766    -1.528397348321     1.007825032230
         H            1.022030754258     1.965872716234    -0.190739348321     1.007825032230
         H            3.104740754258    -1.546629283766    -0.112952348321     1.007825032230
         H           -3.680583245742     0.074020716234    -0.581210348321     1.007825032230

  Basis Set: AUG-CC-PVTZ
    Blend: AUG-CC-PVTZ
  Basis Set: (AUG-CC-PVTZ AUX)
    Blend: AUG-CC-PVTZ-JKFIT
	 Reference Energy          =    -529.5246488313198370 [Eh]
	 Singles Energy            =      -0.0000000000000000 [Eh]
	 Same-Spin Energy          =      -0.5046146480642788 [Eh]
	 Opposite-Spin Energy      =      -1.5044319967120845 [Eh]
	 Correlation Energy        =      -2.0090466447763635 [Eh]
	 Total Energy              =    -531.5336954760962271 [Eh]

	 ================> DF-SCS-MP2 Energies <==================
	-----------------------------------------------------------
	 SCS Same-Spin Scale       =       0.3333333333333333 [-]
	 SCS Opposite-Spin Scale   =       1.2000000000000000 [-]
	 SCS Same-Spin Energy      =      -0.1682048826880929 [Eh]
	 SCS Opposite-Spin Energy  =      -1.8053183960545014 [Eh]
	 SCS Correlation Energy    =      -1.9735232787425943 [Eh]
	 SCS Total Energy          =    -531.4981721100624554 [Eh]
	-----------------------------------------------------------

  Dipole Moment: [D]
     X:     0.7472      Y:    -2.1512      Z:    -1.5688     Total:     2.7653

*** Psi4 exiting successfully. Buy a developer a beer!
