                               Psi4 1.3.2 release

  ==> Input File <==

--------------------------------------------------------------------------
#psi4
#
memory 32 gb

molecule  {
0 1
  O        0.2778030     1.6259200     0.3386670
  O        2.1914470    -1.4110830     0.2143760
  O       -2.8041000    -0.0533200    -1.0004000
  O        2.6534740     0.6903680    -0.5128080
  O       -2.2475040    -0.2263980     1.1904210
  C        0.4723530     0.2278750     0.4110270
  C       -0.5274950    -0.4947260    -0.4920330
  C        1.7931121    -0.0914608     0.0212801
  C       -1.9249390    -0.2389030     0.0159280
  H        0.3131310    -0.0976200     1.4451750
  H       -0.3508850    -1.5764080    -0.4792290
  H       -0.4317560    -0.1356430    -1.5200150
  H        1.0272260     1.9763200    -0.1823570
  H        3.1099360    -1.5361820    -0.1045700
  H       -3.6753880     0.0844680    -0.5728280
units angstrom
no_reorient  #important for SAPT in psi4, default
symmetry c1  #important for SAPT in psi4, default
}

set PROPERTIES_ORIGIN ["COM"]
properties('MP2/aug-cc-pvtz', properties = ['dipole'])
--------------------------------------------------------------------------

    Molecular point group: c1
  Charge       = 0
  Multiplicity = 1
  Basis Set: AUG-CC-PVTZ
    Blend: AUG-CC-PVTZ
  Basis Set: (AUG-CC-PVTZ AUX)
    Blend: AUG-CC-PVTZ-JKFIT

    Orbital Energies [Eh]
    ---------------------

    Doubly Occupied:

       1A    -20.635493     2A    -20.629802     3A    -20.581561
       4A    -20.578490     5A    -20.563992     6A    -11.424608
       7A    -11.407063     8A    -11.327280     9A    -11.278009
      10A     -1.474061    11A     -1.465250    12A     -1.396131
      13A     -1.370664    14A     -1.345807    15A     -1.108365
      16A     -0.996195    17A     -0.845108    18A     -0.815999
      19A     -0.765555    20A     -0.725367    21A     -0.717246
      22A     -0.706399    23A     -0.675954    24A     -0.648461
      25A     -0.641336    26A     -0.616336    27A     -0.602643
      28A     -0.589289    29A     -0.563719    30A     -0.555311
      31A     -0.495385    32A     -0.493037    33A     -0.485170
      34A     -0.477491    35A     -0.467609

  @DF-RHF Final Energy:  -529.50116915146464

   => Energetics <=

    Nuclear Repulsion Energy =            464.8030606834186074
    One-Electron Energy =               -1649.6680963667126889
    Two-Electron Energy =                 655.3638665318294443
    Total Energy =                       -529.5011691514646373
  Basis Set: (AUG-CC-PVTZ AUX)
    Blend: AUG-CC-PVTZ-RI
    Molecular point group: c1

    Geometry (in Angstrom), charge = 0, multiplicity = 1:

       Center              X                  Y                   Z               Mass
    ------------   -----------------  -----------------  -----------------  -----------------
         O            0.286114090483     1.614407573878     0.325740247642    15.994914619570
         O            2.199758090483    -1.422595426122     0.201449247642    15.994914619570
         O           -2.795788909517    -0.064832426122    -1.013326752358    15.994914619570
         O            2.661785090483     0.678855573878    -0.525734752358    15.994914619570
         O           -2.239192909517    -0.237910426122     1.177494247642    15.994914619570
         C            0.480664090483     0.216362573878     0.398100247642    12.000000000000
         C           -0.519183909517    -0.506238426122    -0.504959752358    12.000000000000
         C            1.801423190483    -0.102973226122     0.008353347642    12.000000000000
         C           -1.916627909517    -0.250415426122     0.003001247642    12.000000000000
         H            0.321442090483    -0.109132426122     1.432248247642     1.007825032230
         H           -0.342573909517    -1.587920426122    -0.492155752358     1.007825032230
         H           -0.423444909517    -0.147155426122    -1.532941752358     1.007825032230
         H            1.035537090483     1.964807573878    -0.195283752358     1.007825032230
         H            3.118247090483    -1.547694426122    -0.117496752358     1.007825032230
         H           -3.667076909517     0.072955573878    -0.585754752358     1.007825032230

  Basis Set: AUG-CC-PVTZ
    Blend: AUG-CC-PVTZ
  Basis Set: (AUG-CC-PVTZ AUX)
    Blend: AUG-CC-PVTZ-JKFIT
	 Reference Energy          =    -529.5011691514646373 [Eh]
	 Singles Energy            =      -0.0000000000000000 [Eh]
	 Same-Spin Energy          =      -0.5079067579635599 [Eh]
	 Opposite-Spin Energy      =      -1.5111250781586194 [Eh]
	 Correlation Energy        =      -2.0190318361221795 [Eh]
	 Total Energy              =    -531.5202009875868043 [Eh]

	 ================> DF-SCS-MP2 Energies <==================
	-----------------------------------------------------------
	 SCS Same-Spin Scale       =       0.3333333333333333 [-]
	 SCS Opposite-Spin Scale   =       1.2000000000000000 [-]
	 SCS Same-Spin Energy      =      -0.1693022526545200 [Eh]
	 SCS Opposite-Spin Energy  =      -1.8133500937903433 [Eh]
	 SCS Correlation Energy    =      -1.9826523464448633 [Eh]
	 SCS Total Energy          =    -531.4838214979095028 [Eh]
	-----------------------------------------------------------

  Dipole Moment: [D]
     X:     0.2774      Y:    -2.0266      Z:    -1.4996     Total:     2.5363

*** Psi4 exiting successfully. Buy a developer a beer!
