                               Psi4 1.4a3.dev225

  ==> Input File <==

--------------------------------------------------------------------------
#psi4
#
memory 32 gb

molecule  {
0 1
  O        0.2776560     1.6256810     0.3396990
  O        2.1917380    -1.4109440     0.2140340
  O       -2.8039560    -0.0525170    -1.0004960
  O        2.6531900     0.6906990    -0.5129330
  O       -2.2475620    -0.2274030     1.1902310
  C        0.4723300     0.2276130     0.4112310
  C       -0.5274300    -0.4946180    -0.4922450
  C        1.8865320    -0.1139530    -0.0063600
  C       -1.9248990    -0.2390210     0.0157560
  H        0.3131550    -0.0984550     1.4451980
  H       -0.3508110    -1.5763050    -0.4798880
  H       -0.4316230    -0.1350800    -1.5200620
  H        1.0113176     1.9691747    -0.1711194
  H        3.1101710    -1.5358420    -0.1051610
  H       -3.6752580     0.0850810    -0.5728850
units angstrom
no_reorient  #important for SAPT in psi4, default
symmetry c1  #important for SAPT in psi4, default
}

set PROPERTIES_ORIGIN ["COM"]
properties('MP2/aug-cc-pvtz', properties = ['dipole'])
--------------------------------------------------------------------------

    Molecular point group: c1
  Charge       = 0
  Multiplicity = 1
  Basis Set: AUG-CC-PVTZ
    Blend: AUG-CC-PVTZ
  Basis Set: (AUG-CC-PVTZ AUX)
    Blend: AUG-CC-PVTZ-JKFIT

    Orbital Energies [Eh]
    ---------------------

    Doubly Occupied:

       1A    -20.644732     2A    -20.625901     3A    -20.581686
       4A    -20.574426     5A    -20.559504     6A    -11.415922
       7A    -11.402147     8A    -11.324106     9A    -11.270018
      10A     -1.491091    11A     -1.469774    12A     -1.399962
      13A     -1.375213    14A     -1.366008    15A     -1.090778
      16A     -0.971872    17A     -0.846975    18A     -0.812172
      19A     -0.759990    20A     -0.736105    21A     -0.714317
      22A     -0.703395    23A     -0.672778    24A     -0.652350
      25A     -0.649195    26A     -0.627869    27A     -0.600836
      28A     -0.590434    29A     -0.558916    30A     -0.549457
      31A     -0.510915    32A     -0.491400    33A     -0.483903
      34A     -0.471619    35A     -0.462042

  @DF-RHF Final Energy:  -529.52439414711534

   => Energetics <=

    Nuclear Repulsion Energy =            464.4494946571840046
    One-Electron Energy =               -1649.0321617155502736
    Two-Electron Energy =                 655.0582729112509242
    Total Energy =                       -529.5243941471153448
  Basis Set: (AUG-CC-PVTZ AUX)
    Blend: AUG-CC-PVTZ-RI
    Molecular point group: c1

    Geometry (in Angstrom), charge = 0, multiplicity = 1:

       Center              X                  Y                   Z               Mass
    ------------   -----------------  -----------------  -----------------  -----------------
         O            0.277716722725     1.616251206712     0.329155405895    15.994914619570
         O            2.191798722725    -1.420373793288     0.203490405895    15.994914619570
         O           -2.803895277275    -0.061946793288    -1.011039594105    15.994914619570
         O            2.653250722725     0.681269206712    -0.523476594105    15.994914619570
         O           -2.247501277275    -0.236832793288     1.179687405895    15.994914619570
         C            0.472390722725     0.218183206712     0.400687405895    12.000000000000
         C           -0.527369277275    -0.504047793288    -0.502788594105    12.000000000000
         C            1.886592722725    -0.123382793288    -0.016903594105    12.000000000000
         C           -1.924838277275    -0.248450793288     0.005212405895    12.000000000000
         H            0.313215722725    -0.107884793288     1.434654405895     1.007825032230
         H           -0.350750277275    -1.585734793288    -0.490431594105     1.007825032230
         H           -0.431562277275    -0.144509793288    -1.530605594105     1.007825032230
         H            1.011378322725     1.959744906712    -0.181662994105     1.007825032230
         H            3.110231722725    -1.545271793288    -0.115704594105     1.007825032230
         H           -3.675197277275     0.075651206712    -0.583428594105     1.007825032230

  Basis Set: AUG-CC-PVTZ
    Blend: AUG-CC-PVTZ
  Basis Set: (AUG-CC-PVTZ AUX)
    Blend: AUG-CC-PVTZ-JKFIT
	 Reference Energy          =    -529.5243941471153448 [Eh]
	 Singles Energy            =      -0.0000000000000000 [Eh]
	 Same-Spin Energy          =      -0.5051592319709297 [Eh]
	 Opposite-Spin Energy      =      -1.5055874007401242 [Eh]
	 Correlation Energy        =      -2.0107466327110539 [Eh]
	 Total Energy              =    -531.5351407798264063 [Eh]

	 ================> DF-SCS-MP2 Energies <==================
	-----------------------------------------------------------
	 SCS Same-Spin Scale       =       0.3333333333333333 [-]
	 SCS Opposite-Spin Scale   =       1.2000000000000000 [-]
	 SCS Same-Spin Energy      =      -0.1683864106569766 [Eh]
	 SCS Opposite-Spin Energy  =      -1.8067048808881490 [Eh]
	 SCS Correlation Energy    =      -1.9750912915451255 [Eh]
	 SCS Total Energy          =    -531.4994854386604857 [Eh]
	-----------------------------------------------------------

  Dipole Moment: [D]
     X:     0.8256      Y:    -2.1882      Z:    -1.5778     Total:     2.8212

*** Psi4 exiting successfully. Buy a developer a beer!
