                               Psi4 1.3.2 release

  ==> Input File <==

--------------------------------------------------------------------------
#psi4
#
memory 32 gb

molecule  {
0 1
  O        0.2778030     1.6259200     0.3386670
  O        2.1914470    -1.4110830     0.2143760
  O       -2.8041000    -0.0533200    -1.0004000
  O        2.6534740     0.6903680    -0.5128080
  O       -2.2475040    -0.2263980     1.1904210
  C        0.3895136     0.2626736     0.4685953
  C       -0.5274950    -0.4947260    -0.4920330
  C        1.8865440    -0.1140510    -0.0062910
  C       -1.9249390    -0.2389030     0.0159280
  H        0.3131310    -0.0976200     1.4451750
  H       -0.3508850    -1.5764080    -0.4792290
  H       -0.4317560    -0.1356430    -1.5200150
  H        1.0272260     1.9763200    -0.1823570
  H        3.1099360    -1.5361820    -0.1045700
  H       -3.6753880     0.0844680    -0.5728280
units angstrom
no_reorient  #important for SAPT in psi4, default
symmetry c1  #important for SAPT in psi4, default
}

set PROPERTIES_ORIGIN ["COM"]
properties('MP2/aug-cc-pvtz', properties = ['dipole'])
--------------------------------------------------------------------------

    Molecular point group: c1
  Charge       = 0
  Multiplicity = 1
  Basis Set: AUG-CC-PVTZ
    Blend: AUG-CC-PVTZ
  Basis Set: (AUG-CC-PVTZ AUX)
    Blend: AUG-CC-PVTZ-JKFIT

    Orbital Energies [Eh]
    ---------------------

    Doubly Occupied:

       1A    -20.642221     2A    -20.624812     3A    -20.579587
       4A    -20.576844     5A    -20.559197     6A    -11.412266
       7A    -11.400414     8A    -11.326733     9A    -11.267807
      10A     -1.486242    11A     -1.469258    12A     -1.403629
      13A     -1.376921    14A     -1.366113    15A     -1.086237
      16A     -0.955037    17A     -0.846749    18A     -0.816005
      19A     -0.752158    20A     -0.733805    21A     -0.714571
      22A     -0.706355    23A     -0.675525    24A     -0.657842
      25A     -0.647590    26A     -0.630280    27A     -0.606174
      28A     -0.588625    29A     -0.565069    30A     -0.538339
      31A     -0.509057    32A     -0.490712    33A     -0.478870
      34A     -0.471613    35A     -0.453186

  @DF-RHF Final Energy:  -529.51442619870795

   => Energetics <=

    Nuclear Repulsion Energy =            463.9569472582459753
    One-Electron Energy =               -1648.1110594272370236
    Two-Electron Energy =                 654.6396859702831534
    Total Energy =                       -529.5144261987079517
  Basis Set: (AUG-CC-PVTZ AUX)
    Blend: AUG-CC-PVTZ-RI
    Molecular point group: c1

    Geometry (in Angstrom), charge = 0, multiplicity = 1:

       Center              X                  Y                   Z               Mass
    ------------   -----------------  -----------------  -----------------  -----------------
         O            0.285165660731     1.613314459904     0.323054362635    15.994914619570
         O            2.198809660731    -1.423688540096     0.198763362635    15.994914619570
         O           -2.796737339269    -0.065925540096    -1.016012637365    15.994914619570
         O            2.660836660731     0.677762459904    -0.528420637365    15.994914619570
         O           -2.240141339269    -0.239003540096     1.174808362635    15.994914619570
         C            0.396876260731     0.250068059904     0.452982662635    12.000000000000
         C           -0.520132339269    -0.507331540096    -0.507645637365    12.000000000000
         C            1.893906660731    -0.126656540096    -0.021903637365    12.000000000000
         C           -1.917576339269    -0.251508540096     0.000315362635    12.000000000000
         H            0.320493660731    -0.110225540096     1.429562362635     1.007825032230
         H           -0.343522339269    -1.589013540096    -0.494841637365     1.007825032230
         H           -0.424393339269    -0.148248540096    -1.535627637365     1.007825032230
         H            1.034588660731     1.963714459904    -0.197969637365     1.007825032230
         H            3.117298660731    -1.548787540096    -0.120182637365     1.007825032230
         H           -3.668025339269     0.071862459904    -0.588440637365     1.007825032230

  Basis Set: AUG-CC-PVTZ
    Blend: AUG-CC-PVTZ
  Basis Set: (AUG-CC-PVTZ AUX)
    Blend: AUG-CC-PVTZ-JKFIT
	 Reference Energy          =    -529.5144261987079517 [Eh]
	 Singles Energy            =      -0.0000000000000000 [Eh]
	 Same-Spin Energy          =      -0.5052710699438554 [Eh]
	 Opposite-Spin Energy      =      -1.5054127174012906 [Eh]
	 Correlation Energy        =      -2.0106837873451457 [Eh]
	 Total Energy              =    -531.5251099860530530 [Eh]

	 ================> DF-SCS-MP2 Energies <==================
	-----------------------------------------------------------
	 SCS Same-Spin Scale       =       0.3333333333333333 [-]
	 SCS Opposite-Spin Scale   =       1.2000000000000000 [-]
	 SCS Same-Spin Energy      =      -0.1684236899812851 [Eh]
	 SCS Opposite-Spin Energy  =      -1.8064952608815485 [Eh]
	 SCS Correlation Energy    =      -1.9749189508628338 [Eh]
	 SCS Total Energy          =    -531.4893451495707950 [Eh]
	-----------------------------------------------------------

  Dipole Moment: [D]
     X:     0.8345      Y:    -2.0841      Z:    -1.5476     Total:     2.7267

*** Psi4 exiting successfully. Buy a developer a beer!
