                               Psi4 1.3.2 release

  ==> Input File <==

--------------------------------------------------------------------------
#psi4
#
memory 32 gb

molecule  {
0 1
  O        0.2778030     1.6259200     0.3386670
  O        2.1914470    -1.4110830     0.2143760
  O       -2.8041000    -0.0533200    -1.0004000
  O        2.6534740     0.6903680    -0.5128080
  O       -2.2475040    -0.2263980     1.1904210
  C        0.4723530     0.2278750     0.4110270
  C       -0.5274950    -0.4947260    -0.4920330
  C        1.8865440    -0.1140510    -0.0062910
  C       -1.9249390    -0.2389030     0.0159280
  H        0.3131310    -0.0976200     1.4451750
  H       -0.3508850    -1.5764080    -0.4792290
  H       -0.4317560    -0.1356430    -1.5200150
  H        1.1805306     2.0479990    -0.2889395
  H        3.1099360    -1.5361820    -0.1045700
  H       -3.6753880     0.0844680    -0.5728280
units angstrom
no_reorient  #important for SAPT in psi4, default
symmetry c1  #important for SAPT in psi4, default
}

set PROPERTIES_ORIGIN ["COM"]
properties('MP2/aug-cc-pvtz', properties = ['dipole'])
--------------------------------------------------------------------------

    Molecular point group: c1
  Charge       = 0
  Multiplicity = 1
  Basis Set: AUG-CC-PVTZ
    Blend: AUG-CC-PVTZ
  Basis Set: (AUG-CC-PVTZ AUX)
    Blend: AUG-CC-PVTZ-JKFIT

    Orbital Energies [Eh]
    ---------------------

    Doubly Occupied:

       1A    -20.645869     2A    -20.624327     3A    -20.584958
       4A    -20.580913     5A    -20.557668     6A    -11.416756
       7A    -11.400371     8A    -11.320321     9A    -11.267769
      10A     -1.492154    11A     -1.468084    12A     -1.393129
      13A     -1.365443    14A     -1.344355    15A     -1.082216
      16A     -0.968082    17A     -0.841769    18A     -0.802366
      19A     -0.749626    20A     -0.737761    21A     -0.711669
      22A     -0.697018    23A     -0.670603    24A     -0.651377
      25A     -0.633235    26A     -0.623559    27A     -0.594036
      28A     -0.587868    29A     -0.554547    30A     -0.523479
      31A     -0.513440    32A     -0.491551    33A     -0.484751
      34A     -0.464132    35A     -0.458522

  @DF-RHF Final Energy:  -529.48900292991004

   => Energetics <=

    Nuclear Repulsion Energy =            463.3544553532001373
    One-Electron Energy =               -1647.0794704714469390
    Two-Electron Energy =                 654.2360121883367583
    Total Energy =                       -529.4890029299100433
  Basis Set: (AUG-CC-PVTZ AUX)
    Blend: AUG-CC-PVTZ-RI
    Molecular point group: c1

    Geometry (in Angstrom), charge = 0, multiplicity = 1:

       Center              X                  Y                   Z               Mass
    ------------   -----------------  -----------------  -----------------  -----------------
         O            0.276595567024     1.615891234895     0.329010391875    15.994914619570
         O            2.190239567024    -1.421111765105     0.204719391875    15.994914619570
         O           -2.805307432976    -0.063348765105    -1.010056608125    15.994914619570
         O            2.652266567024     0.680339234895    -0.522464608125    15.994914619570
         O           -2.248711432976    -0.236426765105     1.180764391875    15.994914619570
         C            0.471145567024     0.217846234895     0.401370391875    12.000000000000
         C           -0.528702432976    -0.504754765105    -0.501689608125    12.000000000000
         C            1.885336567024    -0.124079765105    -0.015947608125    12.000000000000
         C           -1.926146432976    -0.248931765105     0.006271391875    12.000000000000
         H            0.311923567024    -0.107648765105     1.435518391875     1.007825032230
         H           -0.352092432976    -1.586436765105    -0.488885608125     1.007825032230
         H           -0.432963432976    -0.145671765105    -1.529671608125     1.007825032230
         H            1.179323167024     2.037970234895    -0.298596108125     1.007825032230
         H            3.108728567024    -1.546210765105    -0.114226608125     1.007825032230
         H           -3.676595432976     0.074439234895    -0.582484608125     1.007825032230

  Basis Set: AUG-CC-PVTZ
    Blend: AUG-CC-PVTZ
  Basis Set: (AUG-CC-PVTZ AUX)
    Blend: AUG-CC-PVTZ-JKFIT
	 Reference Energy          =    -529.4890029299100433 [Eh]
	 Singles Energy            =      -0.0000000000000000 [Eh]
	 Same-Spin Energy          =      -0.5082653297421389 [Eh]
	 Opposite-Spin Energy      =      -1.5127427979502075 [Eh]
	 Correlation Energy        =      -2.0210081276923466 [Eh]
	 Total Energy              =    -531.5100110576023553 [Eh]

	 ================> DF-SCS-MP2 Energies <==================
	-----------------------------------------------------------
	 SCS Same-Spin Scale       =       0.3333333333333333 [-]
	 SCS Opposite-Spin Scale   =       1.2000000000000000 [-]
	 SCS Same-Spin Energy      =      -0.1694217765807129 [Eh]
	 SCS Opposite-Spin Energy  =      -1.8152913575402490 [Eh]
	 SCS Correlation Energy    =      -1.9847131341209618 [Eh]
	 SCS Total Energy          =    -531.4737160640310094 [Eh]
	-----------------------------------------------------------

  Dipole Moment: [D]
     X:     1.1206      Y:    -2.1445      Z:    -1.7037     Total:     2.9593

*** Psi4 exiting successfully. Buy a developer a beer!
