                               Psi4 1.3.2 release

  ==> Input File <==

--------------------------------------------------------------------------
#psi4
#
memory 32 gb

molecule  {
0 1
  O        0.2778030     1.6259200     0.3386670
  O        2.2763383    -1.3940426     0.1771039
  O       -2.8041000    -0.0533200    -1.0004000
  O        2.6534740     0.6903680    -0.5128080
  O       -2.2475040    -0.2263980     1.1904210
  C        0.4723530     0.2278750     0.4110270
  C       -0.5274950    -0.4947260    -0.4920330
  C        1.8865440    -0.1140510    -0.0062910
  C       -1.9249390    -0.2389030     0.0159280
  H        0.3131310    -0.0976200     1.4451750
  H       -0.3508850    -1.5764080    -0.4792290
  H       -0.4317560    -0.1356430    -1.5200150
  H        1.0272260     1.9763200    -0.1823570
  H        3.1099360    -1.5361820    -0.1045700
  H       -3.6753880     0.0844680    -0.5728280
units angstrom
no_reorient  #important for SAPT in psi4, default
symmetry c1  #important for SAPT in psi4, default
}

set PROPERTIES_ORIGIN ["COM"]
properties('MP2/aug-cc-pvtz', properties = ['dipole'])
--------------------------------------------------------------------------

    Molecular point group: c1
  Charge       = 0
  Multiplicity = 1
  Basis Set: AUG-CC-PVTZ
    Blend: AUG-CC-PVTZ
  Basis Set: (AUG-CC-PVTZ AUX)
    Blend: AUG-CC-PVTZ-JKFIT

    Orbital Energies [Eh]
    ---------------------

    Doubly Occupied:

       1A    -20.631530     2A    -20.626960     3A    -20.578469
       4A    -20.577918     5A    -20.560742     6A    -11.416686
       7A    -11.403468     8A    -11.328540     9A    -11.271928
      10A     -1.500802    11A     -1.470913    12A     -1.401266
      13A     -1.373723    14A     -1.366864    15A     -1.093173
      16A     -0.978478    17A     -0.864046    18A     -0.815962
      19A     -0.768139    20A     -0.733901    21A     -0.715457
      22A     -0.704685    23A     -0.674617    24A     -0.652496
      25A     -0.648191    26A     -0.625723    27A     -0.601632
      28A     -0.591515    29A     -0.560814    30A     -0.549680
      31A     -0.507889    32A     -0.492355    33A     -0.484304
      34A     -0.473324    35A     -0.463605

  @DF-RHF Final Energy:  -529.52005987622056

   => Energetics <=

    Nuclear Repulsion Energy =            464.1278957244887238
    One-Electron Energy =               -1648.2763150572534414
    Two-Electron Energy =                 654.6283594565441035
    Total Energy =                       -529.5200598762205573
  Basis Set: (AUG-CC-PVTZ AUX)
    Blend: AUG-CC-PVTZ-RI
    Molecular point group: c1

    Geometry (in Angstrom), charge = 0, multiplicity = 1:

       Center              X                  Y                   Z               Mass
    ------------   -----------------  -----------------  -----------------  -----------------
         O            0.267616972747     1.614396550700     0.332657175866    15.994914619570
         O            2.266152272747    -1.405566049300     0.171094075866    15.994914619570
         O           -2.814286027253    -0.064843449300    -1.006409824133    15.994914619570
         O            2.643287972747     0.678844550700    -0.518817824134    15.994914619570
         O           -2.257690027253    -0.237921449300     1.184411175866    15.994914619570
         C            0.462166972747     0.216351550700     0.405017175866    12.000000000000
         C           -0.537681027253    -0.506249449300    -0.498042824134    12.000000000000
         C            1.876357972747    -0.125574449300    -0.012300824134    12.000000000000
         C           -1.935125027253    -0.250426449300     0.009918175866    12.000000000000
         H            0.302944972747    -0.109143449300     1.439165175866     1.007825032230
         H           -0.361071027253    -1.587931449300    -0.485238824134     1.007825032230
         H           -0.441942027253    -0.147166449300    -1.526024824134     1.007825032230
         H            1.017039972747     1.964796550700    -0.188366824134     1.007825032230
         H            3.099749972747    -1.547705449300    -0.110579824134     1.007825032230
         H           -3.685574027253     0.072944550700    -0.578837824134     1.007825032230

  Basis Set: AUG-CC-PVTZ
    Blend: AUG-CC-PVTZ
  Basis Set: (AUG-CC-PVTZ AUX)
    Blend: AUG-CC-PVTZ-JKFIT
	 Reference Energy          =    -529.5200598762205573 [Eh]
	 Singles Energy            =      -0.0000000000000000 [Eh]
	 Same-Spin Energy          =      -0.5038748571650971 [Eh]
	 Opposite-Spin Energy      =      -1.5028876151028727 [Eh]
	 Correlation Energy        =      -2.0067624722679698 [Eh]
	 Total Energy              =    -531.5268223484885084 [Eh]

	 ================> DF-SCS-MP2 Energies <==================
	-----------------------------------------------------------
	 SCS Same-Spin Scale       =       0.3333333333333333 [-]
	 SCS Opposite-Spin Scale   =       1.2000000000000000 [-]
	 SCS Same-Spin Energy      =      -0.1679582857216990 [Eh]
	 SCS Opposite-Spin Energy  =      -1.8034651381234472 [Eh]
	 SCS Correlation Energy    =      -1.9714234238451462 [Eh]
	 SCS Total Energy          =    -531.4914833000657381 [Eh]
	-----------------------------------------------------------

  Dipole Moment: [D]
     X:     0.6414      Y:    -2.1169      Z:    -1.5456     Total:     2.6985

*** Psi4 exiting successfully. Buy a developer a beer!
