                               Psi4 1.3.2 release

  ==> Input File <==

--------------------------------------------------------------------------
#psi4
#
memory 32 gb

molecule  {
0 1
  O        0.2778030     1.6259200     0.3386670
  O        2.1914470    -1.4110830     0.2143760
  O       -2.8041000    -0.0533200    -1.0004000
  O        2.7392532     0.5956707    -0.5171854
  O       -2.2475040    -0.2263980     1.1904210
  C        0.4723530     0.2278750     0.4110270
  C       -0.5274950    -0.4947260    -0.4920330
  C        1.8865440    -0.1140510    -0.0062910
  C       -1.9249390    -0.2389030     0.0159280
  H        0.3131310    -0.0976200     1.4451750
  H       -0.3508850    -1.5764080    -0.4792290
  H       -0.4317560    -0.1356430    -1.5200150
  H        1.0272260     1.9763200    -0.1823570
  H        3.1099360    -1.5361820    -0.1045700
  H       -3.6753880     0.0844680    -0.5728280
units angstrom
no_reorient  #important for SAPT in psi4, default
symmetry c1  #important for SAPT in psi4, default
}

set PROPERTIES_ORIGIN ["COM"]
properties('MP2/aug-cc-pvtz', properties = ['dipole'])
--------------------------------------------------------------------------

    Molecular point group: c1
  Charge       = 0
  Multiplicity = 1
  Basis Set: AUG-CC-PVTZ
    Blend: AUG-CC-PVTZ
  Basis Set: (AUG-CC-PVTZ AUX)
    Blend: AUG-CC-PVTZ-JKFIT

    Orbital Energies [Eh]
    ---------------------

    Doubly Occupied:

       1A    -20.633644     2A    -20.627708     3A    -20.581915
       4A    -20.578793     5A    -20.561634     6A    -11.414398
       7A    -11.404385     8A    -11.330542     9A    -11.272713
      10A     -1.490298    11A     -1.471697    12A     -1.394493
      13A     -1.371738    14A     -1.367700    15A     -1.093418
      16A     -0.974156    17A     -0.845771    18A     -0.813138
      19A     -0.757943    20A     -0.731303    21A     -0.715992
      22A     -0.704370    23A     -0.674430    24A     -0.650676
      25A     -0.647930    26A     -0.628228    27A     -0.602961
      28A     -0.591732    29A     -0.561663    30A     -0.551601
      31A     -0.504912    32A     -0.492466    33A     -0.483896
      34A     -0.475302    35A     -0.464274

  @DF-RHF Final Energy:  -529.52107721442292

   => Energetics <=

    Nuclear Repulsion Energy =            463.5948420415665510
    One-Electron Energy =               -1647.2961988403797022
    Two-Electron Energy =                 654.1802795843901777
    Total Energy =                       -529.5210772144229168
  Basis Set: (AUG-CC-PVTZ AUX)
    Blend: AUG-CC-PVTZ-RI
    Molecular point group: c1

    Geometry (in Angstrom), charge = 0, multiplicity = 1:

       Center              X                  Y                   Z               Mass
    ------------   -----------------  -----------------  -----------------  -----------------
         O            0.267511005553     1.627731983155     0.328731329443    15.994914619570
         O            2.181155005553    -1.409271016845     0.204440329443    15.994914619570
         O           -2.814391994447    -0.051508016845    -1.010335670557    15.994914619570
         O            2.728961205553     0.597482683155    -0.527121070557    15.994914619570
         O           -2.257795994447    -0.224586016845     1.180485329443    15.994914619570
         C            0.462061005553     0.229686983155     0.401091329443    12.000000000000
         C           -0.537786994447    -0.492914016845    -0.501968670557    12.000000000000
         C            1.876252005553    -0.112239016845    -0.016226670557    12.000000000000
         C           -1.935230994447    -0.237091016845     0.005992329443    12.000000000000
         H            0.302839005553    -0.095808016845     1.435239329443     1.007825032230
         H           -0.361176994447    -1.574596016845    -0.489164670557     1.007825032230
         H           -0.442047994447    -0.133831016845    -1.529950670557     1.007825032230
         H            1.016934005553     1.978131983155    -0.192292670557     1.007825032230
         H            3.099644005553    -1.534370016845    -0.114505670557     1.007825032230
         H           -3.685679994447     0.086279983155    -0.582763670557     1.007825032230

  Basis Set: AUG-CC-PVTZ
    Blend: AUG-CC-PVTZ
  Basis Set: (AUG-CC-PVTZ AUX)
    Blend: AUG-CC-PVTZ-JKFIT
	 Reference Energy          =    -529.5210772144229168 [Eh]
	 Singles Energy            =      -0.0000000000000000 [Eh]
	 Same-Spin Energy          =      -0.5051187438894225 [Eh]
	 Opposite-Spin Energy      =      -1.5058275276099564 [Eh]
	 Correlation Energy        =      -2.0109462714993791 [Eh]
	 Total Energy              =    -531.5320234859223092 [Eh]

	 ================> DF-SCS-MP2 Energies <==================
	-----------------------------------------------------------
	 SCS Same-Spin Scale       =       0.3333333333333333 [-]
	 SCS Opposite-Spin Scale   =       1.2000000000000000 [-]
	 SCS Same-Spin Energy      =      -0.1683729146298075 [Eh]
	 SCS Opposite-Spin Energy  =      -1.8069930331319477 [Eh]
	 SCS Correlation Energy    =      -1.9753659477617551 [Eh]
	 SCS Total Energy          =    -531.4964431621846188 [Eh]
	-----------------------------------------------------------

  Dipole Moment: [D]
     X:     0.4956      Y:    -1.9296      Z:    -1.5570     Total:     2.5285

*** Psi4 exiting successfully. Buy a developer a beer!
