                               Psi4 1.4a3.dev225

  ==> Input File <==

--------------------------------------------------------------------------
#psi4
#
memory 32 gb

molecule  {
0 1
  O        0.2776560     1.6256810     0.3396990
  O        2.1917380    -1.4109440     0.2140340
  O       -2.8039560    -0.0525170    -1.0004960
  O        2.6531900     0.6906990    -0.5129330
  O       -2.2475620    -0.2274030     1.1902310
  C        0.4723300     0.2276130     0.4112310
  C       -0.5274300    -0.4946180    -0.4922450
  C        1.8678455    -0.1094397    -0.0008422
  C       -1.9248990    -0.2390210     0.0157560
  H        0.3131550    -0.0984550     1.4451980
  H       -0.3508110    -1.5763050    -0.4798880
  H       -0.4316230    -0.1350800    -1.5200620
  H        1.0266390     1.9763480    -0.1817870
  H        3.1101710    -1.5358420    -0.1051610
  H       -3.6752580     0.0850810    -0.5728850
units angstrom
no_reorient  #important for SAPT in psi4, default
symmetry c1  #important for SAPT in psi4, default
}

set PROPERTIES_ORIGIN ["COM"]
properties('MP2/aug-cc-pvtz', properties = ['dipole'])
--------------------------------------------------------------------------

    Molecular point group: c1
  Charge       = 0
  Multiplicity = 1
  Basis Set: AUG-CC-PVTZ
    Blend: AUG-CC-PVTZ
  Basis Set: (AUG-CC-PVTZ AUX)
    Blend: AUG-CC-PVTZ-JKFIT

    Orbital Energies [Eh]
    ---------------------

    Doubly Occupied:

       1A    -20.642941     2A    -20.626553     3A    -20.581223
       4A    -20.576686     5A    -20.560256     6A    -11.417592
       7A    -11.402987     8A    -11.324737     9A    -11.271371
      10A     -1.485954    11A     -1.470441    12A     -1.395687
      13A     -1.370237    14A     -1.365819    15A     -1.093077
      16A     -0.976235    17A     -0.845910    18A     -0.812077
      19A     -0.760046    20A     -0.733736    21A     -0.714801
      22A     -0.703525    23A     -0.673192    24A     -0.649824
      25A     -0.646908    26A     -0.626097    27A     -0.600839
      28A     -0.590512    29A     -0.559603    30A     -0.548391
      31A     -0.507498    32A     -0.492196    33A     -0.485289
      34A     -0.472236    35A     -0.463197

  @DF-RHF Final Energy:  -529.52147637582971

   => Energetics <=

    Nuclear Repulsion Energy =            464.4188509486889984
    One-Electron Energy =               -1648.9853117550953812
    Two-Electron Energy =                 655.0449844305767328
    Total Energy =                       -529.5214763758297067
  Basis Set: (AUG-CC-PVTZ AUX)
    Blend: AUG-CC-PVTZ-RI
    Molecular point group: c1

    Geometry (in Angstrom), charge = 0, multiplicity = 1:

       Center              X                  Y                   Z               Mass
    ------------   -----------------  -----------------  -----------------  -----------------
         O            0.279274656887     1.615793153186     0.328741572920    15.994914619570
         O            2.193356656887    -1.420831846814     0.203076572920    15.994914619570
         O           -2.802337343113    -0.062404846814    -1.011453427080    15.994914619570
         O            2.654808656887     0.680811153186    -0.523890427080    15.994914619570
         O           -2.245943343113    -0.237290846814     1.179273572920    15.994914619570
         C            0.473948656887     0.217725153186     0.400273572920    12.000000000000
         C           -0.525811343113    -0.504505846814    -0.503202427080    12.000000000000
         C            1.869464156887    -0.119327546814    -0.011799627080    12.000000000000
         C           -1.923280343113    -0.248908846814     0.004798572920    12.000000000000
         H            0.314773656887    -0.108342846814     1.434240572920     1.007825032230
         H           -0.349192343113    -1.586192846814    -0.490845427080     1.007825032230
         H           -0.430004343113    -0.144967846814    -1.531019427080     1.007825032230
         H            1.028257656887     1.966460153186    -0.192744427080     1.007825032230
         H            3.111789656887    -1.545729846814    -0.116118427080     1.007825032230
         H           -3.673639343113     0.075193153186    -0.583842427080     1.007825032230

  Basis Set: AUG-CC-PVTZ
    Blend: AUG-CC-PVTZ
  Basis Set: (AUG-CC-PVTZ AUX)
    Blend: AUG-CC-PVTZ-JKFIT
	 Reference Energy          =    -529.5214763758297067 [Eh]
	 Singles Energy            =      -0.0000000000000000 [Eh]
	 Same-Spin Energy          =      -0.5058313179396106 [Eh]
	 Opposite-Spin Energy      =      -1.5069852880131034 [Eh]
	 Correlation Energy        =      -2.0128166059527137 [Eh]
	 Total Energy              =    -531.5342929817824142 [Eh]

	 ================> DF-SCS-MP2 Energies <==================
	-----------------------------------------------------------
	 SCS Same-Spin Scale       =       0.3333333333333333 [-]
	 SCS Opposite-Spin Scale   =       1.2000000000000000 [-]
	 SCS Same-Spin Energy      =      -0.1686104393132035 [Eh]
	 SCS Opposite-Spin Energy  =      -1.8083823456157240 [Eh]
	 SCS Correlation Energy    =      -1.9769927849289275 [Eh]
	 SCS Total Energy          =    -531.4984691607586456 [Eh]
	-----------------------------------------------------------

  Dipole Moment: [D]
     X:     0.7352      Y:    -2.1523      Z:    -1.5701     Total:     2.7637

*** Psi4 exiting successfully. Buy a developer a beer!
