                               Psi4 1.3.2 release

  ==> Input File <==

--------------------------------------------------------------------------
#psi4
#
memory 32 gb

molecule  {
0 1
  O        0.2778030     1.6259200     0.3386670
  O        2.1914470    -1.4110830     0.2143760
  O       -2.8041000    -0.0533200    -1.0004000
  O        2.6534740     0.6903680    -0.5128080
  O       -2.2475040    -0.2263980     1.1904210
  C        0.4723530     0.2278750     0.4110270
  C       -0.5274950    -0.4947260    -0.4920330
  C        1.8639676    -0.0180128    -0.0226302
  C       -1.9249390    -0.2389030     0.0159280
  H        0.3131310    -0.0976200     1.4451750
  H       -0.3508850    -1.5764080    -0.4792290
  H       -0.4317560    -0.1356430    -1.5200150
  H        1.0272260     1.9763200    -0.1823570
  H        3.1099360    -1.5361820    -0.1045700
  H       -3.6753880     0.0844680    -0.5728280
units angstrom
no_reorient  #important for SAPT in psi4, default
symmetry c1  #important for SAPT in psi4, default
}

set PROPERTIES_ORIGIN ["COM"]
properties('MP2/aug-cc-pvtz', properties = ['dipole'])
--------------------------------------------------------------------------

    Molecular point group: c1
  Charge       = 0
  Multiplicity = 1
  Basis Set: AUG-CC-PVTZ
    Blend: AUG-CC-PVTZ
  Basis Set: (AUG-CC-PVTZ AUX)
    Blend: AUG-CC-PVTZ-JKFIT

    Orbital Energies [Eh]
    ---------------------

    Doubly Occupied:

       1A    -20.627450     2A    -20.615502     3A    -20.598496
       4A    -20.579560     5A    -20.561252     6A    -11.414592
       7A    -11.404137     8A    -11.326686     9A    -11.272453
      10A     -1.493251    11A     -1.471394    12A     -1.390363
      13A     -1.375956    14A     -1.367852    15A     -1.093804
      16A     -0.976500    17A     -0.836198    18A     -0.807434
      19A     -0.755209    20A     -0.735101    21A     -0.715927
      22A     -0.706165    23A     -0.674086    24A     -0.645918
      25A     -0.643296    26A     -0.632129    27A     -0.601272
      28A     -0.590552    29A     -0.560924    30A     -0.555879
      31A     -0.519193    32A     -0.492673    33A     -0.487867
      34A     -0.474609    35A     -0.464162

  @DF-RHF Final Energy:  -529.51329813239136

   => Energetics <=

    Nuclear Repulsion Energy =            464.7431731752826067
    One-Electron Energy =               -1649.5772598676799134
    Two-Electron Energy =                 655.3207885600058944
    Total Energy =                       -529.5132981323913555
  Basis Set: (AUG-CC-PVTZ AUX)
    Blend: AUG-CC-PVTZ-RI
    Molecular point group: c1

    Geometry (in Angstrom), charge = 0, multiplicity = 1:

       Center              X                  Y                   Z               Mass
    ------------   -----------------  -----------------  -----------------  -----------------
         O            0.279769840849     1.607831197350     0.329671881808    15.994914619570
         O            2.193413840849    -1.429171802650     0.205380881808    15.994914619570
         O           -2.802133159151    -0.071408802650    -1.009395118192    15.994914619570
         O            2.655440840849     0.672279197350    -0.521803118192    15.994914619570
         O           -2.245537159151    -0.244486802650     1.181425881808    15.994914619570
         C            0.474319840849     0.209786197350     0.402031881808    12.000000000000
         C           -0.525528159151    -0.512814802650    -0.501028118192    12.000000000000
         C            1.865934440849    -0.036101602650    -0.031625318192    12.000000000000
         C           -1.922972159151    -0.256991802650     0.006932881808    12.000000000000
         H            0.315097840849    -0.115708802650     1.436179881808     1.007825032230
         H           -0.348918159151    -1.594496802650    -0.488224118192     1.007825032230
         H           -0.429789159151    -0.153731802650    -1.529010118192     1.007825032230
         H            1.029192840849     1.958231197350    -0.191352118192     1.007825032230
         H            3.111902840849    -1.554270802650    -0.113565118192     1.007825032230
         H           -3.673421159151     0.066379197350    -0.581823118192     1.007825032230

  Basis Set: AUG-CC-PVTZ
    Blend: AUG-CC-PVTZ
  Basis Set: (AUG-CC-PVTZ AUX)
    Blend: AUG-CC-PVTZ-JKFIT
	 Reference Energy          =    -529.5132981323913555 [Eh]
	 Singles Energy            =      -0.0000000000000000 [Eh]
	 Same-Spin Energy          =      -0.5051832849380330 [Eh]
	 Opposite-Spin Energy      =      -1.5065042622280029 [Eh]
	 Correlation Energy        =      -2.0116875471660358 [Eh]
	 Total Energy              =    -531.5249856795574033 [Eh]

	 ================> DF-SCS-MP2 Energies <==================
	-----------------------------------------------------------
	 SCS Same-Spin Scale       =       0.3333333333333333 [-]
	 SCS Opposite-Spin Scale   =       1.2000000000000000 [-]
	 SCS Same-Spin Energy      =      -0.1683944283126776 [Eh]
	 SCS Opposite-Spin Energy  =      -1.8078051146736034 [Eh]
	 SCS Correlation Energy    =      -1.9761995429862811 [Eh]
	 SCS Total Energy          =    -531.4894976753776064 [Eh]
	-----------------------------------------------------------

  Dipole Moment: [D]
     X:     0.6314      Y:    -1.4025      Z:    -1.7538     Total:     2.3328

*** Psi4 exiting successfully. Buy a developer a beer!
