                               Psi4 1.3.2 release

  ==> Input File <==

--------------------------------------------------------------------------
#psi4
#
memory 32 gb

molecule  {
0 1
  O        0.2778030     1.6259200     0.3386670
  O        2.2771701    -1.3934661     0.1793430
  O       -2.8041000    -0.0533200    -1.0004000
  O        2.6534740     0.6903680    -0.5128080
  O       -2.2475040    -0.2263980     1.1904210
  C        0.4723530     0.2278750     0.4110270
  C       -0.5274950    -0.4947260    -0.4920330
  C        1.8865440    -0.1140510    -0.0062910
  C       -1.9249390    -0.2389030     0.0159280
  H        0.3131310    -0.0976200     1.4451750
  H       -0.3508850    -1.5764080    -0.4792290
  H       -0.4317560    -0.1356430    -1.5200150
  H        1.0272260     1.9763200    -0.1823570
  H        3.1099360    -1.5361820    -0.1045700
  H       -3.6753880     0.0844680    -0.5728280
units angstrom
no_reorient  #important for SAPT in psi4, default
symmetry c1  #important for SAPT in psi4, default
}

set PROPERTIES_ORIGIN ["COM"]
properties('MP2/aug-cc-pvtz', properties = ['dipole'])
--------------------------------------------------------------------------

    Molecular point group: c1
  Charge       = 0
  Multiplicity = 1
  Basis Set: AUG-CC-PVTZ
    Blend: AUG-CC-PVTZ
  Basis Set: (AUG-CC-PVTZ AUX)
    Blend: AUG-CC-PVTZ-JKFIT

    Orbital Energies [Eh]
    ---------------------

    Doubly Occupied:

       1A    -20.631532     2A    -20.626967     3A    -20.578471
       4A    -20.577918     5A    -20.560749     6A    -11.416684
       7A    -11.403475     8A    -11.328540     9A    -11.271940
      10A     -1.500795    11A     -1.470919    12A     -1.401265
      13A     -1.373724    14A     -1.366870    15A     -1.093178
      16A     -0.978483    17A     -0.864042    18A     -0.815948
      19A     -0.768161    20A     -0.733909    21A     -0.715464
      22A     -0.704656    23A     -0.674614    24A     -0.652601
      25A     -0.648125    26A     -0.625698    27A     -0.601661
      28A     -0.591521    29A     -0.560828    30A     -0.549660
      31A     -0.507895    32A     -0.492359    33A     -0.484307
      34A     -0.473326    35A     -0.463609

  @DF-RHF Final Energy:  -529.52006467347155

   => Energetics <=

    Nuclear Repulsion Energy =            464.1212696387981964
    One-Electron Energy =               -1648.2628793346993916
    Two-Electron Energy =                 654.6215450224297001
    Total Energy =                       -529.5200646734715519
  Basis Set: (AUG-CC-PVTZ AUX)
    Blend: AUG-CC-PVTZ-RI
    Molecular point group: c1

    Geometry (in Angstrom), charge = 0, multiplicity = 1:

       Center              X                  Y                   Z               Mass
    ------------   -----------------  -----------------  -----------------  -----------------
         O            0.267517700856     1.614327747809     0.332389948540    15.994914619570
         O            2.266884800856    -1.405058352191     0.173065948540    15.994914619570
         O           -2.814385299144    -0.064912252191    -1.006677051460    15.994914619570
         O            2.643188700856     0.678775747809    -0.519085051460    15.994914619570
         O           -2.257789299144    -0.237990252191     1.184143948540    15.994914619570
         C            0.462067700856     0.216282747809     0.404749948540    12.000000000000
         C           -0.537780299144    -0.506318252191    -0.498310051460    12.000000000000
         C            1.876258700856    -0.125643252191    -0.012568051460    12.000000000000
         C           -1.935224299144    -0.250495252191     0.009650948540    12.000000000000
         H            0.302845700856    -0.109212252191     1.438897948540     1.007825032230
         H           -0.361170299144    -1.588000252191    -0.485506051460     1.007825032230
         H           -0.442041299144    -0.147235252191    -1.526292051460     1.007825032230
         H            1.016940700856     1.964727747809    -0.188634051460     1.007825032230
         H            3.099650700856    -1.547774252191    -0.110847051460     1.007825032230
         H           -3.685673299144     0.072875747809    -0.579105051460     1.007825032230

  Basis Set: AUG-CC-PVTZ
    Blend: AUG-CC-PVTZ
  Basis Set: (AUG-CC-PVTZ AUX)
    Blend: AUG-CC-PVTZ-JKFIT
	 Reference Energy          =    -529.5200646734715519 [Eh]
	 Singles Energy            =      -0.0000000000000000 [Eh]
	 Same-Spin Energy          =      -0.5038746679327999 [Eh]
	 Opposite-Spin Energy      =      -1.5028886812607789 [Eh]
	 Correlation Energy        =      -2.0067633491935788 [Eh]
	 Total Energy              =    -531.5268280226650859 [Eh]

	 ================> DF-SCS-MP2 Energies <==================
	-----------------------------------------------------------
	 SCS Same-Spin Scale       =       0.3333333333333333 [-]
	 SCS Opposite-Spin Scale   =       1.2000000000000000 [-]
	 SCS Same-Spin Energy      =      -0.1679582226442666 [Eh]
	 SCS Opposite-Spin Energy  =      -1.8034664175129347 [Eh]
	 SCS Correlation Energy    =      -1.9714246401572013 [Eh]
	 SCS Total Energy          =    -531.4914893136287901 [Eh]
	-----------------------------------------------------------

  Dipole Moment: [D]
     X:     0.6399      Y:    -2.1178      Z:    -1.5493     Total:     2.7009

*** Psi4 exiting successfully. Buy a developer a beer!
