                               Psi4 1.3.2 release

  ==> Input File <==

--------------------------------------------------------------------------
#psi4
#
memory 32 gb

molecule  {
0 1
  O        0.2778030     1.6259200     0.3386670
  O        2.2130335    -1.4072684     0.2057120
  O       -2.8041000    -0.0533200    -1.0004000
  O        2.6534740     0.6903680    -0.5128080
  O       -2.2475040    -0.2263980     1.1904210
  C        0.4723530     0.2278750     0.4110270
  C       -0.5274950    -0.4947260    -0.4920330
  C        1.8865440    -0.1140510    -0.0062910
  C       -1.9249390    -0.2389030     0.0159280
  H        0.3131310    -0.0976200     1.4451750
  H       -0.3508850    -1.5764080    -0.4792290
  H       -0.4317560    -0.1356430    -1.5200150
  H        1.0272260     1.9763200    -0.1823570
  H        3.1099360    -1.5361820    -0.1045700
  H       -3.6753880     0.0844680    -0.5728280
units angstrom
no_reorient  #important for SAPT in psi4, default
symmetry c1  #important for SAPT in psi4, default
}

set PROPERTIES_ORIGIN ["COM"]
properties('MP2/aug-cc-pvtz', properties = ['dipole'])
--------------------------------------------------------------------------

    Molecular point group: c1
  Charge       = 0
  Multiplicity = 1
  Basis Set: AUG-CC-PVTZ
    Blend: AUG-CC-PVTZ
  Basis Set: (AUG-CC-PVTZ AUX)
    Blend: AUG-CC-PVTZ-JKFIT

    Orbital Energies [Eh]
    ---------------------

    Doubly Occupied:

       1A    -20.641699     2A    -20.626062     3A    -20.580905
       4A    -20.576245     5A    -20.559694     6A    -11.416038
       7A    -11.402360     8A    -11.324936     9A    -11.270341
      10A     -1.493255    11A     -1.469948    12A     -1.398698
      13A     -1.373221    14A     -1.365883    15A     -1.090664
      16A     -0.973048    17A     -0.849996    18A     -0.812342
      19A     -0.761204    20A     -0.735957    21A     -0.714409
      22A     -0.703250    23A     -0.673130    24A     -0.652098
      25A     -0.648021    26A     -0.627191    27A     -0.600654
      28A     -0.590516    29A     -0.559085    30A     -0.548168
      31A     -0.510313    32A     -0.491608    33A     -0.484172
      34A     -0.471452    35A     -0.462301

  @DF-RHF Final Energy:  -529.52471948515711

   => Energetics <=

    Nuclear Repulsion Energy =            464.2640475391207815
    One-Electron Energy =               -1648.6598067557770264
    Two-Electron Energy =                 654.8710397314990814
    Total Energy =                       -529.5247194851571066
  Basis Set: (AUG-CC-PVTZ AUX)
    Blend: AUG-CC-PVTZ-RI
    Molecular point group: c1

    Geometry (in Angstrom), charge = 0, multiplicity = 1:

       Center              X                  Y                   Z               Mass
    ------------   -----------------  -----------------  -----------------  -----------------
         O            0.275172138859     1.615974995241     0.329242917427    15.994914619570
         O            2.210402638859    -1.417213404759     0.196287917427    15.994914619570
         O           -2.806730861141    -0.063265004759    -1.009824082573    15.994914619570
         O            2.650843138859     0.680422995241    -0.522232082573    15.994914619570
         O           -2.250134861141    -0.236343004759     1.180996917427    15.994914619570
         C            0.469722138859     0.217929995241     0.401602917427    12.000000000000
         C           -0.530125861141    -0.504671004759    -0.501457082573    12.000000000000
         C            1.883913138859    -0.123996004759    -0.015715082573    12.000000000000
         C           -1.927569861141    -0.248848004759     0.006503917427    12.000000000000
         H            0.310500138859    -0.107565004759     1.435750917427     1.007825032230
         H           -0.353515861141    -1.586353004759    -0.488653082573     1.007825032230
         H           -0.434386861141    -0.145588004759    -1.529439082573     1.007825032230
         H            1.024595138859     1.966374995241    -0.191781082573     1.007825032230
         H            3.107305138859    -1.546127004759    -0.113994082573     1.007825032230
         H           -3.678018861141     0.074522995241    -0.582252082573     1.007825032230

  Basis Set: AUG-CC-PVTZ
    Blend: AUG-CC-PVTZ
  Basis Set: (AUG-CC-PVTZ AUX)
    Blend: AUG-CC-PVTZ-JKFIT
	 Reference Energy          =    -529.5247194851571066 [Eh]
	 Singles Energy            =      -0.0000000000000000 [Eh]
	 Same-Spin Energy          =      -0.5050171701096022 [Eh]
	 Opposite-Spin Energy      =      -1.5052841042057297 [Eh]
	 Correlation Energy        =      -2.0103012743153319 [Eh]
	 Total Energy              =    -531.5350207594724452 [Eh]

	 ================> DF-SCS-MP2 Energies <==================
	-----------------------------------------------------------
	 SCS Same-Spin Scale       =       0.3333333333333333 [-]
	 SCS Opposite-Spin Scale   =       1.2000000000000000 [-]
	 SCS Same-Spin Energy      =      -0.1683390567032007 [Eh]
	 SCS Opposite-Spin Energy  =      -1.8063409250468756 [Eh]
	 SCS Correlation Energy    =      -1.9746799817500764 [Eh]
	 SCS Total Energy          =    -531.4993994669072208 [Eh]
	-----------------------------------------------------------

  Dipole Moment: [D]
     X:     0.7990      Y:    -2.1671      Z:    -1.5782     Total:     2.7974

*** Psi4 exiting successfully. Buy a developer a beer!
