                               Psi4 1.4a3.dev225

  ==> Input File <==

--------------------------------------------------------------------------
#psi4
#
memory 32 gb

molecule  {
0 1
  O        0.2776560     1.6256810     0.3396990
  O        2.1917380    -1.4109440     0.2140340
  O       -2.8039560    -0.0525170    -1.0004960
  O        2.6531900     0.6906990    -0.5129330
  O       -2.2475620    -0.2274030     1.1902310
  C        0.4723300     0.2276130     0.4112310
  C       -0.5274300    -0.4946180    -0.4922450
  C        1.8820122    -0.0947457    -0.0096238
  C       -1.9248990    -0.2390210     0.0157560
  H        0.3131550    -0.0984550     1.4451980
  H       -0.3508110    -1.5763050    -0.4798880
  H       -0.4316230    -0.1350800    -1.5200620
  H        1.0266390     1.9763480    -0.1817870
  H        3.1101710    -1.5358420    -0.1051610
  H       -3.6752580     0.0850810    -0.5728850
units angstrom
no_reorient  #important for SAPT in psi4, default
symmetry c1  #important for SAPT in psi4, default
}

set PROPERTIES_ORIGIN ["COM"]
properties('MP2/aug-cc-pvtz', properties = ['dipole'])
--------------------------------------------------------------------------

    Molecular point group: c1
  Charge       = 0
  Multiplicity = 1
  Basis Set: AUG-CC-PVTZ
    Blend: AUG-CC-PVTZ
  Basis Set: (AUG-CC-PVTZ AUX)
    Blend: AUG-CC-PVTZ-JKFIT

    Orbital Energies [Eh]
    ---------------------

    Doubly Occupied:

       1A    -20.639095     2A    -20.626086     3A    -20.585271
       4A    -20.576252     5A    -20.559706     6A    -11.415582
       7A    -11.402402     8A    -11.324196     9A    -11.270319
      10A     -1.486862    11A     -1.469948    12A     -1.398008
      13A     -1.375896    14A     -1.366106    15A     -1.090609
      16A     -0.972190    17A     -0.842897    18A     -0.810276
      19A     -0.758316    20A     -0.735272    21A     -0.714385
      22A     -0.703219    23A     -0.672774    24A     -0.649741
      25A     -0.646919    26A     -0.628570    27A     -0.600614
      28A     -0.590200    29A     -0.558840    30A     -0.549664
      31A     -0.514114    32A     -0.491903    33A     -0.485473
      34A     -0.471557    35A     -0.462398

  @DF-RHF Final Energy:  -529.52331252251531

   => Energetics <=

    Nuclear Repulsion Energy =            464.4056483074934931
    One-Electron Energy =               -1648.9666088348915309
    Two-Electron Energy =                 655.0376480048827261
    Total Energy =                       -529.5233125225153117
  Basis Set: (AUG-CC-PVTZ AUX)
    Blend: AUG-CC-PVTZ-RI
    Molecular point group: c1

    Geometry (in Angstrom), charge = 0, multiplicity = 1:

       Center              X                  Y                   Z               Mass
    ------------   -----------------  -----------------  -----------------  -----------------
         O            0.278006200927     1.614477483914     0.329527858566    15.994914619570
         O            2.192088200927    -1.422147516086     0.203862858566    15.994914619570
         O           -2.803605799073    -0.063720516086    -1.010667141434    15.994914619570
         O            2.653540200927     0.679495483914    -0.523104141434    15.994914619570
         O           -2.247211799073    -0.238606516086     1.180059858566    15.994914619570
         C            0.472680200927     0.216409483914     0.401059858566    12.000000000000
         C           -0.527079799073    -0.505821516086    -0.502416141434    12.000000000000
         C            1.882362400927    -0.105949216086    -0.019794941434    12.000000000000
         C           -1.924548799073    -0.250224516086     0.005584858566    12.000000000000
         H            0.313505200927    -0.109658516086     1.435026858566     1.007825032230
         H           -0.350460799073    -1.587508516086    -0.490059141434     1.007825032230
         H           -0.431272799073    -0.146283516086    -1.530233141434     1.007825032230
         H            1.026989200927     1.965144483914    -0.191958141434     1.007825032230
         H            3.110521200927    -1.547045516086    -0.115332141434     1.007825032230
         H           -3.674907799073     0.073877483914    -0.583056141434     1.007825032230

  Basis Set: AUG-CC-PVTZ
    Blend: AUG-CC-PVTZ
  Basis Set: (AUG-CC-PVTZ AUX)
    Blend: AUG-CC-PVTZ-JKFIT
	 Reference Energy          =    -529.5233125225153117 [Eh]
	 Singles Energy            =      -0.0000000000000000 [Eh]
	 Same-Spin Energy          =      -0.5053435590085571 [Eh]
	 Opposite-Spin Energy      =      -1.5061660321714134 [Eh]
	 Correlation Energy        =      -2.0115095911799705 [Eh]
	 Total Energy              =    -531.5348221136953271 [Eh]

	 ================> DF-SCS-MP2 Energies <==================
	-----------------------------------------------------------
	 SCS Same-Spin Scale       =       0.3333333333333333 [-]
	 SCS Opposite-Spin Scale   =       1.2000000000000000 [-]
	 SCS Same-Spin Energy      =      -0.1684478530028524 [Eh]
	 SCS Opposite-Spin Energy  =      -1.8073992386056961 [Eh]
	 SCS Correlation Energy    =      -1.9758470916085484 [Eh]
	 SCS Total Energy          =    -531.4991596141238688 [Eh]
	-----------------------------------------------------------

  Dipole Moment: [D]
     X:     0.8098      Y:    -2.0291      Z:    -1.6223     Total:     2.7213

*** Psi4 exiting successfully. Buy a developer a beer!
