                               Psi4 1.3.2 release

  ==> Input File <==

--------------------------------------------------------------------------
#psi4
#
memory 32 gb

molecule  {
0 1
  O        0.2778030     1.6259200     0.3386670
  O        2.1914470    -1.4110830     0.2143760
  O       -2.8041000    -0.0533200    -1.0004000
  O        2.6534740     0.6903680    -0.5128080
  O       -2.2475040    -0.2263980     1.1904210
  C        0.4723530     0.2278750     0.4110270
  C       -0.5274950    -0.4947260    -0.4920330
  C        1.8817984    -0.1036121    -0.0300895
  C       -1.9249390    -0.2389030     0.0159280
  H        0.3131310    -0.0976200     1.4451750
  H       -0.3508850    -1.5764080    -0.4792290
  H       -0.4317560    -0.1356430    -1.5200150
  H        1.0272260     1.9763200    -0.1823570
  H        3.1099360    -1.5361820    -0.1045700
  H       -3.6753880     0.0844680    -0.5728280
units angstrom
no_reorient  #important for SAPT in psi4, default
symmetry c1  #important for SAPT in psi4, default
}

set PROPERTIES_ORIGIN ["COM"]
properties('MP2/aug-cc-pvtz', properties = ['dipole'])
--------------------------------------------------------------------------

    Molecular point group: c1
  Charge       = 0
  Multiplicity = 1
  Basis Set: AUG-CC-PVTZ
    Blend: AUG-CC-PVTZ
  Basis Set: (AUG-CC-PVTZ AUX)
    Blend: AUG-CC-PVTZ-JKFIT

    Orbital Energies [Eh]
    ---------------------

    Doubly Occupied:

       1A    -20.640409     2A    -20.625739     3A    -20.585198
       4A    -20.575905     5A    -20.559363     6A    -11.415085
       7A    -11.401924     8A    -11.323876     9A    -11.269546
      10A     -1.489054    11A     -1.469612    12A     -1.399299
      13A     -1.376341    14A     -1.365791    15A     -1.089883
      16A     -0.970141    17A     -0.843203    18A     -0.810156
      19A     -0.758428    20A     -0.736308    21A     -0.714084
      22A     -0.702814    23A     -0.672628    24A     -0.650592
      25A     -0.647540    26A     -0.628933    27A     -0.600252
      28A     -0.590058    29A     -0.558485    30A     -0.549753
      31A     -0.515086    32A     -0.491528    33A     -0.485121
      34A     -0.470927    35A     -0.461578

  @DF-RHF Final Energy:  -529.52367458574872

   => Energetics <=

    Nuclear Repulsion Energy =            464.4255017211693826
    One-Electron Energy =               -1649.0090732962953552
    Two-Electron Energy =                 655.0598969893771937
    Total Energy =                       -529.5236745857487222
  Basis Set: (AUG-CC-PVTZ AUX)
    Blend: AUG-CC-PVTZ-RI
    Molecular point group: c1

    Geometry (in Angstrom), charge = 0, multiplicity = 1:

       Center              X                  Y                   Z               Mass
    ------------   -----------------  -----------------  -----------------  -----------------
         O            0.278173309227     1.615495575241     0.330339771545    15.994914619570
         O            2.191817309227    -1.421507424759     0.206048771545    15.994914619570
         O           -2.803729690773    -0.063744424759    -1.008727228455    15.994914619570
         O            2.653844309227     0.679943575241    -0.521135228455    15.994914619570
         O           -2.247133690773    -0.236822424759     1.182093771545    15.994914619570
         C            0.472723309227     0.217450575241     0.402699771545    12.000000000000
         C           -0.527124690773    -0.505150424759    -0.500360228455    12.000000000000
         C            1.882168709227    -0.114036524759    -0.038416728455    12.000000000000
         C           -1.924568690773    -0.249327424759     0.007600771545    12.000000000000
         H            0.313501309227    -0.108044424759     1.436847771545     1.007825032230
         H           -0.350514690773    -1.586832424759    -0.487556228455     1.007825032230
         H           -0.431385690773    -0.146067424759    -1.528342228455     1.007825032230
         H            1.027596309227     1.965895575241    -0.190684228455     1.007825032230
         H            3.110306309227    -1.546606424759    -0.112897228455     1.007825032230
         H           -3.675017690773     0.074043575241    -0.581155228455     1.007825032230

  Basis Set: AUG-CC-PVTZ
    Blend: AUG-CC-PVTZ
  Basis Set: (AUG-CC-PVTZ AUX)
    Blend: AUG-CC-PVTZ-JKFIT
	 Reference Energy          =    -529.5236745857487222 [Eh]
	 Singles Energy            =      -0.0000000000000000 [Eh]
	 Same-Spin Energy          =      -0.5052620419225167 [Eh]
	 Opposite-Spin Energy      =      -1.5059656510963002 [Eh]
	 Correlation Energy        =      -2.0112276930188169 [Eh]
	 Total Energy              =    -531.5349022787675040 [Eh]

	 ================> DF-SCS-MP2 Energies <==================
	-----------------------------------------------------------
	 SCS Same-Spin Scale       =       0.3333333333333333 [-]
	 SCS Opposite-Spin Scale   =       1.2000000000000000 [-]
	 SCS Same-Spin Energy      =      -0.1684206806408389 [Eh]
	 SCS Opposite-Spin Energy  =      -1.8071587813155601 [Eh]
	 SCS Correlation Energy    =      -1.9755794619563989 [Eh]
	 SCS Total Energy          =    -531.4992540477051080 [Eh]
	-----------------------------------------------------------

  Dipole Moment: [D]
     X:     0.8481      Y:    -2.0603      Z:    -1.6429     Total:     2.7683

*** Psi4 exiting successfully. Buy a developer a beer!
