                               Psi4 1.3.2 release

  ==> Input File <==

--------------------------------------------------------------------------
#psi4
#
memory 32 gb

molecule  {
0 1
  O        0.2778030     1.6259200     0.3386670
  O        2.0614562    -1.4247779     0.2682131
  O       -2.8041000    -0.0533200    -1.0004000
  O        2.6534740     0.6903680    -0.5128080
  O       -2.2475040    -0.2263980     1.1904210
  C        0.4723530     0.2278750     0.4110270
  C       -0.5274950    -0.4947260    -0.4920330
  C        1.8865440    -0.1140510    -0.0062910
  C       -1.9249390    -0.2389030     0.0159280
  H        0.3131310    -0.0976200     1.4451750
  H       -0.3508850    -1.5764080    -0.4792290
  H       -0.4317560    -0.1356430    -1.5200150
  H        1.0272260     1.9763200    -0.1823570
  H        3.1099360    -1.5361820    -0.1045700
  H       -3.6753880     0.0844680    -0.5728280
units angstrom
no_reorient  #important for SAPT in psi4, default
symmetry c1  #important for SAPT in psi4, default
}

set PROPERTIES_ORIGIN ["COM"]
properties('MP2/aug-cc-pvtz', properties = ['dipole'])
--------------------------------------------------------------------------

    Molecular point group: c1
  Charge       = 0
  Multiplicity = 1
  Basis Set: AUG-CC-PVTZ
    Blend: AUG-CC-PVTZ
  Basis Set: (AUG-CC-PVTZ AUX)
    Blend: AUG-CC-PVTZ-JKFIT

    Orbital Energies [Eh]
    ---------------------

    Doubly Occupied:

       1A    -20.660303     2A    -20.624050     3A    -20.588274
       4A    -20.571157     5A    -20.557360     6A    -11.416648
       7A    -11.399868     8A    -11.317019     9A    -11.266732
      10A     -1.481855    11A     -1.467777    12A     -1.394935
      13A     -1.372720    14A     -1.363712    15A     -1.085141
      16A     -0.963489    17A     -0.832645    18A     -0.802597
      19A     -0.752066    20A     -0.729395    21A     -0.711849
      22A     -0.700125    23A     -0.668775    24A     -0.651065
      25A     -0.643508    26A     -0.629098    27A     -0.597833
      28A     -0.588212    29A     -0.555218    30A     -0.543705
      31A     -0.516014    32A     -0.489349    33A     -0.482015
      34A     -0.467244    35A     -0.458855

  @DF-RHF Final Energy:  -529.49604404904812

   => Energetics <=

    Nuclear Repulsion Energy =            464.9623354020914689
    One-Electron Energy =               -1650.2155523475364589
    Two-Electron Energy =                 655.7571728963969235
    Total Energy =                       -529.4960440490481233
  Basis Set: (AUG-CC-PVTZ AUX)
    Blend: AUG-CC-PVTZ-RI
    Molecular point group: c1

    Geometry (in Angstrom), charge = 0, multiplicity = 1:

       Center              X                  Y                   Z               Mass
    ------------   -----------------  -----------------  -----------------  -----------------
         O            0.293262262834     1.618064681664     0.321783669587    15.994914619570
         O            2.076915462834    -1.432633218336     0.251329769587    15.994914619570
         O           -2.788640737166    -0.061175318336    -1.017283330413    15.994914619570
         O            2.668933262834     0.682512681664    -0.529691330413    15.994914619570
         O           -2.232044737166    -0.234253318336     1.173537669587    15.994914619570
         C            0.487812262834     0.220019681664     0.394143669587    12.000000000000
         C           -0.512035737166    -0.502581318336    -0.508916330413    12.000000000000
         C            1.902003262834    -0.121906318336    -0.023174330413    12.000000000000
         C           -1.909479737166    -0.246758318336    -0.000955330413    12.000000000000
         H            0.328590262834    -0.105475318336     1.428291669587     1.007825032230
         H           -0.335425737166    -1.584263318336    -0.496112330413     1.007825032230
         H           -0.416296737166    -0.143498318336    -1.536898330413     1.007825032230
         H            1.042685262834     1.968464681664    -0.199240330413     1.007825032230
         H            3.125395262834    -1.544037318336    -0.121453330413     1.007825032230
         H           -3.659928737166     0.076612681664    -0.589711330413     1.007825032230

  Basis Set: AUG-CC-PVTZ
    Blend: AUG-CC-PVTZ
  Basis Set: (AUG-CC-PVTZ AUX)
    Blend: AUG-CC-PVTZ-JKFIT
	 Reference Energy          =    -529.4960440490481233 [Eh]
	 Singles Energy            =      -0.0000000000000000 [Eh]
	 Same-Spin Energy          =      -0.5083388087804744 [Eh]
	 Opposite-Spin Energy      =      -1.5126382921376986 [Eh]
	 Correlation Energy        =      -2.0209771009181732 [Eh]
	 Total Energy              =    -531.5170211499662400 [Eh]

	 ================> DF-SCS-MP2 Energies <==================
	-----------------------------------------------------------
	 SCS Same-Spin Scale       =       0.3333333333333333 [-]
	 SCS Opposite-Spin Scale   =       1.2000000000000000 [-]
	 SCS Same-Spin Energy      =      -0.1694462695934915 [Eh]
	 SCS Opposite-Spin Energy  =      -1.8151659505652382 [Eh]
	 SCS Correlation Energy    =      -1.9846122201587297 [Eh]
	 SCS Total Energy          =    -531.4806562692068610 [Eh]
	-----------------------------------------------------------

  Dipole Moment: [D]
     X:     1.1236      Y:    -2.2595      Z:    -1.6422     Total:     3.0107

*** Psi4 exiting successfully. Buy a developer a beer!
