                               Psi4 1.3.2 release

  ==> Input File <==

--------------------------------------------------------------------------
#psi4
#
memory 32 gb

molecule  {
0 1
  O        0.2778030     1.6259200     0.3386670
  O        2.1914470    -1.4110830     0.2143760
  O       -2.8041000    -0.0533200    -1.0004000
  O        2.6534740     0.6903680    -0.5128080
  O       -2.2475040    -0.2263980     1.1904210
  C        0.3893443     0.2225496     0.4640683
  C       -0.5274950    -0.4947260    -0.4920330
  C        1.8865440    -0.1140510    -0.0062910
  C       -1.9249390    -0.2389030     0.0159280
  H        0.3131310    -0.0976200     1.4451750
  H       -0.3508850    -1.5764080    -0.4792290
  H       -0.4317560    -0.1356430    -1.5200150
  H        1.0272260     1.9763200    -0.1823570
  H        3.1099360    -1.5361820    -0.1045700
  H       -3.6753880     0.0844680    -0.5728280
units angstrom
no_reorient  #important for SAPT in psi4, default
symmetry c1  #important for SAPT in psi4, default
}

set PROPERTIES_ORIGIN ["COM"]
properties('MP2/aug-cc-pvtz', properties = ['dipole'])
--------------------------------------------------------------------------

    Molecular point group: c1
  Charge       = 0
  Multiplicity = 1
  Basis Set: AUG-CC-PVTZ
    Blend: AUG-CC-PVTZ
  Basis Set: (AUG-CC-PVTZ AUX)
    Blend: AUG-CC-PVTZ-JKFIT

    Orbital Energies [Eh]
    ---------------------

    Doubly Occupied:

       1A    -20.642585     2A    -20.625571     3A    -20.580942
       4A    -20.572558     5A    -20.560001     6A    -11.414133
       7A    -11.401601     8A    -11.325920     9A    -11.268999
      10A     -1.487082    11A     -1.470009    12A     -1.393903
      13A     -1.371778    14A     -1.365656    15A     -1.092369
      16A     -0.958143    17A     -0.847183    18A     -0.815697
      19A     -0.749344    20A     -0.734438    21A     -0.714922
      22A     -0.704799    23A     -0.675954    24A     -0.654041
      25A     -0.648250    26A     -0.628290    27A     -0.605322
      28A     -0.588444    29A     -0.564357    30A     -0.536279
      31A     -0.509765    32A     -0.491217    33A     -0.481143
      34A     -0.473941    35A     -0.456505

  @DF-RHF Final Energy:  -529.51407592527278

   => Energetics <=

    Nuclear Repulsion Energy =            463.8894930745241254
    One-Electron Energy =               -1647.9848606806126554
    Two-Electron Energy =                 654.5812916808157524
    Total Energy =                       -529.5140759252727776
  Basis Set: (AUG-CC-PVTZ AUX)
    Blend: AUG-CC-PVTZ-RI
    Molecular point group: c1

    Geometry (in Angstrom), charge = 0, multiplicity = 1:

       Center              X                  Y                   Z               Mass
    ------------   -----------------  -----------------  -----------------  -----------------
         O            0.285180819491     1.616907076882     0.323459700514    15.994914619570
         O            2.198824819491    -1.420095923118     0.199168700514    15.994914619570
         O           -2.796722180509    -0.062332923118    -1.015607299486    15.994914619570
         O            2.660851819491     0.681355076882    -0.528015299486    15.994914619570
         O           -2.240126180509    -0.235410923118     1.175213700514    15.994914619570
         C            0.396722119491     0.213536676882     0.448861000514    12.000000000000
         C           -0.520117180509    -0.503738923118    -0.507240299486    12.000000000000
         C            1.893921819491    -0.123063923118    -0.021498299486    12.000000000000
         C           -1.917561180509    -0.247915923118     0.000720700514    12.000000000000
         H            0.320508819491    -0.106632923118     1.429967700514     1.007825032230
         H           -0.343507180509    -1.585420923118    -0.494436299486     1.007825032230
         H           -0.424378180509    -0.144655923118    -1.535222299486     1.007825032230
         H            1.034603819491     1.967307076882    -0.197564299486     1.007825032230
         H            3.117313819491    -1.545194923118    -0.119777299486     1.007825032230
         H           -3.668010180509     0.075455076882    -0.588035299486     1.007825032230

  Basis Set: AUG-CC-PVTZ
    Blend: AUG-CC-PVTZ
  Basis Set: (AUG-CC-PVTZ AUX)
    Blend: AUG-CC-PVTZ-JKFIT
	 Reference Energy          =    -529.5140759252727776 [Eh]
	 Singles Energy            =      -0.0000000000000000 [Eh]
	 Same-Spin Energy          =      -0.5053531356728197 [Eh]
	 Opposite-Spin Energy      =      -1.5061698189871049 [Eh]
	 Correlation Energy        =      -2.0115229546599247 [Eh]
	 Total Energy              =    -531.5255988799326587 [Eh]

	 ================> DF-SCS-MP2 Energies <==================
	-----------------------------------------------------------
	 SCS Same-Spin Scale       =       0.3333333333333333 [-]
	 SCS Opposite-Spin Scale   =       1.2000000000000000 [-]
	 SCS Same-Spin Energy      =      -0.1684510452242732 [Eh]
	 SCS Opposite-Spin Energy  =      -1.8074037827845257 [Eh]
	 SCS Correlation Energy    =      -1.9758548280087989 [Eh]
	 SCS Total Energy          =    -531.4899307532815556 [Eh]
	-----------------------------------------------------------

  Dipole Moment: [D]
     X:     0.8237      Y:    -2.2285      Z:    -1.5701     Total:     2.8478

*** Psi4 exiting successfully. Buy a developer a beer!
