                               Psi4 1.3.2 release

  ==> Input File <==

--------------------------------------------------------------------------
#psi4
#
memory 32 gb

molecule  {
0 1
  O        0.2778030     1.6259200     0.3386670
  O        2.1914470    -1.4110830     0.2143760
  O       -2.8041000    -0.0533200    -1.0004000
  O        2.6534740     0.6903680    -0.5128080
  O       -2.2475040    -0.2263980     1.1904210
  C        0.4723530     0.2278750     0.4110270
  C       -0.5274950    -0.4947260    -0.4920330
  C        1.8947415    -0.1346132     0.0416802
  C       -1.9249390    -0.2389030     0.0159280
  H        0.3131310    -0.0976200     1.4451750
  H       -0.3508850    -1.5764080    -0.4792290
  H       -0.4317560    -0.1356430    -1.5200150
  H        1.0272260     1.9763200    -0.1823570
  H        3.1099360    -1.5361820    -0.1045700
  H       -3.6753880     0.0844680    -0.5728280
units angstrom
no_reorient  #important for SAPT in psi4, default
symmetry c1  #important for SAPT in psi4, default
}

set PROPERTIES_ORIGIN ["COM"]
properties('MP2/aug-cc-pvtz', properties = ['dipole'])
--------------------------------------------------------------------------

    Molecular point group: c1
  Charge       = 0
  Multiplicity = 1
  Basis Set: AUG-CC-PVTZ
    Blend: AUG-CC-PVTZ
  Basis Set: (AUG-CC-PVTZ AUX)
    Blend: AUG-CC-PVTZ-JKFIT

    Orbital Energies [Eh]
    ---------------------

    Doubly Occupied:

       1A    -20.653196     2A    -20.625873     3A    -20.575422
       4A    -20.574851     5A    -20.559380     6A    -11.417995
       7A    -11.402193     8A    -11.323899     9A    -11.270457
      10A     -1.499827    11A     -1.469720    12A     -1.393461
      13A     -1.367058    14A     -1.361323    15A     -1.089930
      16A     -0.974375    17A     -0.853111    18A     -0.812710
      19A     -0.759797    20A     -0.736754    21A     -0.714070
      22A     -0.703115    23A     -0.672511    24A     -0.655995
      25A     -0.647420    26A     -0.624698    27A     -0.599885
      28A     -0.590327    29A     -0.558884    30A     -0.542871
      31A     -0.501712    32A     -0.490913    33A     -0.480883
      34A     -0.470630    35A     -0.462289

  @DF-RHF Final Energy:  -529.51932073987655

   => Energetics <=

    Nuclear Repulsion Energy =            464.1303490465557502
    One-Electron Energy =               -1648.4242682756646445
    Two-Electron Energy =                 654.7745984892324032
    Total Energy =                       -529.5193207398765480
  Basis Set: (AUG-CC-PVTZ AUX)
    Blend: AUG-CC-PVTZ-RI
    Molecular point group: c1

    Geometry (in Angstrom), charge = 0, multiplicity = 1:

       Center              X                  Y                   Z               Mass
    ------------   -----------------  -----------------  -----------------  -----------------
         O            0.277014411789     1.618271347303     0.323913666403    15.994914619570
         O            2.190658411789    -1.418731652697     0.199622666403    15.994914619570
         O           -2.804888588211    -0.060968652697    -1.015153333597    15.994914619570
         O            2.652685411789     0.682719347303    -0.527561333597    15.994914619570
         O           -2.248292588211    -0.234046652697     1.175667666403    15.994914619570
         C            0.471564411789     0.220226347303     0.396273666403    12.000000000000
         C           -0.528283588211    -0.502374652697    -0.506786333597    12.000000000000
         C            1.893952911789    -0.142261852697     0.026926866403    12.000000000000
         C           -1.925727588211    -0.246551652697     0.001174666403    12.000000000000
         H            0.312342411789    -0.105268652697     1.430421666403     1.007825032230
         H           -0.351673588211    -1.584056652697    -0.493982333597     1.007825032230
         H           -0.432544588211    -0.143291652697    -1.534768333597     1.007825032230
         H            1.026437411789     1.968671347303    -0.197110333597     1.007825032230
         H            3.109147411789    -1.543830652697    -0.119323333597     1.007825032230
         H           -3.676176588211     0.076819347303    -0.587581333597     1.007825032230

  Basis Set: AUG-CC-PVTZ
    Blend: AUG-CC-PVTZ
  Basis Set: (AUG-CC-PVTZ AUX)
    Blend: AUG-CC-PVTZ-JKFIT
	 Reference Energy          =    -529.5193207398765480 [Eh]
	 Singles Energy            =      -0.0000000000000000 [Eh]
	 Same-Spin Energy          =      -0.5059200515217415 [Eh]
	 Opposite-Spin Energy      =      -1.5069515357010959 [Eh]
	 Correlation Energy        =      -2.0128715872228371 [Eh]
	 Total Energy              =    -531.5321923270994375 [Eh]

	 ================> DF-SCS-MP2 Energies <==================
	-----------------------------------------------------------
	 SCS Same-Spin Scale       =       0.3333333333333333 [-]
	 SCS Opposite-Spin Scale   =       1.2000000000000000 [-]
	 SCS Same-Spin Energy      =      -0.1686400171739138 [Eh]
	 SCS Opposite-Spin Energy  =      -1.8083418428413149 [Eh]
	 SCS Correlation Energy    =      -1.9769818600152287 [Eh]
	 SCS Total Energy          =    -531.4963025998918056 [Eh]
	-----------------------------------------------------------

  Dipole Moment: [D]
     X:     0.8426      Y:    -2.4167      Z:    -1.4802     Total:     2.9566

*** Psi4 exiting successfully. Buy a developer a beer!
