                               Psi4 1.4a3.dev225

  ==> Input File <==

--------------------------------------------------------------------------
#psi4
#
memory 32 gb

molecule  {
0 1
  O        0.2776560     1.6256810     0.3396990
  O        2.1917380    -1.4109440     0.2140340
  O       -2.8039560    -0.0525170    -1.0004960
  O        2.6531900     0.6906990    -0.5129330
  O       -2.2475620    -0.2274030     1.1902310
  C        0.4723300     0.2276130     0.4112310
  C       -0.5274300    -0.4946180    -0.4922450
  C        1.8865320    -0.1139530    -0.0063600
  C       -1.9248990    -0.2390210     0.0157560
  H        0.3131550    -0.0984550     1.4451980
  H       -0.3508110    -1.5763050    -0.4798880
  H       -0.4316230    -0.1350800    -1.5200620
  H        1.0266390     1.9763480    -0.1817870
  H        3.0633269    -1.5294717    -0.0888807
  H       -3.6752580     0.0850810    -0.5728850
units angstrom
no_reorient  #important for SAPT in psi4, default
symmetry c1  #important for SAPT in psi4, default
}

set PROPERTIES_ORIGIN ["COM"]
properties('MP2/aug-cc-pvtz', properties = ['dipole'])
--------------------------------------------------------------------------

    Molecular point group: c1
  Charge       = 0
  Multiplicity = 1
  Basis Set: AUG-CC-PVTZ
    Blend: AUG-CC-PVTZ
  Basis Set: (AUG-CC-PVTZ AUX)
    Blend: AUG-CC-PVTZ-JKFIT

    Orbital Energies [Eh]
    ---------------------

    Doubly Occupied:

       1A    -20.641615     2A    -20.625995     3A    -20.582980
       4A    -20.575867     5A    -20.559605     6A    -11.417020
       7A    -11.402272     8A    -11.324097     9A    -11.270183
      10A     -1.499061    11A     -1.469880    12A     -1.401965
      13A     -1.374484    14A     -1.365887    15A     -1.090893
      16A     -0.974842    17A     -0.852508    18A     -0.812705
      19A     -0.761402    20A     -0.740279    21A     -0.714414
      22A     -0.703517    23A     -0.673432    24A     -0.653875
      25A     -0.649830    26A     -0.628528    27A     -0.601018
      28A     -0.590612    29A     -0.558922    30A     -0.549086
      31A     -0.512640    32A     -0.491758    33A     -0.484700
      34A     -0.471194    35A     -0.462182

  @DF-RHF Final Energy:  -529.52425438833063

   => Energetics <=

    Nuclear Repulsion Energy =            464.6657883543379057
    One-Electron Energy =               -1649.4015927211962662
    Two-Electron Energy =                 655.2115499785276143
    Total Energy =                       -529.5242543883306325
  Basis Set: (AUG-CC-PVTZ AUX)
    Blend: AUG-CC-PVTZ-RI
    Molecular point group: c1

    Geometry (in Angstrom), charge = 0, multiplicity = 1:

       Center              X                  Y                   Z               Mass
    ------------   -----------------  -----------------  -----------------  -----------------
         O            0.277953769472     1.616149360540     0.329113199096    15.994914619570
         O            2.192035769472    -1.420475639460     0.203448199096    15.994914619570
         O           -2.803658230528    -0.062048639460    -1.011081800904    15.994914619570
         O            2.653487769472     0.681167360540    -0.523518800904    15.994914619570
         O           -2.247264230528    -0.236934639460     1.179645199096    15.994914619570
         C            0.472627769472     0.218081360540     0.400645199096    12.000000000000
         C           -0.527132230528    -0.504149639460    -0.502830800904    12.000000000000
         C            1.886829769472    -0.123484639460    -0.016945800904    12.000000000000
         C           -1.924601230528    -0.248552639460     0.005170199096    12.000000000000
         H            0.313452769472    -0.107986639460     1.434612199096     1.007825032230
         H           -0.350513230528    -1.585836639460    -0.490473800904     1.007825032230
         H           -0.431325230528    -0.144611639460    -1.530647800904     1.007825032230
         H            1.026936769472     1.966816360540    -0.192372800904     1.007825032230
         H            3.063624669472    -1.539003339460    -0.099466500904     1.007825032230
         H           -3.674960230528     0.075549360540    -0.583470800904     1.007825032230

  Basis Set: AUG-CC-PVTZ
    Blend: AUG-CC-PVTZ
  Basis Set: (AUG-CC-PVTZ AUX)
    Blend: AUG-CC-PVTZ-JKFIT
	 Reference Energy          =    -529.5242543883306325 [Eh]
	 Singles Energy            =      -0.0000000000000000 [Eh]
	 Same-Spin Energy          =      -0.5048052682272803 [Eh]
	 Opposite-Spin Energy      =      -1.5047633484726313 [Eh]
	 Correlation Energy        =      -2.0095686166999114 [Eh]
	 Total Energy              =    -531.5338230050305128 [Eh]

	 ================> DF-SCS-MP2 Energies <==================
	-----------------------------------------------------------
	 SCS Same-Spin Scale       =       0.3333333333333333 [-]
	 SCS Opposite-Spin Scale   =       1.2000000000000000 [-]
	 SCS Same-Spin Energy      =      -0.1682684227424268 [Eh]
	 SCS Opposite-Spin Energy  =      -1.8057160181671574 [Eh]
	 SCS Correlation Energy    =      -1.9739844409095841 [Eh]
	 SCS Total Energy          =    -531.4982388292402220 [Eh]
	-----------------------------------------------------------

  Dipole Moment: [D]
     X:     0.7861      Y:    -2.1531      Z:    -1.5737     Total:     2.7804

*** Psi4 exiting successfully. Buy a developer a beer!
