                               Psi4 1.4a3.dev225

  ==> Input File <==

--------------------------------------------------------------------------
#psi4
#
memory 32 gb

molecule  {
0 1
  O        0.2776560     1.6256810     0.3396990
  O        2.1917380    -1.4109440     0.2140340
  O       -2.8039560    -0.0525170    -1.0004960
  O        2.6531900     0.6906990    -0.5129330
  O       -2.2475620    -0.2274030     1.1902310
  C        0.4723300     0.2276130     0.4112310
  C       -0.5274300    -0.4946180    -0.4922450
  C        1.9179161    -0.0810136    -0.0270972
  C       -1.9248990    -0.2390210     0.0157560
  H        0.3131550    -0.0984550     1.4451980
  H       -0.3508110    -1.5763050    -0.4798880
  H       -0.4316230    -0.1350800    -1.5200620
  H        1.0266390     1.9763480    -0.1817870
  H        3.1101710    -1.5358420    -0.1051610
  H       -3.6752580     0.0850810    -0.5728850
units angstrom
no_reorient  #important for SAPT in psi4, default
symmetry c1  #important for SAPT in psi4, default
}

set PROPERTIES_ORIGIN ["COM"]
properties('MP2/aug-cc-pvtz', properties = ['dipole'])
--------------------------------------------------------------------------

    Molecular point group: c1
  Charge       = 0
  Multiplicity = 1
  Basis Set: AUG-CC-PVTZ
    Blend: AUG-CC-PVTZ
  Basis Set: (AUG-CC-PVTZ AUX)
    Blend: AUG-CC-PVTZ-JKFIT

    Orbital Energies [Eh]
    ---------------------

    Doubly Occupied:

       1A    -20.635911     2A    -20.624712     3A    -20.590994
       4A    -20.574592     5A    -20.558101     6A    -11.411273
       7A    -11.400662     8A    -11.322251     9A    -11.267498
      10A     -1.498511    11A     -1.468518    12A     -1.405920
      13A     -1.380072    14A     -1.364769    15A     -1.084780
      16A     -0.962190    17A     -0.839203    18A     -0.807069
      19A     -0.756918    20A     -0.740217    21A     -0.713117
      22A     -0.702484    23A     -0.671860    24A     -0.652230
      25A     -0.649340    26A     -0.631490    27A     -0.599586
      28A     -0.589434    29A     -0.557056    30A     -0.552045
      31A     -0.525134    32A     -0.489868    33A     -0.482563
      34A     -0.469256    35A     -0.459555

  @DF-RHF Final Energy:  -529.52289406783098

   => Energetics <=

    Nuclear Repulsion Energy =            464.3396273306951798
    One-Electron Energy =               -1648.8466816175587155
    Two-Electron Energy =                 654.9841602190324465
    Total Energy =                       -529.5228940678309755
  Basis Set: (AUG-CC-PVTZ AUX)
    Blend: AUG-CC-PVTZ-RI
    Molecular point group: c1

    Geometry (in Angstrom), charge = 0, multiplicity = 1:

       Center              X                  Y                   Z               Mass
    ------------   -----------------  -----------------  -----------------  -----------------
         O            0.274791442659     1.613247941107     0.331092389358    15.994914619570
         O            2.188873442659    -1.423377058893     0.205427389358    15.994914619570
         O           -2.806820557341    -0.064950058893    -1.009102610642    15.994914619570
         O            2.650325442659     0.678265941107    -0.521539610642    15.994914619570
         O           -2.250426557341    -0.239836058893     1.181624389358    15.994914619570
         C            0.469465442659     0.215179941107     0.402624389358    12.000000000000
         C           -0.530294557341    -0.507051058893    -0.500851610642    12.000000000000
         C            1.915051542659    -0.093446658893    -0.035703810642    12.000000000000
         C           -1.927763557341    -0.251454058893     0.007149389358    12.000000000000
         H            0.310290442659    -0.110888058893     1.436591389358     1.007825032230
         H           -0.353675557341    -1.588738058893    -0.488494610642     1.007825032230
         H           -0.434487557341    -0.147513058893    -1.528668610642     1.007825032230
         H            1.023774442659     1.963914941107    -0.190393610642     1.007825032230
         H            3.107306442659    -1.548275058893    -0.113767610642     1.007825032230
         H           -3.678122557341     0.072647941107    -0.581491610642     1.007825032230

  Basis Set: AUG-CC-PVTZ
    Blend: AUG-CC-PVTZ
  Basis Set: (AUG-CC-PVTZ AUX)
    Blend: AUG-CC-PVTZ-JKFIT
	 Reference Energy          =    -529.5228940678309755 [Eh]
	 Singles Energy            =      -0.0000000000000000 [Eh]
	 Same-Spin Energy          =      -0.5044446929339754 [Eh]
	 Opposite-Spin Energy      =      -1.5045266234500965 [Eh]
	 Correlation Energy        =      -2.0089713163840717 [Eh]
	 Total Energy              =    -531.5318653842150525 [Eh]

	 ================> DF-SCS-MP2 Energies <==================
	-----------------------------------------------------------
	 SCS Same-Spin Scale       =       0.3333333333333333 [-]
	 SCS Opposite-Spin Scale   =       1.2000000000000000 [-]
	 SCS Same-Spin Energy      =      -0.1681482309779918 [Eh]
	 SCS Opposite-Spin Energy  =      -1.8054319481401158 [Eh]
	 SCS Correlation Energy    =      -1.9735801791181076 [Eh]
	 SCS Total Energy          =    -531.4964742469491057 [Eh]
	-----------------------------------------------------------

  Dipole Moment: [D]
     X:     1.0237      Y:    -1.8939      Z:    -1.7124     Total:     2.7508

*** Psi4 exiting successfully. Buy a developer a beer!
