                               Psi4 1.3.2 release

  ==> Input File <==

--------------------------------------------------------------------------
#psi4
#
memory 32 gb

molecule  {
0 1
  O        0.2778030     1.6259200     0.3386670
  O        2.1914470    -1.4110830     0.2143760
  O       -2.8041000    -0.0533200    -1.0004000
  O        2.6534740     0.6903680    -0.5128080
  O       -2.2475040    -0.2263980     1.1904210
  C        0.3463925     0.2786990     0.4956410
  C       -0.5274950    -0.4947260    -0.4920330
  C        1.8865440    -0.1140510    -0.0062910
  C       -1.9249390    -0.2389030     0.0159280
  H        0.3131310    -0.0976200     1.4451750
  H       -0.3508850    -1.5764080    -0.4792290
  H       -0.4317560    -0.1356430    -1.5200150
  H        1.0272260     1.9763200    -0.1823570
  H        3.1099360    -1.5361820    -0.1045700
  H       -3.6753880     0.0844680    -0.5728280
units angstrom
no_reorient  #important for SAPT in psi4, default
symmetry c1  #important for SAPT in psi4, default
}

set PROPERTIES_ORIGIN ["COM"]
properties('MP2/aug-cc-pvtz', properties = ['dipole'])
--------------------------------------------------------------------------

    Molecular point group: c1
  Charge       = 0
  Multiplicity = 1
  Basis Set: AUG-CC-PVTZ
    Blend: AUG-CC-PVTZ
  Basis Set: (AUG-CC-PVTZ AUX)
    Blend: AUG-CC-PVTZ-JKFIT

    Orbital Energies [Eh]
    ---------------------

    Doubly Occupied:

       1A    -20.640243     2A    -20.624672     3A    -20.577914
       4A    -20.577791     5A    -20.559562     6A    -11.408827
       7A    -11.400090     8A    -11.329467     9A    -11.267702
      10A     -1.483394    11A     -1.469471    12A     -1.407749
      13A     -1.376477    14A     -1.366652    15A     -1.085754
      16A     -0.948998    17A     -0.846930    18A     -0.818054
      19A     -0.749535    20A     -0.732523    21A     -0.715402
      22A     -0.709732    23A     -0.677108    24A     -0.661605
      25A     -0.645527    26A     -0.630380    27A     -0.608719
      28A     -0.588010    29A     -0.567521    30A     -0.534172
      31A     -0.507516    32A     -0.491372    33A     -0.480331
      34A     -0.469391    35A     -0.444210

  @DF-RHF Final Energy:  -529.50237892212920

   => Energetics <=

    Nuclear Repulsion Energy =            463.7823779499697139
    One-Electron Energy =               -1647.7639142337429803
    Two-Electron Energy =                 654.4791573616440701
    Total Energy =                       -529.5023789221291963
  Basis Set: (AUG-CC-PVTZ AUX)
    Blend: AUG-CC-PVTZ-RI
    Molecular point group: c1

    Geometry (in Angstrom), charge = 0, multiplicity = 1:

       Center              X                  Y                   Z               Mass
    ------------   -----------------  -----------------  -----------------  -----------------
         O            0.289026631621     1.611879579929     0.320632748613    15.994914619570
         O            2.202670631621    -1.425123420071     0.196341748613    15.994914619570
         O           -2.792876368379    -0.067360420071    -1.018434251387    15.994914619570
         O            2.664697631621     0.676327579929    -0.530842251387    15.994914619570
         O           -2.236280368379    -0.240438420071     1.172386748613    15.994914619570
         C            0.357616131621     0.264658579929     0.477606748613    12.000000000000
         C           -0.516271368379    -0.508766420071    -0.510067251387    12.000000000000
         C            1.897767631621    -0.128091420071    -0.024325251387    12.000000000000
         C           -1.913715368379    -0.252943420071    -0.002106251387    12.000000000000
         H            0.324354631621    -0.111660420071     1.427140748613     1.007825032230
         H           -0.339661368379    -1.590448420071    -0.497263251387     1.007825032230
         H           -0.420532368379    -0.149683420071    -1.538049251387     1.007825032230
         H            1.038449631621     1.962279579929    -0.200391251387     1.007825032230
         H            3.121159631621    -1.550222420071    -0.122604251387     1.007825032230
         H           -3.664164368379     0.070427579929    -0.590862251387     1.007825032230

  Basis Set: AUG-CC-PVTZ
    Blend: AUG-CC-PVTZ
  Basis Set: (AUG-CC-PVTZ AUX)
    Blend: AUG-CC-PVTZ-JKFIT
	 Reference Energy          =    -529.5023789221291963 [Eh]
	 Singles Energy            =      -0.0000000000000000 [Eh]
	 Same-Spin Energy          =      -0.5055587414884655 [Eh]
	 Opposite-Spin Energy      =      -1.5057658725269478 [Eh]
	 Correlation Energy        =      -2.0113246140154133 [Eh]
	 Total Energy              =    -531.5137035361445896 [Eh]

	 ================> DF-SCS-MP2 Energies <==================
	-----------------------------------------------------------
	 SCS Same-Spin Scale       =       0.3333333333333333 [-]
	 SCS Opposite-Spin Scale   =       1.2000000000000000 [-]
	 SCS Same-Spin Energy      =      -0.1685195804961551 [Eh]
	 SCS Opposite-Spin Energy  =      -1.8069190470323373 [Eh]
	 SCS Correlation Energy    =      -1.9754386275284925 [Eh]
	 SCS Total Energy          =    -531.4778175496577433 [Eh]
	-----------------------------------------------------------

  Dipole Moment: [D]
     X:     0.7951      Y:    -2.0298      Z:    -1.5277     Total:     2.6620

*** Psi4 exiting successfully. Buy a developer a beer!
