                               Psi4 1.3.2 release

  ==> Input File <==

--------------------------------------------------------------------------
#psi4
#
memory 32 gb

molecule  {
0 1
  O        0.2778030     1.6259200     0.3386670
  O        2.1914470    -1.4110830     0.2143760
  O       -2.8041000    -0.0533200    -1.0004000
  O        2.6534740     0.6903680    -0.5128080
  O       -2.2475040    -0.2263980     1.1904210
  C        0.4723530     0.2278750     0.4110270
  C       -0.5274950    -0.4947260    -0.4920330
  C        1.8237532    -0.1799111     0.0351790
  C       -1.9249390    -0.2389030     0.0159280
  H        0.3131310    -0.0976200     1.4451750
  H       -0.3508850    -1.5764080    -0.4792290
  H       -0.4317560    -0.1356430    -1.5200150
  H        1.0272260     1.9763200    -0.1823570
  H        3.1099360    -1.5361820    -0.1045700
  H       -3.6753880     0.0844680    -0.5728280
units angstrom
no_reorient  #important for SAPT in psi4, default
symmetry c1  #important for SAPT in psi4, default
}

set PROPERTIES_ORIGIN ["COM"]
properties('MP2/aug-cc-pvtz', properties = ['dipole'])
--------------------------------------------------------------------------

    Molecular point group: c1
  Charge       = 0
  Multiplicity = 1
  Basis Set: AUG-CC-PVTZ
    Blend: AUG-CC-PVTZ
  Basis Set: (AUG-CC-PVTZ AUX)
    Blend: AUG-CC-PVTZ-JKFIT

    Orbital Energies [Eh]
    ---------------------

    Doubly Occupied:

       1A    -20.661176     2A    -20.627867     3A    -20.577583
       4A    -20.562769     5A    -20.561811     6A    -11.423673
       7A    -11.404614     8A    -11.326446     9A    -11.274625
      10A     -1.508400    11A     -1.471871    12A     -1.391153
      13A     -1.368462    14A     -1.324752    15A     -1.101446
      16A     -0.988916    17A     -0.863873    18A     -0.818674
      19A     -0.768457    20A     -0.735325    21A     -0.716233
      22A     -0.706200    23A     -0.674703    24A     -0.659426
      25A     -0.646630    26A     -0.616974    27A     -0.598024
      28A     -0.590671    29A     -0.562797    30A     -0.541135
      31A     -0.492555    32A     -0.481083    33A     -0.475415
      34A     -0.471965    35A     -0.463440

  @DF-RHF Final Energy:  -529.50107528720105

   => Energetics <=

    Nuclear Repulsion Energy =            464.5000904038916474
    One-Electron Energy =               -1649.0840419316198222
    Two-Electron Energy =                 655.0828762405271846
    Total Energy =                       -529.5010752872010471
  Basis Set: (AUG-CC-PVTZ AUX)
    Blend: AUG-CC-PVTZ-RI
    Molecular point group: c1

    Geometry (in Angstrom), charge = 0, multiplicity = 1:

       Center              X                  Y                   Z               Mass
    ------------   -----------------  -----------------  -----------------  -----------------
         O            0.283370552050     1.622327224200     0.324495769920    15.994914619570
         O            2.197014552050    -1.414675775800     0.200204769920    15.994914619570
         O           -2.798532447950    -0.056912775800    -1.014571230080    15.994914619570
         O            2.659041552050     0.686775224200    -0.526979230080    15.994914619570
         O           -2.241936447950    -0.229990775800     1.176249769920    15.994914619570
         C            0.477920552050     0.224282224200     0.396855769920    12.000000000000
         C           -0.521927447950    -0.498318775800    -0.506204230080    12.000000000000
         C            1.829320752050    -0.183503875800     0.021007769920    12.000000000000
         C           -1.919371447950    -0.242495775800     0.001756769920    12.000000000000
         H            0.318698552050    -0.101212775800     1.431003769920     1.007825032230
         H           -0.345317447950    -1.580000775800    -0.493400230080     1.007825032230
         H           -0.426188447950    -0.139235775800    -1.534186230080     1.007825032230
         H            1.032793552050     1.972727224200    -0.196528230080     1.007825032230
         H            3.115503552050    -1.539774775800    -0.118741230080     1.007825032230
         H           -3.669820447950     0.080875224200    -0.586999230080     1.007825032230

  Basis Set: AUG-CC-PVTZ
    Blend: AUG-CC-PVTZ
  Basis Set: (AUG-CC-PVTZ AUX)
    Blend: AUG-CC-PVTZ-JKFIT
	 Reference Energy          =    -529.5010752872010471 [Eh]
	 Singles Energy            =      -0.0000000000000000 [Eh]
	 Same-Spin Energy          =      -0.5077480227588060 [Eh]
	 Opposite-Spin Energy      =      -1.5100441035594936 [Eh]
	 Correlation Energy        =      -2.0177921263182999 [Eh]
	 Total Energy              =    -531.5188674135193878 [Eh]

	 ================> DF-SCS-MP2 Energies <==================
	-----------------------------------------------------------
	 SCS Same-Spin Scale       =       0.3333333333333333 [-]
	 SCS Opposite-Spin Scale   =       1.2000000000000000 [-]
	 SCS Same-Spin Energy      =      -0.1692493409196020 [Eh]
	 SCS Opposite-Spin Energy  =      -1.8120529242713923 [Eh]
	 SCS Correlation Energy    =      -1.9813022651909944 [Eh]
	 SCS Total Energy          =    -531.4823775523919949 [Eh]
	-----------------------------------------------------------

  Dipole Moment: [D]
     X:     0.5213      Y:    -2.7047      Z:    -1.3612     Total:     3.0724

*** Psi4 exiting successfully. Buy a developer a beer!
