                               Psi4 1.4a3.dev225

  ==> Input File <==

--------------------------------------------------------------------------
#psi4
#
memory 32 gb

molecule  {
0 1
  O        0.2776560     1.6256810     0.3396990
  O        2.1917380    -1.4109440     0.2140340
  O       -2.8039560    -0.0525170    -1.0004960
  O        2.6531900     0.6906990    -0.5129330
  O       -2.2475620    -0.2274030     1.1902310
  C        0.4723300     0.2276130     0.4112310
  C       -0.5274300    -0.4946180    -0.4922450
  C        1.8865320    -0.1139530    -0.0063600
  C       -1.9248990    -0.2390210     0.0157560
  H        0.3131550    -0.0984550     1.4451980
  H       -0.3508110    -1.5763050    -0.4798880
  H       -0.4316230    -0.1350800    -1.5200620
  H        0.9883356     1.9584147    -0.1551179
  H        3.1101710    -1.5358420    -0.1051610
  H       -3.6752580     0.0850810    -0.5728850
units angstrom
no_reorient  #important for SAPT in psi4, default
symmetry c1  #important for SAPT in psi4, default
}

set PROPERTIES_ORIGIN ["COM"]
properties('MP2/aug-cc-pvtz', properties = ['dipole'])
--------------------------------------------------------------------------

    Molecular point group: c1
  Charge       = 0
  Multiplicity = 1
  Basis Set: AUG-CC-PVTZ
    Blend: AUG-CC-PVTZ
  Basis Set: (AUG-CC-PVTZ AUX)
    Blend: AUG-CC-PVTZ-JKFIT

    Orbital Energies [Eh]
    ---------------------

    Doubly Occupied:

       1A    -20.644649     2A    -20.626099     3A    -20.581365
       4A    -20.572588     5A    -20.559735     6A    -11.415893
       7A    -11.402373     8A    -11.324617     9A    -11.270315
      10A     -1.491067    11A     -1.469990    12A     -1.404140
      13A     -1.377929    14A     -1.366470    15A     -1.092242
      16A     -0.972545    17A     -0.848257    18A     -0.814038
      19A     -0.761562    20A     -0.736027    21A     -0.714732
      22A     -0.704341    23A     -0.673077    24A     -0.653820
      25A     -0.650312    26A     -0.628268    27A     -0.601623
      28A     -0.590830    29A     -0.559523    30A     -0.552042
      31A     -0.510633    32A     -0.491519    33A     -0.483745
      34A     -0.472796    35A     -0.462321

  @DF-RHF Final Energy:  -529.52421612527291

   => Energetics <=

    Nuclear Repulsion Energy =            464.6287787424540170
    One-Electron Energy =               -1649.3430258033095015
    Two-Electron Energy =                 655.1900309355826266
    Total Energy =                       -529.5242161252729147
  Basis Set: (AUG-CC-PVTZ AUX)
    Blend: AUG-CC-PVTZ-RI
    Molecular point group: c1

    Geometry (in Angstrom), charge = 0, multiplicity = 1:

       Center              X                  Y                   Z               Mass
    ------------   -----------------  -----------------  -----------------  -----------------
         O            0.277889544480     1.616332120562     0.329035076624    15.994914619570
         O            2.191971544480    -1.420292879438     0.203370076624    15.994914619570
         O           -2.803722455520    -0.061865879438    -1.011159923376    15.994914619570
         O            2.653423544480     0.681350120562    -0.523596923376    15.994914619570
         O           -2.247328455520    -0.236751879438     1.179567076624    15.994914619570
         C            0.472563544480     0.218264120562     0.400567076624    12.000000000000
         C           -0.527196455520    -0.503966879438    -0.502908923376    12.000000000000
         C            1.886765544480    -0.123301879438    -0.017023923376    12.000000000000
         C           -1.924665455520    -0.248369879438     0.005092076624    12.000000000000
         H            0.313388544480    -0.107803879438     1.434534076624     1.007825032230
         H           -0.350577455520    -1.585653879438    -0.490551923376     1.007825032230
         H           -0.431389455520    -0.144428879438    -1.530725923376     1.007825032230
         H            0.988569144480     1.949065820562    -0.165781823376     1.007825032230
         H            3.110404544480    -1.545190879438    -0.115824923376     1.007825032230
         H           -3.675024455520     0.075732120562    -0.583548923376     1.007825032230

  Basis Set: AUG-CC-PVTZ
    Blend: AUG-CC-PVTZ
  Basis Set: (AUG-CC-PVTZ AUX)
    Blend: AUG-CC-PVTZ-JKFIT
	 Reference Energy          =    -529.5242161252729147 [Eh]
	 Singles Energy            =      -0.0000000000000000 [Eh]
	 Same-Spin Energy          =      -0.5047416274471783 [Eh]
	 Opposite-Spin Energy      =      -1.5047081769017516 [Eh]
	 Correlation Energy        =      -2.0094498043489297 [Eh]
	 Total Energy              =    -531.5336659296218613 [Eh]

	 ================> DF-SCS-MP2 Energies <==================
	-----------------------------------------------------------
	 SCS Same-Spin Scale       =       0.3333333333333333 [-]
	 SCS Opposite-Spin Scale   =       1.2000000000000000 [-]
	 SCS Same-Spin Energy      =      -0.1682472091490594 [Eh]
	 SCS Opposite-Spin Energy  =      -1.8056498122821019 [Eh]
	 SCS Correlation Energy    =      -1.9738970214311613 [Eh]
	 SCS Total Energy          =    -531.4981131467040996 [Eh]
	-----------------------------------------------------------

  Dipole Moment: [D]
     X:     0.7908      Y:    -2.1997      Z:    -1.5615     Total:     2.8111

*** Psi4 exiting successfully. Buy a developer a beer!
