                               Psi4 1.3.2 release

  ==> Input File <==

--------------------------------------------------------------------------
#psi4
#
memory 32 gb

molecule  {
0 1
  O        0.2778030     1.6259200     0.3386670
  O        2.1914470    -1.4110830     0.2143760
  O       -2.8041000    -0.0533200    -1.0004000
  O        2.6534740     0.6903680    -0.5128080
  O       -2.2475040    -0.2263980     1.1904210
  C        0.4723530     0.2278750     0.4110270
  C       -0.5672495    -0.4723020    -0.4643840
  C        1.8865440    -0.1140510    -0.0062910
  C       -1.9249390    -0.2389030     0.0159280
  H        0.3131310    -0.0976200     1.4451750
  H       -0.3508850    -1.5764080    -0.4792290
  H       -0.4317560    -0.1356430    -1.5200150
  H        1.0272260     1.9763200    -0.1823570
  H        3.1099360    -1.5361820    -0.1045700
  H       -3.6753880     0.0844680    -0.5728280
units angstrom
no_reorient  #important for SAPT in psi4, default
symmetry c1  #important for SAPT in psi4, default
}

set PROPERTIES_ORIGIN ["COM"]
properties('MP2/aug-cc-pvtz', properties = ['dipole'])
--------------------------------------------------------------------------

    Molecular point group: c1
  Charge       = 0
  Multiplicity = 1
  Basis Set: AUG-CC-PVTZ
    Blend: AUG-CC-PVTZ
  Basis Set: (AUG-CC-PVTZ AUX)
    Blend: AUG-CC-PVTZ-JKFIT

    Orbital Energies [Eh]
    ---------------------

    Doubly Occupied:

       1A    -20.645637     2A    -20.625425     3A    -20.583231
       4A    -20.574846     5A    -20.558242     6A    -11.417622
       7A    -11.399902     8A    -11.324277     9A    -11.270683
      10A     -1.491976    11A     -1.470430    12A     -1.398524
      13A     -1.373601    14A     -1.365637    15A     -1.092409
      16A     -0.977211    17A     -0.848705    18A     -0.807661
      19A     -0.760191    20A     -0.736782    21A     -0.714652
      22A     -0.706348    23A     -0.673476    24A     -0.651040
      25A     -0.648145    26A     -0.627306    27A     -0.597451
      28A     -0.595641    29A     -0.550881    30A     -0.545368
      31A     -0.511872    32A     -0.491097    33A     -0.484414
      34A     -0.468631    35A     -0.465317

  @DF-RHF Final Energy:  -529.52005481673223

   => Energetics <=

    Nuclear Repulsion Energy =            464.8324166383899296
    One-Electron Energy =               -1649.7956796335008676
    Two-Electron Energy =                 655.4432081783786543
    Total Energy =                       -529.5200548167322268
  Basis Set: (AUG-CC-PVTZ AUX)
    Blend: AUG-CC-PVTZ-RI
    Molecular point group: c1

    Geometry (in Angstrom), charge = 0, multiplicity = 1:

       Center              X                  Y                   Z               Mass
    ------------   -----------------  -----------------  -----------------  -----------------
         O            0.281307931112     1.614422455070     0.325733272643    15.994914619570
         O            2.194951931112    -1.422580544930     0.201442272643    15.994914619570
         O           -2.800595068888    -0.064817544930    -1.013333727357    15.994914619570
         O            2.656978931112     0.678870455070    -0.525741727357    15.994914619570
         O           -2.243999068888    -0.237895544930     1.177487272643    15.994914619570
         C            0.475857931112     0.216377455070     0.398093272643    12.000000000000
         C           -0.563744568888    -0.483799544930    -0.477317727357    12.000000000000
         C            1.890048931112    -0.125548544930    -0.019224727357    12.000000000000
         C           -1.921434068888    -0.250400544930     0.002994272643    12.000000000000
         H            0.316635931112    -0.109117544930     1.432241272643     1.007825032230
         H           -0.347380068888    -1.587905544930    -0.492162727357     1.007825032230
         H           -0.428251068888    -0.147140544930    -1.532948727357     1.007825032230
         H            1.030730931112     1.964822455070    -0.195290727357     1.007825032230
         H            3.113440931112    -1.547679544930    -0.117503727357     1.007825032230
         H           -3.671883068888     0.072970455070    -0.585761727357     1.007825032230

  Basis Set: AUG-CC-PVTZ
    Blend: AUG-CC-PVTZ
  Basis Set: (AUG-CC-PVTZ AUX)
    Blend: AUG-CC-PVTZ-JKFIT
	 Reference Energy          =    -529.5200548167322268 [Eh]
	 Singles Energy            =      -0.0000000000000000 [Eh]
	 Same-Spin Energy          =      -0.5058030156271074 [Eh]
	 Opposite-Spin Energy      =      -1.5066981498059564 [Eh]
	 Correlation Energy        =      -2.0125011654330640 [Eh]
	 Total Energy              =    -531.5325559821652632 [Eh]

	 ================> DF-SCS-MP2 Energies <==================
	-----------------------------------------------------------
	 SCS Same-Spin Scale       =       0.3333333333333333 [-]
	 SCS Opposite-Spin Scale   =       1.2000000000000000 [-]
	 SCS Same-Spin Energy      =      -0.1686010052090358 [Eh]
	 SCS Opposite-Spin Energy  =      -1.8080377797671476 [Eh]
	 SCS Correlation Energy    =      -1.9766387849761835 [Eh]
	 SCS Total Energy          =    -531.4966936017084436 [Eh]
	-----------------------------------------------------------

  Dipole Moment: [D]
     X:     0.9303      Y:    -2.1899      Z:    -1.6059     Total:     2.8705

*** Psi4 exiting successfully. Buy a developer a beer!
