                               Psi4 1.3.2 release

  ==> Input File <==

--------------------------------------------------------------------------
#psi4
#
memory 32 gb

molecule  {
0 1
  O        0.2778030     1.6259200     0.3386670
  O        2.1914470    -1.4110830     0.2143760
  O       -2.8041000    -0.0533200    -1.0004000
  O        2.6534740     0.6903680    -0.5128080
  O       -2.2475040    -0.2263980     1.1904210
  C        0.4723530     0.2278750     0.4110270
  C       -0.6429117    -0.4249233    -0.4059213
  C        1.8865440    -0.1140510    -0.0062910
  C       -1.9249390    -0.2389030     0.0159280
  H        0.3131310    -0.0976200     1.4451750
  H       -0.3508850    -1.5764080    -0.4792290
  H       -0.4317560    -0.1356430    -1.5200150
  H        1.0272260     1.9763200    -0.1823570
  H        3.1099360    -1.5361820    -0.1045700
  H       -3.6753880     0.0844680    -0.5728280
units angstrom
no_reorient  #important for SAPT in psi4, default
symmetry c1  #important for SAPT in psi4, default
}

set PROPERTIES_ORIGIN ["COM"]
properties('MP2/aug-cc-pvtz', properties = ['dipole'])
--------------------------------------------------------------------------

    Molecular point group: c1
  Charge       = 0
  Multiplicity = 1
  Basis Set: AUG-CC-PVTZ
    Blend: AUG-CC-PVTZ
  Basis Set: (AUG-CC-PVTZ AUX)
    Blend: AUG-CC-PVTZ-JKFIT

    Orbital Energies [Eh]
    ---------------------

    Doubly Occupied:

       1A    -20.647698     2A    -20.624136     3A    -20.586208
       4A    -20.573933     5A    -20.555225     6A    -11.421455
       7A    -11.393759     8A    -11.326540     9A    -11.273980
      10A     -1.494103    11A     -1.471860    12A     -1.400148
      13A     -1.374897    14A     -1.365508    15A     -1.100810
      16A     -0.990080    17A     -0.854272    18A     -0.800658
      19A     -0.762649    20A     -0.738536    21A     -0.720769
      22A     -0.710669    23A     -0.675497    24A     -0.651268
      25A     -0.648306    26A     -0.627204    27A     -0.605082
      28A     -0.589665    29A     -0.550741    30A     -0.526228
      31A     -0.513734    32A     -0.492413    33A     -0.482543
      34A     -0.468775    35A     -0.462107

  @DF-RHF Final Energy:  -529.49259723990679

   => Energetics <=

    Nuclear Repulsion Energy =            465.9355502209798487
    One-Electron Energy =               -1651.8933792815359993
    Two-Electron Energy =                 656.4652318206493646
    Total Energy =                       -529.4925972399067859
  Basis Set: (AUG-CC-PVTZ AUX)
    Blend: AUG-CC-PVTZ-RI
    Molecular point group: c1

    Geometry (in Angstrom), charge = 0, multiplicity = 1:

       Center              X                  Y                   Z               Mass
    ------------   -----------------  -----------------  -----------------  -----------------
         O            0.288082562363     1.610180267800     0.320498647765    15.994914619570
         O            2.201726562363    -1.426822732200     0.196207647765    15.994914619570
         O           -2.793820437637    -0.069059732200    -1.018568352235    15.994914619570
         O            2.663753562363     0.674628267800    -0.530976352235    15.994914619570
         O           -2.237224437637    -0.242137732200     1.172252647765    15.994914619570
         C            0.482632562363     0.212135267800     0.392858647765    12.000000000000
         C           -0.632632137637    -0.440663032200    -0.424089652235    12.000000000000
         C            1.896823562363    -0.129790732200    -0.024459352235    12.000000000000
         C           -1.914659437637    -0.254642732200    -0.002240352235    12.000000000000
         H            0.323410562363    -0.113359732200     1.427006647765     1.007825032230
         H           -0.340605437637    -1.592147732200    -0.497397352235     1.007825032230
         H           -0.421476437637    -0.151382732200    -1.538183352235     1.007825032230
         H            1.037505562363     1.960580267800    -0.200525352235     1.007825032230
         H            3.120215562363    -1.551921732200    -0.122738352235     1.007825032230
         H           -3.665108437637     0.068728267800    -0.590996352235     1.007825032230

  Basis Set: AUG-CC-PVTZ
    Blend: AUG-CC-PVTZ
  Basis Set: (AUG-CC-PVTZ AUX)
    Blend: AUG-CC-PVTZ-JKFIT
	 Reference Energy          =    -529.4925972399067859 [Eh]
	 Singles Energy            =      -0.0000000000000000 [Eh]
	 Same-Spin Energy          =      -0.5073009365623018 [Eh]
	 Opposite-Spin Energy      =      -1.5090954751521002 [Eh]
	 Correlation Energy        =      -2.0163964117144020 [Eh]
	 Total Energy              =    -531.5089936516211537 [Eh]

	 ================> DF-SCS-MP2 Energies <==================
	-----------------------------------------------------------
	 SCS Same-Spin Scale       =       0.3333333333333333 [-]
	 SCS Opposite-Spin Scale   =       1.2000000000000000 [-]
	 SCS Same-Spin Energy      =      -0.1691003121874339 [Eh]
	 SCS Opposite-Spin Energy  =      -1.8109145701825202 [Eh]
	 SCS Correlation Energy    =      -1.9800148823699542 [Eh]
	 SCS Total Energy          =    -531.4726121222767006 [Eh]
	-----------------------------------------------------------

  Dipole Moment: [D]
     X:     1.1235      Y:    -2.2065      Z:    -1.6369     Total:     2.9682

*** Psi4 exiting successfully. Buy a developer a beer!
