                               Psi4 1.3.2 release

  ==> Input File <==

--------------------------------------------------------------------------
#psi4
#
memory 32 gb

molecule  {
0 1
  O        0.2778030     1.6259200     0.3386670
  O        2.1914470    -1.4110830     0.2143760
  O       -2.8041000    -0.0533200    -1.0004000
  O        2.6534740     0.6903680    -0.5128080
  O       -2.2475040    -0.2263980     1.1904210
  C        0.4723530     0.2278750     0.4110270
  C       -0.5274950    -0.4947260    -0.4920330
  C        1.8766235    -0.0930722    -0.0537537
  C       -1.9249390    -0.2389030     0.0159280
  H        0.3131310    -0.0976200     1.4451750
  H       -0.3508850    -1.5764080    -0.4792290
  H       -0.4317560    -0.1356430    -1.5200150
  H        1.0272260     1.9763200    -0.1823570
  H        3.1099360    -1.5361820    -0.1045700
  H       -3.6753880     0.0844680    -0.5728280
units angstrom
no_reorient  #important for SAPT in psi4, default
symmetry c1  #important for SAPT in psi4, default
}

set PROPERTIES_ORIGIN ["COM"]
properties('MP2/aug-cc-pvtz', properties = ['dipole'])
--------------------------------------------------------------------------

    Molecular point group: c1
  Charge       = 0
  Multiplicity = 1
  Basis Set: AUG-CC-PVTZ
    Blend: AUG-CC-PVTZ
  Basis Set: (AUG-CC-PVTZ AUX)
    Blend: AUG-CC-PVTZ-JKFIT

    Orbital Energies [Eh]
    ---------------------

    Doubly Occupied:

       1A    -20.635900     2A    -20.625733     3A    -20.588490
       4A    -20.576349     5A    -20.559401     6A    -11.414336
       7A    -11.401877     8A    -11.324124     9A    -11.269317
      10A     -1.488910    11A     -1.469620    12A     -1.399270
      13A     -1.378874    14A     -1.365926    15A     -1.089977
      16A     -0.968942    17A     -0.840500    18A     -0.809400
      19A     -0.757848    20A     -0.736682    21A     -0.714150
      22A     -0.702972    23A     -0.672695    24A     -0.649828
      25A     -0.646797    26A     -0.630190    27A     -0.600130
      28A     -0.589913    29A     -0.558586    30A     -0.551764
      31A     -0.518371    32A     -0.491659    33A     -0.485949
      34A     -0.471033    35A     -0.461282

  @DF-RHF Final Energy:  -529.52257874052179

   => Energetics <=

    Nuclear Repulsion Energy =            464.5104829590656550
    One-Electron Energy =               -1649.1725321217745659
    Two-Electron Energy =                 655.1394704221870597
    Total Energy =                       -529.5225787405217943
  Basis Set: (AUG-CC-PVTZ AUX)
    Blend: AUG-CC-PVTZ-RI
    Molecular point group: c1

    Geometry (in Angstrom), charge = 0, multiplicity = 1:

       Center              X                  Y                   Z               Mass
    ------------   -----------------  -----------------  -----------------  -----------------
         O            0.278636658684     1.614551855181     0.332458613303    15.994914619570
         O            2.192280658684    -1.422451144819     0.208167613303    15.994914619570
         O           -2.803266341316    -0.064688144819    -1.006608386697    15.994914619570
         O            2.654307658684     0.678999855181    -0.519016386697    15.994914619570
         O           -2.246670341316    -0.237766144819     1.184212613303    15.994914619570
         C            0.473186658684     0.216506855181     0.404818613303    12.000000000000
         C           -0.526661341316    -0.506094144819    -0.498241386697    12.000000000000
         C            1.877457158684    -0.104440344819    -0.059962086697    12.000000000000
         C           -1.924105341316    -0.250271144819     0.009719613303    12.000000000000
         H            0.313964658684    -0.108988144819     1.438966613303     1.007825032230
         H           -0.350051341316    -1.587776144819    -0.485437386697     1.007825032230
         H           -0.430922341316    -0.147011144819    -1.526223386697     1.007825032230
         H            1.028059658684     1.964951855181    -0.188565386697     1.007825032230
         H            3.110769658684    -1.547550144819    -0.110778386697     1.007825032230
         H           -3.674554341316     0.073099855181    -0.579036386697     1.007825032230

  Basis Set: AUG-CC-PVTZ
    Blend: AUG-CC-PVTZ
  Basis Set: (AUG-CC-PVTZ AUX)
    Blend: AUG-CC-PVTZ-JKFIT
	 Reference Energy          =    -529.5225787405217943 [Eh]
	 Singles Energy            =      -0.0000000000000000 [Eh]
	 Same-Spin Energy          =      -0.5051285281518839 [Eh]
	 Opposite-Spin Energy      =      -1.5058534068444667 [Eh]
	 Correlation Energy        =      -2.0109819349963507 [Eh]
	 Total Energy              =    -531.5335606755181743 [Eh]

	 ================> DF-SCS-MP2 Energies <==================
	-----------------------------------------------------------
	 SCS Same-Spin Scale       =       0.3333333333333333 [-]
	 SCS Opposite-Spin Scale   =       1.2000000000000000 [-]
	 SCS Same-Spin Energy      =      -0.1683761760506280 [Eh]
	 SCS Opposite-Spin Energy  =      -1.8070240882133599 [Eh]
	 SCS Correlation Energy    =      -1.9754002642639878 [Eh]
	 SCS Total Energy          =    -531.4979790047857477 [Eh]
	-----------------------------------------------------------

  Dipole Moment: [D]
     X:     0.8431      Y:    -1.9352      Z:    -1.6995     Total:     2.7100

*** Psi4 exiting successfully. Buy a developer a beer!
