                               Psi4 1.3.2 release

  ==> Input File <==

--------------------------------------------------------------------------
#psi4
#
memory 32 gb

molecule  {
0 1
  O        0.2778030     1.6259200     0.3386670
  O        2.1914470    -1.4110830     0.2143760
  O       -2.8041000    -0.0533200    -1.0004000
  O        2.6830491     0.6597322    -0.5148874
  O       -2.2475040    -0.2263980     1.1904210
  C        0.4723530     0.2278750     0.4110270
  C       -0.5274950    -0.4947260    -0.4920330
  C        1.8865440    -0.1140510    -0.0062910
  C       -1.9249390    -0.2389030     0.0159280
  H        0.3131310    -0.0976200     1.4451750
  H       -0.3508850    -1.5764080    -0.4792290
  H       -0.4317560    -0.1356430    -1.5200150
  H        1.0272260     1.9763200    -0.1823570
  H        3.1099360    -1.5361820    -0.1045700
  H       -3.6753880     0.0844680    -0.5728280
units angstrom
no_reorient  #important for SAPT in psi4, default
symmetry c1  #important for SAPT in psi4, default
}

set PROPERTIES_ORIGIN ["COM"]
properties('MP2/aug-cc-pvtz', properties = ['dipole'])
--------------------------------------------------------------------------

    Molecular point group: c1
  Charge       = 0
  Multiplicity = 1
  Basis Set: AUG-CC-PVTZ
    Blend: AUG-CC-PVTZ
  Basis Set: (AUG-CC-PVTZ AUX)
    Blend: AUG-CC-PVTZ-JKFIT

    Orbital Energies [Eh]
    ---------------------

    Doubly Occupied:

       1A    -20.641162     2A    -20.626430     3A    -20.580949
       4A    -20.577741     5A    -20.560132     6A    -11.415403
       7A    -11.402811     8A    -11.326046     9A    -11.270803
      10A     -1.490706    11A     -1.470337    12A     -1.396048
      13A     -1.373517    14A     -1.366379    15A     -1.091059
      16A     -0.972349    17A     -0.846061    18A     -0.811710
      19A     -0.758649    20A     -0.734523    21A     -0.714741
      22A     -0.703349    23A     -0.673193    24A     -0.651312
      25A     -0.647891    26A     -0.627854    27A     -0.601207
      28A     -0.590687    29A     -0.559586    30A     -0.549107
      31A     -0.509152    32A     -0.491703    33A     -0.484311
      34A     -0.472375    35A     -0.462722

  @DF-RHF Final Energy:  -529.52344195065177

   => Energetics <=

    Nuclear Repulsion Energy =            464.0580033112485125
    One-Electron Energy =               -1648.2588813647250845
    Two-Electron Energy =                 654.6774361028247995
    Total Energy =                       -529.5234419506517725
  Basis Set: (AUG-CC-PVTZ AUX)
    Blend: AUG-CC-PVTZ-RI
    Molecular point group: c1

    Geometry (in Angstrom), charge = 0, multiplicity = 1:

       Center              X                  Y                   Z               Mass
    ------------   -----------------  -----------------  -----------------  -----------------
         O            0.274218732482     1.620086508027     0.328457072645    15.994914619570
         O            2.187862732482    -1.416916491973     0.204166072645    15.994914619570
         O           -2.807684267518    -0.059153491973    -1.010609927355    15.994914619570
         O            2.679464832482     0.653898708027    -0.525097327355    15.994914619570
         O           -2.251088267518    -0.232231491973     1.180211072645    15.994914619570
         C            0.468768732482     0.222041508027     0.400817072645    12.000000000000
         C           -0.531079267518    -0.500559491973    -0.502242927355    12.000000000000
         C            1.882959732482    -0.119884491973    -0.016500927355    12.000000000000
         C           -1.928523267518    -0.244736491973     0.005718072645    12.000000000000
         H            0.309546732482    -0.103453491973     1.434965072645     1.007825032230
         H           -0.354469267518    -1.582241491973    -0.489438927355     1.007825032230
         H           -0.435340267518    -0.141476491973    -1.530224927355     1.007825032230
         H            1.023641732482     1.970486508027    -0.192566927355     1.007825032230
         H            3.106351732482    -1.542015491973    -0.114779927355     1.007825032230
         H           -3.678972267518     0.078634508027    -0.583037927355     1.007825032230

  Basis Set: AUG-CC-PVTZ
    Blend: AUG-CC-PVTZ
  Basis Set: (AUG-CC-PVTZ AUX)
    Blend: AUG-CC-PVTZ-JKFIT
	 Reference Energy          =    -529.5234419506517725 [Eh]
	 Singles Energy            =      -0.0000000000000000 [Eh]
	 Same-Spin Energy          =      -0.5053028564256069 [Eh]
	 Opposite-Spin Energy      =      -1.5060174269766455 [Eh]
	 Correlation Energy        =      -2.0113202834022523 [Eh]
	 Total Energy              =    -531.5347622340540283 [Eh]

	 ================> DF-SCS-MP2 Energies <==================
	-----------------------------------------------------------
	 SCS Same-Spin Scale       =       0.3333333333333333 [-]
	 SCS Opposite-Spin Scale   =       1.2000000000000000 [-]
	 SCS Same-Spin Energy      =      -0.1684342854752023 [Eh]
	 SCS Opposite-Spin Energy  =      -1.8072209123719745 [Eh]
	 SCS Correlation Energy    =      -1.9756551978471768 [Eh]
	 SCS Total Energy          =    -531.4990971484990041 [Eh]
	-----------------------------------------------------------

  Dipole Moment: [D]
     X:     0.7286      Y:    -2.1004      Z:    -1.5756     Total:     2.7249

*** Psi4 exiting successfully. Buy a developer a beer!
