                               Psi4 1.3.2 release

  ==> Input File <==

--------------------------------------------------------------------------
#psi4
#
memory 32 gb

molecule  {
0 1
  O        0.2778030     1.6259200     0.3386670
  O        2.1914470    -1.4110830     0.2143760
  O       -2.8041000    -0.0533200    -1.0004000
  O        2.6534740     0.6903680    -0.5128080
  O       -2.2475040    -0.2263980     1.1904210
  C        0.4723530     0.2278750     0.4110270
  C       -0.5274950    -0.4947260    -0.4920330
  C        1.9799759    -0.1366412    -0.0338621
  C       -1.9249390    -0.2389030     0.0159280
  H        0.3131310    -0.0976200     1.4451750
  H       -0.3508850    -1.5764080    -0.4792290
  H       -0.4317560    -0.1356430    -1.5200150
  H        1.0272260     1.9763200    -0.1823570
  H        3.1099360    -1.5361820    -0.1045700
  H       -3.6753880     0.0844680    -0.5728280
units angstrom
no_reorient  #important for SAPT in psi4, default
symmetry c1  #important for SAPT in psi4, default
}

set PROPERTIES_ORIGIN ["COM"]
properties('MP2/aug-cc-pvtz', properties = ['dipole'])
--------------------------------------------------------------------------

    Molecular point group: c1
  Charge       = 0
  Multiplicity = 1
  Basis Set: AUG-CC-PVTZ
    Blend: AUG-CC-PVTZ
  Basis Set: (AUG-CC-PVTZ AUX)
    Blend: AUG-CC-PVTZ-JKFIT

    Orbital Energies [Eh]
    ---------------------

    Doubly Occupied:

       1A    -20.654555     2A    -20.621813     3A    -20.586418
       4A    -20.569754     5A    -20.554745     6A    -11.409854
       7A    -11.396956     8A    -11.316456     9A    -11.262350
      10A     -1.517128    11A     -1.465465    12A     -1.426376
      13A     -1.373830    14A     -1.361418    15A     -1.076050
      16A     -0.949676    17A     -0.847866    18A     -0.805054
      19A     -0.760788    20A     -0.744190    21A     -0.710033
      22A     -0.700805    23A     -0.672891    24A     -0.663042
      25A     -0.654371    26A     -0.628710    27A     -0.596691
      28A     -0.587242    29A     -0.552824    30A     -0.550016
      31A     -0.529797    32A     -0.485997    33A     -0.470588
      34A     -0.463953    35A     -0.450973

  @DF-RHF Final Energy:  -529.51663013505117

   => Energetics <=

    Nuclear Repulsion Energy =            463.9590229346861747
    One-Electron Energy =               -1648.1139572076654076
    Two-Electron Energy =                 654.6383041379281167
    Total Energy =                       -529.5166301350511731
  Basis Set: (AUG-CC-PVTZ AUX)
    Blend: AUG-CC-PVTZ-RI
    Molecular point group: c1

    Geometry (in Angstrom), charge = 0, multiplicity = 1:

       Center              X                  Y                   Z               Mass
    ------------   -----------------  -----------------  -----------------  -----------------
         O            0.269382706262     1.618452930077     0.330677562065    15.994914619570
         O            2.183026706262    -1.418550069923     0.206386562065    15.994914619570
         O           -2.812520293738    -0.060787069923    -1.008389437935    15.994914619570
         O            2.645053706262     0.682900930077    -0.520797437935    15.994914619570
         O           -2.255924293738    -0.233865069923     1.182431562065    15.994914619570
         C            0.463932706262     0.220407930077     0.403037562065    12.000000000000
         C           -0.535915293738    -0.502193069923    -0.500022437935    12.000000000000
         C            1.971555606262    -0.144108269923    -0.041851537935    12.000000000000
         C           -1.933359293738    -0.246370069923     0.007938562065    12.000000000000
         H            0.304710706262    -0.105087069923     1.437185562065     1.007825032230
         H           -0.359305293738    -1.583875069923    -0.487218437935     1.007825032230
         H           -0.440176293738    -0.143110069923    -1.528004437935     1.007825032230
         H            1.018805706262     1.968852930077    -0.190346437935     1.007825032230
         H            3.101515706262    -1.543649069923    -0.112559437935     1.007825032230
         H           -3.683808293738     0.077000930077    -0.580817437935     1.007825032230

  Basis Set: AUG-CC-PVTZ
    Blend: AUG-CC-PVTZ
  Basis Set: (AUG-CC-PVTZ AUX)
    Blend: AUG-CC-PVTZ-JKFIT
	 Reference Energy          =    -529.5166301350511731 [Eh]
	 Singles Energy            =      -0.0000000000000000 [Eh]
	 Same-Spin Energy          =      -0.5042530314108916 [Eh]
	 Opposite-Spin Energy      =      -1.5036705451040007 [Eh]
	 Correlation Energy        =      -2.0079235765148922 [Eh]
	 Total Energy              =    -531.5245537115661136 [Eh]

	 ================> DF-SCS-MP2 Energies <==================
	-----------------------------------------------------------
	 SCS Same-Spin Scale       =       0.3333333333333333 [-]
	 SCS Opposite-Spin Scale   =       1.2000000000000000 [-]
	 SCS Same-Spin Energy      =      -0.1680843438036305 [Eh]
	 SCS Opposite-Spin Energy  =      -1.8044046541248007 [Eh]
	 SCS Correlation Energy    =      -1.9724889979284312 [Eh]
	 SCS Total Energy          =    -531.4891191329795674 [Eh]
	-----------------------------------------------------------

  Dipole Moment: [D]
     X:     1.4423      Y:    -2.3118      Z:    -1.6927     Total:     3.2078

*** Psi4 exiting successfully. Buy a developer a beer!
