                               Psi4 1.3.2 release

  ==> Input File <==

--------------------------------------------------------------------------
#psi4
#
memory 32 gb

molecule  {
0 1
  O        0.2778030     1.6259200     0.3386670
  O        2.1914470    -1.4110830     0.2143760
  O       -2.8041000    -0.0533200    -1.0004000
  O        2.6534740     0.6903680    -0.5128080
  O       -2.2475040    -0.2263980     1.1904210
  C        0.4723530     0.2278750     0.4110270
  C       -0.5274950    -0.4947260    -0.4920330
  C        1.9316968    -0.3061274     0.0263874
  C       -1.9249390    -0.2389030     0.0159280
  H        0.3131310    -0.0976200     1.4451750
  H       -0.3508850    -1.5764080    -0.4792290
  H       -0.4317560    -0.1356430    -1.5200150
  H        1.0272260     1.9763200    -0.1823570
  H        3.1099360    -1.5361820    -0.1045700
  H       -3.6753880     0.0844680    -0.5728280
units angstrom
no_reorient  #important for SAPT in psi4, default
symmetry c1  #important for SAPT in psi4, default
}

set PROPERTIES_ORIGIN ["COM"]
properties('MP2/aug-cc-pvtz', properties = ['dipole'])
--------------------------------------------------------------------------

    Molecular point group: c1
  Charge       = 0
  Multiplicity = 1
  Basis Set: AUG-CC-PVTZ
    Blend: AUG-CC-PVTZ
  Basis Set: (AUG-CC-PVTZ AUX)
    Blend: AUG-CC-PVTZ-JKFIT

    Orbital Energies [Eh]
    ---------------------

    Doubly Occupied:

       1A    -20.700854     2A    -20.622876     3A    -20.568856
       4A    -20.556136     5A    -20.545100     6A    -11.417747
       7A    -11.398282     8A    -11.321625     9A    -11.265352
      10A     -1.615725    11A     -1.466633    12A     -1.377234
      13A     -1.362792    14A     -1.308578    15A     -1.083292
      16A     -0.984013    17A     -0.895055    18A     -0.811818
      19A     -0.793557    20A     -0.745952    21A     -0.729763
      22A     -0.711116    23A     -0.687877    24A     -0.665892
      25A     -0.639043    26A     -0.615691    27A     -0.591523
      28A     -0.587599    29A     -0.555976    30A     -0.511194
      31A     -0.487094    32A     -0.468833    33A     -0.464814
      34A     -0.459394    35A     -0.442798

  @DF-RHF Final Energy:  -529.45669972770906

   => Energetics <=

    Nuclear Repulsion Energy =            464.1172665718684129
    One-Electron Energy =               -1648.2277700074396307
    Two-Electron Energy =                 654.6538037078621528
    Total Energy =                       -529.4566997277090650
  Basis Set: (AUG-CC-PVTZ AUX)
    Blend: AUG-CC-PVTZ-RI
    Molecular point group: c1

    Geometry (in Angstrom), charge = 0, multiplicity = 1:

       Center              X                  Y                   Z               Mass
    ------------   -----------------  -----------------  -----------------  -----------------
         O            0.273705513419     1.633628361232     0.325282950944    15.994914619570
         O            2.187349513419    -1.403374638768     0.200991950944    15.994914619570
         O           -2.808197486581    -0.045611638768    -1.013784049056    15.994914619570
         O            2.649376513419     0.698076361232    -0.526192049056    15.994914619570
         O           -2.251601486581    -0.218689638768     1.177036950944    15.994914619570
         C            0.468255513419     0.235583361232     0.397642950944    12.000000000000
         C           -0.531592486581    -0.487017638768    -0.505417049056    12.000000000000
         C            1.927599313419    -0.298419038768     0.013003350944    12.000000000000
         C           -1.929036486581    -0.231194638768     0.002543950944    12.000000000000
         H            0.309033513419    -0.089911638768     1.431790950944     1.007825032230
         H           -0.354982486581    -1.568699638768    -0.492613049056     1.007825032230
         H           -0.435853486581    -0.127934638768    -1.533399049056     1.007825032230
         H            1.023128513419     1.984028361232    -0.195741049056     1.007825032230
         H            3.105838513419    -1.528473638768    -0.117954049056     1.007825032230
         H           -3.679485486581     0.092176361232    -0.586212049056     1.007825032230

  Basis Set: AUG-CC-PVTZ
    Blend: AUG-CC-PVTZ
  Basis Set: (AUG-CC-PVTZ AUX)
    Blend: AUG-CC-PVTZ-JKFIT
	 Reference Energy          =    -529.4566997277090650 [Eh]
	 Singles Energy            =      -0.0000000000000000 [Eh]
	 Same-Spin Energy          =      -0.5069830618029878 [Eh]
	 Opposite-Spin Energy      =      -1.5077210023103671 [Eh]
	 Correlation Energy        =      -2.0147040641133547 [Eh]
	 Total Energy              =    -531.4714037918224676 [Eh]

	 ================> DF-SCS-MP2 Energies <==================
	-----------------------------------------------------------
	 SCS Same-Spin Scale       =       0.3333333333333333 [-]
	 SCS Opposite-Spin Scale   =       1.2000000000000000 [-]
	 SCS Same-Spin Energy      =      -0.1689943539343293 [Eh]
	 SCS Opposite-Spin Energy  =      -1.8092652027724405 [Eh]
	 SCS Correlation Energy    =      -1.9782595567067698 [Eh]
	 SCS Total Energy          =    -531.4349592844158678 [Eh]
	-----------------------------------------------------------

  Dipole Moment: [D]
     X:     1.1101      Y:    -3.6732      Z:    -1.2164     Total:     4.0255

*** Psi4 exiting successfully. Buy a developer a beer!
