                               Psi4 1.3.2 release

  ==> Input File <==

--------------------------------------------------------------------------
#psi4
#
memory 32 gb

molecule  {
0 1
  O        0.2778030     1.6259200     0.3386670
  O        2.1914470    -1.4110830     0.2143760
  O       -2.8041000    -0.0533200    -1.0004000
  O        2.6534740     0.6903680    -0.5128080
  O       -2.2475040    -0.2263980     1.1904210
  C        0.4723530     0.2278750     0.4110270
  C       -0.5274950    -0.4947260    -0.4920330
  C        1.7609624    -0.2457712     0.0766490
  C       -1.9249390    -0.2389030     0.0159280
  H        0.3131310    -0.0976200     1.4451750
  H       -0.3508850    -1.5764080    -0.4792290
  H       -0.4317560    -0.1356430    -1.5200150
  H        1.0272260     1.9763200    -0.1823570
  H        3.1099360    -1.5361820    -0.1045700
  H       -3.6753880     0.0844680    -0.5728280
units angstrom
no_reorient  #important for SAPT in psi4, default
symmetry c1  #important for SAPT in psi4, default
}

set PROPERTIES_ORIGIN ["COM"]
properties('MP2/aug-cc-pvtz', properties = ['dipole'])
--------------------------------------------------------------------------

    Molecular point group: c1
  Charge       = 0
  Multiplicity = 1
  Basis Set: AUG-CC-PVTZ
    Blend: AUG-CC-PVTZ
  Basis Set: (AUG-CC-PVTZ AUX)
    Blend: AUG-CC-PVTZ-JKFIT

    Orbital Energies [Eh]
    ---------------------

    Doubly Occupied:

       1A    -20.676085     2A    -20.629968     3A    -20.579720
       4A    -20.564249     5A    -20.542344     6A    -11.428677
       7A    -11.407198     8A    -11.329002     9A    -11.279687
      10A     -1.535890    11A     -1.474090    12A     -1.391257
      13A     -1.370635    14A     -1.269864    15A     -1.114703
      16A     -1.003873    17A     -0.886813    18A     -0.825586
      19A     -0.778699    20A     -0.741157    21A     -0.718735
      22A     -0.712622    23A     -0.677961    24A     -0.670762
      25A     -0.647061    26A     -0.615122    27A     -0.597486
      28A     -0.583433    29A     -0.567935    30A     -0.522879
      31A     -0.494091    32A     -0.478886    33A     -0.470986
      34A     -0.453532    35A     -0.443069

  @DF-RHF Final Energy:  -529.45640482770818

   => Energetics <=

    Nuclear Repulsion Energy =            464.8265594234050582
    One-Electron Energy =               -1649.5978113791256874
    Two-Electron Energy =                 655.3148471280123886
    Total Energy =                       -529.4564048277081838
  Basis Set: (AUG-CC-PVTZ AUX)
    Blend: AUG-CC-PVTZ-RI
    Molecular point group: c1

    Geometry (in Angstrom), charge = 0, multiplicity = 1:

       Center              X                  Y                   Z               Mass
    ------------   -----------------  -----------------  -----------------  -----------------
         O            0.288992705727     1.628224196422     0.320782634986    15.994914619570
         O            2.202636705727    -1.408778803578     0.196491634986    15.994914619570
         O           -2.792910294273    -0.051015803578    -1.018284365014    15.994914619570
         O            2.664663705727     0.692672196422    -0.530692365014    15.994914619570
         O           -2.236314294273    -0.224093803578     1.172536634986    15.994914619570
         C            0.483542705727     0.230179196422     0.393142634986    12.000000000000
         C           -0.516305294273    -0.492421803578    -0.509917365014    12.000000000000
         C            1.772152105727    -0.243467003578     0.058764634986    12.000000000000
         C           -1.913749294273    -0.236598803578    -0.001956365014    12.000000000000
         H            0.324320705727    -0.095315803578     1.427290634986     1.007825032230
         H           -0.339695294273    -1.574103803578    -0.497113365014     1.007825032230
         H           -0.420566294273    -0.133338803578    -1.537899365014     1.007825032230
         H            1.038415705727     1.978624196422    -0.200241365014     1.007825032230
         H            3.121125705727    -1.533877803578    -0.122454365014     1.007825032230
         H           -3.664198294273     0.086772196422    -0.590712365014     1.007825032230

  Basis Set: AUG-CC-PVTZ
    Blend: AUG-CC-PVTZ
  Basis Set: (AUG-CC-PVTZ AUX)
    Blend: AUG-CC-PVTZ-JKFIT
	 Reference Energy          =    -529.4564048277081838 [Eh]
	 Singles Energy            =      -0.0000000000000000 [Eh]
	 Same-Spin Energy          =      -0.5101609075471255 [Eh]
	 Opposite-Spin Energy      =      -1.5140896315013532 [Eh]
	 Correlation Energy        =      -2.0242505390484786 [Eh]
	 Total Energy              =    -531.4806553667566504 [Eh]

	 ================> DF-SCS-MP2 Energies <==================
	-----------------------------------------------------------
	 SCS Same-Spin Scale       =       0.3333333333333333 [-]
	 SCS Opposite-Spin Scale   =       1.2000000000000000 [-]
	 SCS Same-Spin Energy      =      -0.1700536358490418 [Eh]
	 SCS Opposite-Spin Energy  =      -1.8169075578016238 [Eh]
	 SCS Correlation Energy    =      -1.9869611936506657 [Eh]
	 SCS Total Energy          =    -531.4433660213588837 [Eh]
	-----------------------------------------------------------

  Dipole Moment: [D]
     X:     0.1834      Y:    -3.1937      Z:    -1.1438     Total:     3.3973

*** Psi4 exiting successfully. Buy a developer a beer!
