                               Psi4 1.3.2 release

  ==> Input File <==

--------------------------------------------------------------------------
#psi4
#
memory 32 gb

molecule  {
0 1
  O        0.2778030     1.6259200     0.3386670
  O        2.1914470    -1.4110830     0.2143760
  O       -2.8041000    -0.0533200    -1.0004000
  O        2.5592921     0.7762519    -0.5028811
  O       -2.2475040    -0.2263980     1.1904210
  C        0.4723530     0.2278750     0.4110270
  C       -0.5274950    -0.4947260    -0.4920330
  C        1.8865440    -0.1140510    -0.0062910
  C       -1.9249390    -0.2389030     0.0159280
  H        0.3131310    -0.0976200     1.4451750
  H       -0.3508850    -1.5764080    -0.4792290
  H       -0.4317560    -0.1356430    -1.5200150
  H        1.0272260     1.9763200    -0.1823570
  H        3.1099360    -1.5361820    -0.1045700
  H       -3.6753880     0.0844680    -0.5728280
units angstrom
no_reorient  #important for SAPT in psi4, default
symmetry c1  #important for SAPT in psi4, default
}

set PROPERTIES_ORIGIN ["COM"]
properties('MP2/aug-cc-pvtz', properties = ['dipole'])
--------------------------------------------------------------------------

    Molecular point group: c1
  Charge       = 0
  Multiplicity = 1
  Basis Set: AUG-CC-PVTZ
    Blend: AUG-CC-PVTZ
  Basis Set: (AUG-CC-PVTZ AUX)
    Blend: AUG-CC-PVTZ-JKFIT

    Orbital Energies [Eh]
    ---------------------

    Doubly Occupied:

       1A    -20.655250     2A    -20.623673     3A    -20.584422
       4A    -20.568177     5A    -20.556870     6A    -11.417812
       7A    -11.399420     8A    -11.316782     9A    -11.266722
      10A     -1.493140    11A     -1.467398    12A     -1.406170
      13A     -1.368813    14A     -1.362568    15A     -1.086092
      16A     -0.968785    17A     -0.846790    18A     -0.808756
      19A     -0.759656    20A     -0.741214    21A     -0.711778
      22A     -0.700979    23A     -0.670824    24A     -0.653824
      25A     -0.649067    26A     -0.626280    27A     -0.597329
      28A     -0.588704    29A     -0.555227    30A     -0.541928
      31A     -0.516349    32A     -0.489880    33A     -0.481551
      34A     -0.465991    35A     -0.458804

  @DF-RHF Final Energy:  -529.51915878043724

   => Energetics <=

    Nuclear Repulsion Energy =            465.3398897245562580
    One-Electron Energy =               -1650.9040385175535448
    Two-Electron Energy =                 656.0449900125599925
    Total Energy =                       -529.5191587804372375
  Basis Set: (AUG-CC-PVTZ AUX)
    Blend: AUG-CC-PVTZ-RI
    Molecular point group: c1

    Geometry (in Angstrom), charge = 0, multiplicity = 1:

       Center              X                  Y                   Z               Mass
    ------------   -----------------  -----------------  -----------------  -----------------
         O            0.288988618691     1.606180363647     0.327024170387    15.994914619570
         O            2.202632618691    -1.430822636353     0.202733170387    15.994914619570
         O           -2.792914381309    -0.073059636353    -1.012042829613    15.994914619570
         O            2.570477718691     0.756512263647    -0.514523929613    15.994914619570
         O           -2.236318381309    -0.246137636353     1.178778170387    15.994914619570
         C            0.483538618691     0.208135363647     0.399384170387    12.000000000000
         C           -0.516309381309    -0.514465636353    -0.503675829613    12.000000000000
         C            1.897729618691    -0.133790636353    -0.017933829613    12.000000000000
         C           -1.913753381309    -0.258642636353     0.004285170387    12.000000000000
         H            0.324316618691    -0.117359636353     1.433532170387     1.007825032230
         H           -0.339699381309    -1.596147636353    -0.490871829613     1.007825032230
         H           -0.420570381309    -0.155382636353    -1.531657829613     1.007825032230
         H            1.038411618691     1.956580363647    -0.193999829613     1.007825032230
         H            3.121121618691    -1.555921636353    -0.116212829613     1.007825032230
         H           -3.664202381309     0.064728363647    -0.584470829613     1.007825032230

  Basis Set: AUG-CC-PVTZ
    Blend: AUG-CC-PVTZ
  Basis Set: (AUG-CC-PVTZ AUX)
    Blend: AUG-CC-PVTZ-JKFIT
	 Reference Energy          =    -529.5191587804372375 [Eh]
	 Singles Energy            =      -0.0000000000000000 [Eh]
	 Same-Spin Energy          =      -0.5060375945730065 [Eh]
	 Opposite-Spin Energy      =      -1.5070081622363629 [Eh]
	 Correlation Energy        =      -2.0130457568093694 [Eh]
	 Total Energy              =    -531.5322045372465709 [Eh]

	 ================> DF-SCS-MP2 Energies <==================
	-----------------------------------------------------------
	 SCS Same-Spin Scale       =       0.3333333333333333 [-]
	 SCS Opposite-Spin Scale   =       1.2000000000000000 [-]
	 SCS Same-Spin Energy      =      -0.1686791981910021 [Eh]
	 SCS Opposite-Spin Energy  =      -1.8084097946836355 [Eh]
	 SCS Correlation Energy    =      -1.9770889928746376 [Eh]
	 SCS Total Energy          =    -531.4962477733118931 [Eh]
	-----------------------------------------------------------

  Dipole Moment: [D]
     X:     1.2288      Y:    -2.4137      Z:    -1.6319     Total:     3.1622

*** Psi4 exiting successfully. Buy a developer a beer!
