                               Psi4 1.3.2 release

  ==> Input File <==

--------------------------------------------------------------------------
#psi4
#
memory 32 gb

molecule  {
0 1
  O        0.2778030     1.6259200     0.3386670
  O        2.1914470    -1.4110830     0.2143760
  O       -2.8041000    -0.0533200    -1.0004000
  O        2.6534740     0.6903680    -0.5128080
  O       -2.2475040    -0.2263980     1.1904210
  C        0.4723530     0.2278750     0.4110270
  C       -0.5274950    -0.4947260    -0.4920330
  C        1.8865440    -0.1140510    -0.0062910
  C       -1.9249390    -0.2389030     0.0159280
  H        0.3131310    -0.0976200     1.4451750
  H       -0.3508850    -1.5764080    -0.4792290
  H       -0.4317560    -0.1356430    -1.5200150
  H        1.0272260     1.9763200    -0.1823570
  H        3.0162418    -1.5234208    -0.0720346
  H       -3.6753880     0.0844680    -0.5728280
units angstrom
no_reorient  #important for SAPT in psi4, default
symmetry c1  #important for SAPT in psi4, default
}

set PROPERTIES_ORIGIN ["COM"]
properties('MP2/aug-cc-pvtz', properties = ['dipole'])
--------------------------------------------------------------------------

    Molecular point group: c1
  Charge       = 0
  Multiplicity = 1
  Basis Set: AUG-CC-PVTZ
    Blend: AUG-CC-PVTZ
  Basis Set: (AUG-CC-PVTZ AUX)
    Blend: AUG-CC-PVTZ-JKFIT

    Orbital Energies [Eh]
    ---------------------

    Doubly Occupied:

       1A    -20.637853     2A    -20.626223     3A    -20.584083
       4A    -20.576219     5A    -20.559866     6A    -11.418108
       7A    -11.402552     8A    -11.324447     9A    -11.270546
      10A     -1.508869    11A     -1.470131    12A     -1.406279
      13A     -1.375671    14A     -1.366190    15A     -1.092069
      16A     -0.978841    17A     -0.859688    18A     -0.814197
      19A     -0.763891    20A     -0.743914    21A     -0.714749
      22A     -0.704249    23A     -0.674286    24A     -0.655904
      25A     -0.651567    26A     -0.629363    27A     -0.601716
      28A     -0.591047    29A     -0.559322    30A     -0.550462
      31A     -0.514212    32A     -0.492208    33A     -0.485377
      34A     -0.471549    35A     -0.462526

  @DF-RHF Final Energy:  -529.51896510429208

   => Energetics <=

    Nuclear Repulsion Energy =            465.0228115421542725
    One-Electron Energy =               -1650.0072027027549666
    Two-Electron Energy =                 655.4654260563087291
    Total Energy =                       -529.5189651042920786
  Basis Set: (AUG-CC-PVTZ AUX)
    Blend: AUG-CC-PVTZ-RI
    Molecular point group: c1

    Geometry (in Angstrom), charge = 0, multiplicity = 1:

       Center              X                  Y                   Z               Mass
    ------------   -----------------  -----------------  -----------------  -----------------
         O            0.278452966996     1.616334289355     0.327964242729    15.994914619570
         O            2.192096966996    -1.420668710645     0.203673242729    15.994914619570
         O           -2.803450033004    -0.062905710645    -1.011102757271    15.994914619570
         O            2.654123966996     0.680782289355    -0.523510757271    15.994914619570
         O           -2.246854033004    -0.235983710645     1.179718242729    15.994914619570
         C            0.473002966996     0.218289289355     0.400324242729    12.000000000000
         C           -0.526845033004    -0.504311710645    -0.502735757271    12.000000000000
         C            1.887193966996    -0.123636710645    -0.016993757271    12.000000000000
         C           -1.924289033004    -0.248488710645     0.005225242729    12.000000000000
         H            0.313780966996    -0.107205710645     1.434472242729     1.007825032230
         H           -0.350235033004    -1.585993710645    -0.489931757271     1.007825032230
         H           -0.431106033004    -0.145228710645    -1.530717757271     1.007825032230
         H            1.027875966996     1.966734289355    -0.193059757271     1.007825032230
         H            3.016891766996    -1.533006510645    -0.082737357271     1.007825032230
         H           -3.674738033004     0.074882289355    -0.583530757271     1.007825032230

  Basis Set: AUG-CC-PVTZ
    Blend: AUG-CC-PVTZ
  Basis Set: (AUG-CC-PVTZ AUX)
    Blend: AUG-CC-PVTZ-JKFIT
	 Reference Energy          =    -529.5189651042920786 [Eh]
	 Singles Energy            =      -0.0000000000000000 [Eh]
	 Same-Spin Energy          =      -0.5041822219642731 [Eh]
	 Opposite-Spin Energy      =      -1.5034186994154619 [Eh]
	 Correlation Energy        =      -2.0076009213797352 [Eh]
	 Total Energy              =    -531.5265660256718547 [Eh]

	 ================> DF-SCS-MP2 Energies <==================
	-----------------------------------------------------------
	 SCS Same-Spin Scale       =       0.3333333333333333 [-]
	 SCS Opposite-Spin Scale   =       1.2000000000000000 [-]
	 SCS Same-Spin Energy      =      -0.1680607406547577 [Eh]
	 SCS Opposite-Spin Energy  =      -1.8041024392985543 [Eh]
	 SCS Correlation Energy    =      -1.9721631799533119 [Eh]
	 SCS Total Energy          =    -531.4911282842454057 [Eh]
	-----------------------------------------------------------

  Dipole Moment: [D]
     X:     0.7228      Y:    -2.1240      Z:    -1.5581     Total:     2.7315

*** Psi4 exiting successfully. Buy a developer a beer!
