                               Psi4 1.3.2 release

  ==> Input File <==

--------------------------------------------------------------------------
#psi4
#
memory 32 gb

molecule  {
0 1
  O        0.2778030     1.6259200     0.3386670
  O        2.0602097    -1.4256418     0.2648578
  O       -2.8041000    -0.0533200    -1.0004000
  O        2.6534740     0.6903680    -0.5128080
  O       -2.2475040    -0.2263980     1.1904210
  C        0.4723530     0.2278750     0.4110270
  C       -0.5274950    -0.4947260    -0.4920330
  C        1.8865440    -0.1140510    -0.0062910
  C       -1.9249390    -0.2389030     0.0159280
  H        0.3131310    -0.0976200     1.4451750
  H       -0.3508850    -1.5764080    -0.4792290
  H       -0.4317560    -0.1356430    -1.5200150
  H        1.0272260     1.9763200    -0.1823570
  H        3.1099360    -1.5361820    -0.1045700
  H       -3.6753880     0.0844680    -0.5728280
units angstrom
no_reorient  #important for SAPT in psi4, default
symmetry c1  #important for SAPT in psi4, default
}

set PROPERTIES_ORIGIN ["COM"]
properties('MP2/aug-cc-pvtz', properties = ['dipole'])
--------------------------------------------------------------------------

    Molecular point group: c1
  Charge       = 0
  Multiplicity = 1
  Basis Set: AUG-CC-PVTZ
    Blend: AUG-CC-PVTZ
  Basis Set: (AUG-CC-PVTZ AUX)
    Blend: AUG-CC-PVTZ-JKFIT

    Orbital Energies [Eh]
    ---------------------

    Doubly Occupied:

       1A    -20.660299     2A    -20.624040     3A    -20.588275
       4A    -20.571152     5A    -20.557349     6A    -11.416651
       7A    -11.399856     8A    -11.317019     9A    -11.266714
      10A     -1.481864    11A     -1.467767    12A     -1.394937
      13A     -1.372718    14A     -1.363703    15A     -1.085129
      16A     -0.963483    17A     -0.832633    18A     -0.802615
      19A     -0.752075    20A     -0.729354    21A     -0.711835
      22A     -0.700163    23A     -0.668781    24A     -0.651026
      25A     -0.643524    26A     -0.629101    27A     -0.597808
      28A     -0.588203    29A     -0.555198    30A     -0.543714
      31A     -0.516013    32A     -0.489341    33A     -0.482007
      34A     -0.467240    35A     -0.458853

  @DF-RHF Final Energy:  -529.49604360332501

   => Energetics <=

    Nuclear Repulsion Energy =            464.9736925788780013
    One-Electron Energy =               -1650.2385927983575584
    Two-Electron Energy =                 655.7688566161546078
    Total Energy =                       -529.4960436033250062
  Basis Set: (AUG-CC-PVTZ AUX)
    Blend: AUG-CC-PVTZ-RI
    Molecular point group: c1

    Geometry (in Angstrom), charge = 0, multiplicity = 1:

       Center              X                  Y                   Z               Mass
    ------------   -----------------  -----------------  -----------------  -----------------
         O            0.293411027455     1.618167784556     0.322184110768    15.994914619570
         O            2.075817727455    -1.433394015444     0.248374910768    15.994914619570
         O           -2.788491972545    -0.061072215444    -1.016882889232    15.994914619570
         O            2.669082027455     0.682615784556    -0.529290889232    15.994914619570
         O           -2.231895972545    -0.234150215444     1.173938110768    15.994914619570
         C            0.487961027455     0.220122784556     0.394544110768    12.000000000000
         C           -0.511886972545    -0.502478215444    -0.508515889232    12.000000000000
         C            1.902152027455    -0.121803215444    -0.022773889232    12.000000000000
         C           -1.909330972545    -0.246655215444    -0.000554889232    12.000000000000
         H            0.328739027455    -0.105372215444     1.428692110768     1.007825032230
         H           -0.335276972545    -1.584160215444    -0.495711889232     1.007825032230
         H           -0.416147972545    -0.143395215444    -1.536497889232     1.007825032230
         H            1.042834027455     1.968567784556    -0.198839889232     1.007825032230
         H            3.125544027455    -1.543934215444    -0.121052889232     1.007825032230
         H           -3.659779972545     0.076715784556    -0.589310889232     1.007825032230

  Basis Set: AUG-CC-PVTZ
    Blend: AUG-CC-PVTZ
  Basis Set: (AUG-CC-PVTZ AUX)
    Blend: AUG-CC-PVTZ-JKFIT
	 Reference Energy          =    -529.4960436033250062 [Eh]
	 Singles Energy            =      -0.0000000000000000 [Eh]
	 Same-Spin Energy          =      -0.5083400061294701 [Eh]
	 Opposite-Spin Energy      =      -1.5126371851985176 [Eh]
	 Correlation Energy        =      -2.0209771913279875 [Eh]
	 Total Energy              =    -531.5170207946530354 [Eh]

	 ================> DF-SCS-MP2 Energies <==================
	-----------------------------------------------------------
	 SCS Same-Spin Scale       =       0.3333333333333333 [-]
	 SCS Opposite-Spin Scale   =       1.2000000000000000 [-]
	 SCS Same-Spin Energy      =      -0.1694466687098233 [Eh]
	 SCS Opposite-Spin Energy  =      -1.8151646222382212 [Eh]
	 SCS Correlation Energy    =      -1.9846112909480444 [Eh]
	 SCS Total Energy          =    -531.4806548942730160 [Eh]
	-----------------------------------------------------------

  Dipole Moment: [D]
     X:     1.1256      Y:    -2.2585      Z:    -1.6376     Total:     3.0082

*** Psi4 exiting successfully. Buy a developer a beer!
