                               Psi4 1.3.2 release

  ==> Input File <==

--------------------------------------------------------------------------
#psi4
#
memory 32 gb

molecule  {
0 1
  O        0.2313924     1.6193883     0.3540677
  O        2.1914470    -1.4110830     0.2143760
  O       -2.8041000    -0.0533200    -1.0004000
  O        2.6534740     0.6903680    -0.5128080
  O       -2.2475040    -0.2263980     1.1904210
  C        0.4723530     0.2278750     0.4110270
  C       -0.5274950    -0.4947260    -0.4920330
  C        1.8865440    -0.1140510    -0.0062910
  C       -1.9249390    -0.2389030     0.0159280
  H        0.3131310    -0.0976200     1.4451750
  H       -0.3508850    -1.5764080    -0.4792290
  H       -0.4317560    -0.1356430    -1.5200150
  H        1.0272260     1.9763200    -0.1823570
  H        3.1099360    -1.5361820    -0.1045700
  H       -3.6753880     0.0844680    -0.5728280
units angstrom
no_reorient  #important for SAPT in psi4, default
symmetry c1  #important for SAPT in psi4, default
}

set PROPERTIES_ORIGIN ["COM"]
properties('MP2/aug-cc-pvtz', properties = ['dipole'])
--------------------------------------------------------------------------

    Molecular point group: c1
  Charge       = 0
  Multiplicity = 1
  Basis Set: AUG-CC-PVTZ
    Blend: AUG-CC-PVTZ
  Basis Set: (AUG-CC-PVTZ AUX)
    Blend: AUG-CC-PVTZ-JKFIT

    Orbital Energies [Eh]
    ---------------------

    Doubly Occupied:

       1A    -20.645924     2A    -20.625105     3A    -20.583520
       4A    -20.580196     5A    -20.558452     6A    -11.417534
       7A    -11.401234     8A    -11.322674     9A    -11.268914
      10A     -1.492074    11A     -1.468899    12A     -1.395776
      13A     -1.370546    14A     -1.363929    15A     -1.087479
      16A     -0.970948    17A     -0.844958    18A     -0.807958
      19A     -0.758059    20A     -0.736743    21A     -0.712997
      22A     -0.701172    23A     -0.672228    24A     -0.651930
      25A     -0.643257    26A     -0.626685    27A     -0.598466
      28A     -0.589610    29A     -0.557769    30A     -0.547778
      31A     -0.512600    32A     -0.491090    33A     -0.484200
      34A     -0.469006    35A     -0.461401

  @DF-RHF Final Energy:  -529.51815201077295

   => Energetics <=

    Nuclear Repulsion Energy =            464.1913998677924837
    One-Electron Energy =               -1648.5768906105345195
    Two-Electron Energy =                 654.8673387319691983
    Total Energy =                       -529.5181520107729511
  Basis Set: (AUG-CC-PVTZ AUX)
    Blend: AUG-CC-PVTZ-RI
    Molecular point group: c1

    Geometry (in Angstrom), charge = 0, multiplicity = 1:

       Center              X                  Y                   Z               Mass
    ------------   -----------------  -----------------  -----------------  -----------------
         O            0.236876711572     1.610678083364     0.341771594991    15.994914619570
         O            2.196931311572    -1.419793216636     0.202079894991    15.994914619570
         O           -2.798615688428    -0.062030216636    -1.012696105009    15.994914619570
         O            2.658958311572     0.681657783364    -0.525104105009    15.994914619570
         O           -2.242019688428    -0.235108216636     1.178124894991    15.994914619570
         C            0.477837311572     0.219164783364     0.398730894991    12.000000000000
         C           -0.522010688428    -0.503436216636    -0.504329105009    12.000000000000
         C            1.892028311572    -0.122761216636    -0.018587105009    12.000000000000
         C           -1.919454688428    -0.247613216636     0.003631894991    12.000000000000
         H            0.318615311572    -0.106330216636     1.432878894991     1.007825032230
         H           -0.345400688428    -1.585118216636    -0.491525105009     1.007825032230
         H           -0.426271688428    -0.144353216636    -1.532311105009     1.007825032230
         H            1.032710311572     1.967609783364    -0.194653105009     1.007825032230
         H            3.115420311572    -1.544892216636    -0.116866105009     1.007825032230
         H           -3.669903688428     0.075757783364    -0.585124105009     1.007825032230

  Basis Set: AUG-CC-PVTZ
    Blend: AUG-CC-PVTZ
  Basis Set: (AUG-CC-PVTZ AUX)
    Blend: AUG-CC-PVTZ-JKFIT
	 Reference Energy          =    -529.5181520107729511 [Eh]
	 Singles Energy            =      -0.0000000000000000 [Eh]
	 Same-Spin Energy          =      -0.5062126553932251 [Eh]
	 Opposite-Spin Energy      =      -1.5079787563232754 [Eh]
	 Correlation Energy        =      -2.0141914117165003 [Eh]
	 Total Energy              =    -531.5323434224894754 [Eh]

	 ================> DF-SCS-MP2 Energies <==================
	-----------------------------------------------------------
	 SCS Same-Spin Scale       =       0.3333333333333333 [-]
	 SCS Opposite-Spin Scale   =       1.2000000000000000 [-]
	 SCS Same-Spin Energy      =      -0.1687375517977417 [Eh]
	 SCS Opposite-Spin Energy  =      -1.8095745075879304 [Eh]
	 SCS Correlation Energy    =      -1.9783120593856720 [Eh]
	 SCS Total Energy          =    -531.4964640701585950 [Eh]
	-----------------------------------------------------------

  Dipole Moment: [D]
     X:     0.9509      Y:    -2.1620      Z:    -1.5985     Total:     2.8520

*** Psi4 exiting successfully. Buy a developer a beer!
