                               Psi4 1.4a3.dev225

  ==> Input File <==

--------------------------------------------------------------------------
#psi4
#
memory 32 gb

molecule  {
0 1
  O        0.2776560     1.6256810     0.3396990
  O        2.1917380    -1.4109440     0.2140340
  O       -2.8039560    -0.0525170    -1.0004960
  O        2.6531900     0.6906990    -0.5129330
  O       -2.2475620    -0.2274030     1.1902310
  C        0.4723300     0.2276130     0.4112310
  C       -0.5274300    -0.4946180    -0.4922450
  C        1.8978316    -0.1619711     0.0017996
  C       -1.9248990    -0.2390210     0.0157560
  H        0.3131550    -0.0984550     1.4451980
  H       -0.3508110    -1.5763050    -0.4798880
  H       -0.4316230    -0.1350800    -1.5200620
  H        1.0266390     1.9763480    -0.1817870
  H        3.1101710    -1.5358420    -0.1051610
  H       -3.6752580     0.0850810    -0.5728850
units angstrom
no_reorient  #important for SAPT in psi4, default
symmetry c1  #important for SAPT in psi4, default
}

set PROPERTIES_ORIGIN ["COM"]
properties('MP2/aug-cc-pvtz', properties = ['dipole'])
--------------------------------------------------------------------------

    Molecular point group: c1
  Charge       = 0
  Multiplicity = 1
  Basis Set: AUG-CC-PVTZ
    Blend: AUG-CC-PVTZ
  Basis Set: (AUG-CC-PVTZ AUX)
    Blend: AUG-CC-PVTZ-JKFIT

    Orbital Energies [Eh]
    ---------------------

    Doubly Occupied:

       1A    -20.658869     2A    -20.625003     3A    -20.573789
       4A    -20.573302     5A    -20.558491     6A    -11.416895
       7A    -11.401015     8A    -11.322943     9A    -11.268624
      10A     -1.511315    11A     -1.468849    12A     -1.393044
      13A     -1.366424    14A     -1.361231    15A     -1.088009
      16A     -0.970520    17A     -0.857304    18A     -0.812079
      19A     -0.760617    20A     -0.740220    21A     -0.713290
      22A     -0.702442    23A     -0.672393    24A     -0.661302
      25A     -0.647611    26A     -0.624948    27A     -0.598909
      28A     -0.589953    29A     -0.557886    30A     -0.541332
      31A     -0.501790    32A     -0.489893    33A     -0.478721
      34A     -0.469127    35A     -0.460116

  @DF-RHF Final Energy:  -529.51937453552659

   => Energetics <=

    Nuclear Repulsion Energy =            464.1892642844090346
    One-Electron Energy =               -1648.5407687764538878
    Two-Electron Energy =                 654.8321299565182017
    Total Energy =                       -529.5193745355265946
  Basis Set: (AUG-CC-PVTZ AUX)
    Blend: AUG-CC-PVTZ-RI
    Molecular point group: c1

    Geometry (in Angstrom), charge = 0, multiplicity = 1:

       Center              X                  Y                   Z               Mass
    ------------   -----------------  -----------------  -----------------  -----------------
         O            0.276589765750     1.620496702172     0.328505031809    15.994914619570
         O            2.190671765750    -1.416128297828     0.202840031809    15.994914619570
         O           -2.805022234250    -0.057701297828    -1.011689968191    15.994914619570
         O            2.652123765750     0.685514702172    -0.524126968191    15.994914619570
         O           -2.248628234250    -0.232587297828     1.179037031809    15.994914619570
         C            0.471263765750     0.222428702172     0.400037031809    12.000000000000
         C           -0.528496234250    -0.499802297828    -0.503438968191    12.000000000000
         C            1.896765365750    -0.167155397828    -0.009394368191    12.000000000000
         C           -1.925965234250    -0.244205297828     0.004562031809    12.000000000000
         H            0.312088765750    -0.103639297828     1.434004031809     1.007825032230
         H           -0.351877234250    -1.581489297828    -0.491081968191     1.007825032230
         H           -0.432689234250    -0.140264297828    -1.531255968191     1.007825032230
         H            1.025572765750     1.971163702172    -0.192980968191     1.007825032230
         H            3.109104765750    -1.541026297828    -0.116354968191     1.007825032230
         H           -3.676324234250     0.079896702172    -0.584078968191     1.007825032230

  Basis Set: AUG-CC-PVTZ
    Blend: AUG-CC-PVTZ
  Basis Set: (AUG-CC-PVTZ AUX)
    Blend: AUG-CC-PVTZ-JKFIT
	 Reference Energy          =    -529.5193745355265946 [Eh]
	 Singles Energy            =      -0.0000000000000000 [Eh]
	 Same-Spin Energy          =      -0.5057568124613897 [Eh]
	 Opposite-Spin Energy      =      -1.5064019281640006 [Eh]
	 Correlation Energy        =      -2.0121587406253902 [Eh]
	 Total Energy              =    -531.5315332761520040 [Eh]

	 ================> DF-SCS-MP2 Energies <==================
	-----------------------------------------------------------
	 SCS Same-Spin Scale       =       0.3333333333333333 [-]
	 SCS Opposite-Spin Scale   =       1.2000000000000000 [-]
	 SCS Same-Spin Energy      =      -0.1685856041537966 [Eh]
	 SCS Opposite-Spin Energy  =      -1.8076823137968008 [Eh]
	 SCS Correlation Energy    =      -1.9762679179505973 [Eh]
	 SCS Total Energy          =    -531.4956424534772168 [Eh]
	-----------------------------------------------------------

  Dipole Moment: [D]
     X:     0.9396      Y:    -2.5552      Z:    -1.5035     Total:     3.1101

*** Psi4 exiting successfully. Buy a developer a beer!
