                               Psi4 1.3.2 release

  ==> Input File <==

--------------------------------------------------------------------------
#psi4
#
memory 32 gb

molecule  {
0 1
  O        0.4182294     1.6352740     0.2930684
  O        2.1914470    -1.4110830     0.2143760
  O       -2.8041000    -0.0533200    -1.0004000
  O        2.6534740     0.6903680    -0.5128080
  O       -2.2475040    -0.2263980     1.1904210
  C        0.4723530     0.2278750     0.4110270
  C       -0.5274950    -0.4947260    -0.4920330
  C        1.8865440    -0.1140510    -0.0062910
  C       -1.9249390    -0.2389030     0.0159280
  H        0.3131310    -0.0976200     1.4451750
  H       -0.3508850    -1.5764080    -0.4792290
  H       -0.4317560    -0.1356430    -1.5200150
  H        1.0272260     1.9763200    -0.1823570
  H        3.1099360    -1.5361820    -0.1045700
  H       -3.6753880     0.0844680    -0.5728280
units angstrom
no_reorient  #important for SAPT in psi4, default
symmetry c1  #important for SAPT in psi4, default
}

set PROPERTIES_ORIGIN ["COM"]
properties('MP2/aug-cc-pvtz', properties = ['dipole'])
--------------------------------------------------------------------------

    Molecular point group: c1
  Charge       = 0
  Multiplicity = 1
  Basis Set: AUG-CC-PVTZ
    Blend: AUG-CC-PVTZ
  Basis Set: (AUG-CC-PVTZ AUX)
    Blend: AUG-CC-PVTZ-JKFIT

    Orbital Energies [Eh]
    ---------------------

    Doubly Occupied:

       1A    -20.641292     2A    -20.627840     3A    -20.576929
       4A    -20.562058     5A    -20.558335     6A    -11.411151
       7A    -11.404349     8A    -11.328519     9A    -11.272820
      10A     -1.488718    11A     -1.471904    12A     -1.416220
      13A     -1.376346    14A     -1.368795    15A     -1.098443
      16A     -0.975459    17A     -0.852631    18A     -0.822967
      19A     -0.759728    20A     -0.735852    21A     -0.717434
      22A     -0.707717    23A     -0.674050    24A     -0.666938
      25A     -0.649481    26A     -0.627013    27A     -0.604279
      28A     -0.591875    29A     -0.563242    30A     -0.537937
      31A     -0.506637    32A     -0.492951    33A     -0.482500
      34A     -0.476200    35A     -0.463111

  @DF-RHF Final Energy:  -529.50724027991782

   => Energetics <=

    Nuclear Repulsion Energy =            465.0735356156845342
    One-Electron Energy =               -1650.1381076092670810
    Two-Electron Energy =                 655.5573317136647802
    Total Energy =                       -529.5072402799178235
  Basis Set: (AUG-CC-PVTZ AUX)
    Blend: AUG-CC-PVTZ-RI
    Molecular point group: c1

    Geometry (in Angstrom), charge = 0, multiplicity = 1:

       Center              X                  Y                   Z               Mass
    ------------   -----------------  -----------------  -----------------  -----------------
         O            0.401415488202     1.624667890757     0.288052309211    15.994914619570
         O            2.174633088202    -1.421689109243     0.209359909211    15.994914619570
         O           -2.820913911798    -0.063926109243    -1.005416090789    15.994914619570
         O            2.636660088202     0.679761890757    -0.517824090789    15.994914619570
         O           -2.264317911798    -0.237004109243     1.185404909211    15.994914619570
         C            0.455539088202     0.217268890757     0.406010909211    12.000000000000
         C           -0.544308911798    -0.505332109243    -0.497049090789    12.000000000000
         C            1.869730088202    -0.124657109243    -0.011307090789    12.000000000000
         C           -1.941752911798    -0.249509109243     0.010911909211    12.000000000000
         H            0.296317088202    -0.108226109243     1.440158909211     1.007825032230
         H           -0.367698911798    -1.587014109243    -0.484245090789     1.007825032230
         H           -0.448569911798    -0.146249109243    -1.525031090789     1.007825032230
         H            1.010412088202     1.965713890757    -0.187373090789     1.007825032230
         H            3.093122088202    -1.546788109243    -0.109586090789     1.007825032230
         H           -3.692201911798     0.073861890757    -0.577844090789     1.007825032230

  Basis Set: AUG-CC-PVTZ
    Blend: AUG-CC-PVTZ
  Basis Set: (AUG-CC-PVTZ AUX)
    Blend: AUG-CC-PVTZ-JKFIT
	 Reference Energy          =    -529.5072402799178235 [Eh]
	 Singles Energy            =      -0.0000000000000000 [Eh]
	 Same-Spin Energy          =      -0.5035472935401606 [Eh]
	 Opposite-Spin Energy      =      -1.5019426332548615 [Eh]
	 Correlation Energy        =      -2.0054899267950219 [Eh]
	 Total Energy              =    -531.5127302067128312 [Eh]

	 ================> DF-SCS-MP2 Energies <==================
	-----------------------------------------------------------
	 SCS Same-Spin Scale       =       0.3333333333333333 [-]
	 SCS Opposite-Spin Scale   =       1.2000000000000000 [-]
	 SCS Same-Spin Energy      =      -0.1678490978467202 [Eh]
	 SCS Opposite-Spin Energy  =      -1.8023311599058338 [Eh]
	 SCS Correlation Energy    =      -1.9701802577525540 [Eh]
	 SCS Total Energy          =    -531.4774205376703549 [Eh]
	-----------------------------------------------------------

  Dipole Moment: [D]
     X:     0.5253      Y:    -2.2511      Z:    -1.5505     Total:     2.7834

*** Psi4 exiting successfully. Buy a developer a beer!
