                               Psi4 1.4a3.dev225

  ==> Input File <==

--------------------------------------------------------------------------
#psi4
#
memory 32 gb

molecule  {
0 1
  O        0.2776560     1.6256810     0.3396990
  O        2.1917380    -1.4109440     0.2140340
  O       -2.8039560    -0.0525170    -1.0004960
  O        2.6531900     0.6906990    -0.5129330
  O       -2.2475620    -0.2274030     1.1902310
  C        0.4723300     0.2276130     0.4112310
  C       -0.5274300    -0.4946180    -0.4922450
  C        1.8865320    -0.1139530    -0.0063600
  C       -1.9248990    -0.2390210     0.0157560
  H        0.3131550    -0.0984550     1.4451980
  H       -0.3508110    -1.5763050    -0.4798880
  H       -0.4316230    -0.1350800    -1.5200620
  H        1.0266390     1.9763480    -0.1817870
  H        3.1570151    -1.5422123    -0.1214413
  H       -3.6752580     0.0850810    -0.5728850
units angstrom
no_reorient  #important for SAPT in psi4, default
symmetry c1  #important for SAPT in psi4, default
}

set PROPERTIES_ORIGIN ["COM"]
properties('MP2/aug-cc-pvtz', properties = ['dipole'])
--------------------------------------------------------------------------

    Molecular point group: c1
  Charge       = 0
  Multiplicity = 1
  Basis Set: AUG-CC-PVTZ
    Blend: AUG-CC-PVTZ
  Basis Set: (AUG-CC-PVTZ AUX)
    Blend: AUG-CC-PVTZ-JKFIT

    Orbital Energies [Eh]
    ---------------------

    Doubly Occupied:

       1A    -20.647412     2A    -20.625542     3A    -20.580883
       4A    -20.575184     5A    -20.559093     6A    -11.414902
       7A    -11.401720     8A    -11.323455     9A    -11.269461
      10A     -1.484686    11A     -1.469373    12A     -1.394365
      13A     -1.371560    14A     -1.365202    15A     -1.088912
      16A     -0.968572    17A     -0.841019    18A     -0.809084
      19A     -0.756594    20A     -0.731724    21A     -0.713638
      22A     -0.701940    23A     -0.671725    24A     -0.650010
      25A     -0.645716    26A     -0.626541    27A     -0.599553
      28A     -0.589740    29A     -0.558124    30A     -0.545998
      31A     -0.509632    32A     -0.490934    33A     -0.483318
      34A     -0.470495    35A     -0.461505

  @DF-RHF Final Energy:  -529.51846335117341

   => Energetics <=

    Nuclear Repulsion Energy =            464.0273883031942432
    One-Electron Energy =               -1648.2964781205498639
    Two-Electron Energy =                 654.7506264661820978
    Total Energy =                       -529.5184633511734091
  Basis Set: (AUG-CC-PVTZ AUX)
    Blend: AUG-CC-PVTZ-RI
    Molecular point group: c1

    Geometry (in Angstrom), charge = 0, multiplicity = 1:

       Center              X                  Y                   Z               Mass
    ------------   -----------------  -----------------  -----------------  -----------------
         O            0.277249245968     1.616245168253     0.329358050720    15.994914619570
         O            2.191331245968    -1.420379831747     0.203693050720    15.994914619570
         O           -2.804362754032    -0.061952831747    -1.010836949280    15.994914619570
         O            2.652783245968     0.681263168253    -0.523273949280    15.994914619570
         O           -2.247968754032    -0.236838831747     1.179890050720    15.994914619570
         C            0.471923245968     0.218177168253     0.400890050720    12.000000000000
         C           -0.527836754032    -0.504053831747    -0.502585949280    12.000000000000
         C            1.886125245968    -0.123388831747    -0.016700949280    12.000000000000
         C           -1.925305754032    -0.248456831747     0.005415050720    12.000000000000
         H            0.312748245968    -0.107890831747     1.434857050720     1.007825032230
         H           -0.351217754032    -1.585740831747    -0.490228949280     1.007825032230
         H           -0.432029754032    -0.144515831747    -1.530402949280     1.007825032230
         H            1.026232245968     1.966912168253    -0.192127949280     1.007825032230
         H            3.156608345968    -1.551648131747    -0.131782249280     1.007825032230
         H           -3.675664754032     0.075645168253    -0.583225949280     1.007825032230

  Basis Set: AUG-CC-PVTZ
    Blend: AUG-CC-PVTZ
  Basis Set: (AUG-CC-PVTZ AUX)
    Blend: AUG-CC-PVTZ-JKFIT
	 Reference Energy          =    -529.5184633511734091 [Eh]
	 Singles Energy            =      -0.0000000000000000 [Eh]
	 Same-Spin Energy          =      -0.5060750727362633 [Eh]
	 Opposite-Spin Energy      =      -1.5076865997305775 [Eh]
	 Correlation Energy        =      -2.0137616724668410 [Eh]
	 Total Energy              =    -531.5322250236401942 [Eh]

	 ================> DF-SCS-MP2 Energies <==================
	-----------------------------------------------------------
	 SCS Same-Spin Scale       =       0.3333333333333333 [-]
	 SCS Opposite-Spin Scale   =       1.2000000000000000 [-]
	 SCS Same-Spin Energy      =      -0.1686916909120877 [Eh]
	 SCS Opposite-Spin Energy  =      -1.8092239196766928 [Eh]
	 SCS Correlation Energy    =      -1.9779156105887805 [Eh]
	 SCS Total Energy          =    -531.4963789617621615 [Eh]
	-----------------------------------------------------------

  Dipole Moment: [D]
     X:     0.9124      Y:    -2.2065      Z:    -1.6045     Total:     2.8767

*** Psi4 exiting successfully. Buy a developer a beer!
