                               Psi4 1.3.2 release

  ==> Input File <==

--------------------------------------------------------------------------
#psi4
#
memory 32 gb

molecule  {
0 1
  O        0.2778030     1.6259200     0.3386670
  O        2.1914470    -1.4110830     0.2143760
  O       -2.8041000    -0.0533200    -1.0004000
  O        2.6534740     0.6903680    -0.5128080
  O       -2.2475040    -0.2263980     1.1904210
  C        0.4723530     0.2278750     0.4110270
  C       -0.6057374    -0.4490250    -0.4356684
  C        1.8865440    -0.1140510    -0.0062910
  C       -1.9249390    -0.2389030     0.0159280
  H        0.3131310    -0.0976200     1.4451750
  H       -0.3508850    -1.5764080    -0.4792290
  H       -0.4317560    -0.1356430    -1.5200150
  H        1.0272260     1.9763200    -0.1823570
  H        3.1099360    -1.5361820    -0.1045700
  H       -3.6753880     0.0844680    -0.5728280
units angstrom
no_reorient  #important for SAPT in psi4, default
symmetry c1  #important for SAPT in psi4, default
}

set PROPERTIES_ORIGIN ["COM"]
properties('MP2/aug-cc-pvtz', properties = ['dipole'])
--------------------------------------------------------------------------

    Molecular point group: c1
  Charge       = 0
  Multiplicity = 1
  Basis Set: AUG-CC-PVTZ
    Blend: AUG-CC-PVTZ
  Basis Set: (AUG-CC-PVTZ AUX)
    Blend: AUG-CC-PVTZ-JKFIT

    Orbital Energies [Eh]
    ---------------------

    Doubly Occupied:

       1A    -20.646605     2A    -20.624888     3A    -20.584662
       4A    -20.574319     5A    -20.556869     6A    -11.419459
       7A    -11.397155     8A    -11.325208     9A    -11.272106
      10A     -1.492970    11A     -1.471173    12A     -1.399259
      13A     -1.374194    14A     -1.365613    15A     -1.096037
      16A     -0.983501    17A     -0.851388    18A     -0.804164
      19A     -0.761472    20A     -0.737574    21A     -0.716503
      22A     -0.709515    23A     -0.674400    24A     -0.650820
      25A     -0.648321    26A     -0.627152    27A     -0.600838
      28A     -0.593738    29A     -0.550233    30A     -0.536001
      31A     -0.512747    32A     -0.491301    33A     -0.484181
      34A     -0.468236    35A     -0.465145

  @DF-RHF Final Energy:  -529.50997339700450

   => Energetics <=

    Nuclear Repulsion Energy =            465.3663534518448728
    One-Electron Energy =               -1650.8171588126654115
    Two-Electron Energy =                 655.9408319638160947
    Total Energy =                       -529.5099733970045008
  Basis Set: (AUG-CC-PVTZ AUX)
    Blend: AUG-CC-PVTZ-RI
    Molecular point group: c1

    Geometry (in Angstrom), charge = 0, multiplicity = 1:

       Center              X                  Y                   Z               Mass
    ------------   -----------------  -----------------  -----------------  -----------------
         O            0.284754055202     1.612338282371     0.323162139353    15.994914619570
         O            2.198398055202    -1.424664717629     0.198871139353    15.994914619570
         O           -2.797148944798    -0.066901717629    -1.015904860647    15.994914619570
         O            2.660425055202     0.676786282371    -0.528312860647    15.994914619570
         O           -2.240552944798    -0.239979717629     1.174916139353    15.994914619570
         C            0.479304055202     0.214293282371     0.395522139353    12.000000000000
         C           -0.598786344798    -0.462606717629    -0.451173260647    12.000000000000
         C            1.893495055202    -0.127632717629    -0.021795860647    12.000000000000
         C           -1.917987944798    -0.252484717629     0.000423139353    12.000000000000
         H            0.320082055202    -0.111201717629     1.429670139353     1.007825032230
         H           -0.343933944798    -1.589989717629    -0.494733860647     1.007825032230
         H           -0.424804944798    -0.149224717629    -1.535519860647     1.007825032230
         H            1.034177055202     1.962738282371    -0.197861860647     1.007825032230
         H            3.116887055202    -1.549763717629    -0.120074860647     1.007825032230
         H           -3.668436944798     0.070886282371    -0.588332860647     1.007825032230

  Basis Set: AUG-CC-PVTZ
    Blend: AUG-CC-PVTZ
  Basis Set: (AUG-CC-PVTZ AUX)
    Blend: AUG-CC-PVTZ-JKFIT
	 Reference Energy          =    -529.5099733970045008 [Eh]
	 Singles Energy            =      -0.0000000000000000 [Eh]
	 Same-Spin Energy          =      -0.5064201709481007 [Eh]
	 Opposite-Spin Energy      =      -1.5076634991839555 [Eh]
	 Correlation Energy        =      -2.0140836701320559 [Eh]
	 Total Energy              =    -531.5240570671365958 [Eh]

	 ================> DF-SCS-MP2 Energies <==================
	-----------------------------------------------------------
	 SCS Same-Spin Scale       =       0.3333333333333333 [-]
	 SCS Opposite-Spin Scale   =       1.2000000000000000 [-]
	 SCS Same-Spin Energy      =      -0.1688067236493669 [Eh]
	 SCS Opposite-Spin Energy  =      -1.8091961990207466 [Eh]
	 SCS Correlation Energy    =      -1.9780029226701135 [Eh]
	 SCS Total Energy          =    -531.4879763196746580 [Eh]
	-----------------------------------------------------------

  Dipole Moment: [D]
     X:     1.0215      Y:    -2.1977      Z:    -1.6227     Total:     2.9166

*** Psi4 exiting successfully. Buy a developer a beer!
