                               Psi4 1.3.2 release

  ==> Input File <==

--------------------------------------------------------------------------
#psi4
#
memory 32 gb

molecule  {
0 1
  O        0.2778030     1.6259200     0.3386670
  O        2.1914470    -1.4110830     0.2143760
  O       -2.8041000    -0.0533200    -1.0004000
  O        2.6534740     0.6903680    -0.5128080
  O       -2.2475040    -0.2263980     1.1904210
  C        0.4723530     0.2278750     0.4110270
  C       -0.5274950    -0.4947260    -0.4920330
  C        1.8413912     0.0780254    -0.0389694
  C       -1.9249390    -0.2389030     0.0159280
  H        0.3131310    -0.0976200     1.4451750
  H       -0.3508850    -1.5764080    -0.4792290
  H       -0.4317560    -0.1356430    -1.5200150
  H        1.0272260     1.9763200    -0.1823570
  H        3.1099360    -1.5361820    -0.1045700
  H       -3.6753880     0.0844680    -0.5728280
units angstrom
no_reorient  #important for SAPT in psi4, default
symmetry c1  #important for SAPT in psi4, default
}

set PROPERTIES_ORIGIN ["COM"]
properties('MP2/aug-cc-pvtz', properties = ['dipole'])
--------------------------------------------------------------------------

    Molecular point group: c1
  Charge       = 0
  Multiplicity = 1
  Basis Set: AUG-CC-PVTZ
    Blend: AUG-CC-PVTZ
  Basis Set: (AUG-CC-PVTZ AUX)
    Blend: AUG-CC-PVTZ-JKFIT

    Orbital Energies [Eh]
    ---------------------

    Doubly Occupied:

       1A    -20.629413     2A    -20.615730     3A    -20.585063
       4A    -20.583125     5A    -20.563489     6A    -11.415634
       7A    -11.406598     8A    -11.332003     9A    -11.275498
      10A     -1.527419    11A     -1.473506    12A     -1.400018
      13A     -1.370200    14A     -1.338140    15A     -1.098123
      16A     -0.983660    17A     -0.836982    18A     -0.809033
      19A     -0.760505    20A     -0.732652    21A     -0.718307
      22A     -0.712092    23A     -0.676936    24A     -0.649803
      25A     -0.644560    26A     -0.632606    27A     -0.604262
      28A     -0.593423    29A     -0.564940    30A     -0.560699
      31A     -0.507334    32A     -0.493082    33A     -0.481560
      34A     -0.476928    35A     -0.464449

  @DF-RHF Final Energy:  -529.48343260724266

   => Energetics <=

    Nuclear Repulsion Energy =            465.2437077140826318
    One-Electron Energy =               -1650.4187397847670127
    Two-Electron Energy =                 655.6915994634417757
    Total Energy =                       -529.4834326072426620
  Basis Set: (AUG-CC-PVTZ AUX)
    Blend: AUG-CC-PVTZ-RI
    Molecular point group: c1

    Geometry (in Angstrom), charge = 0, multiplicity = 1:

       Center              X                  Y                   Z               Mass
    ------------   -----------------  -----------------  -----------------  -----------------
         O            0.281791283326     1.599232142723     0.331134858763    15.994914619570
         O            2.195435283326    -1.437770857277     0.206843858763    15.994914619570
         O           -2.800111716674    -0.080007857277    -1.007932141237    15.994914619570
         O            2.657462283326     0.663680142723    -0.520340141237    15.994914619570
         O           -2.243515716674    -0.253085857277     1.182888858763    15.994914619570
         C            0.476341283326     0.201187142723     0.403494858763    12.000000000000
         C           -0.523506716674    -0.521413857277    -0.499565141237    12.000000000000
         C            1.845379483326     0.051337542723    -0.046501541237    12.000000000000
         C           -1.920950716674    -0.265590857277     0.008395858763    12.000000000000
         H            0.317119283326    -0.124307857277     1.437642858763     1.007825032230
         H           -0.346896716674    -1.603095857277    -0.486761141237     1.007825032230
         H           -0.427767716674    -0.162330857277    -1.527547141237     1.007825032230
         H            1.031214283326     1.949632142723    -0.189889141237     1.007825032230
         H            3.113924283326    -1.562869857277    -0.112102141237     1.007825032230
         H           -3.671399716674     0.057780142723    -0.580360141237     1.007825032230

  Basis Set: AUG-CC-PVTZ
    Blend: AUG-CC-PVTZ
  Basis Set: (AUG-CC-PVTZ AUX)
    Blend: AUG-CC-PVTZ-JKFIT
	 Reference Energy          =    -529.4834326072426620 [Eh]
	 Singles Energy            =      -0.0000000000000000 [Eh]
	 Same-Spin Energy          =      -0.5054980811811031 [Eh]
	 Opposite-Spin Energy      =      -1.5078396875093900 [Eh]
	 Correlation Energy        =      -2.0133377686904930 [Eh]
	 Total Energy              =    -531.4967703759331243 [Eh]

	 ================> DF-SCS-MP2 Energies <==================
	-----------------------------------------------------------
	 SCS Same-Spin Scale       =       0.3333333333333333 [-]
	 SCS Opposite-Spin Scale   =       1.2000000000000000 [-]
	 SCS Same-Spin Energy      =      -0.1684993603937010 [Eh]
	 SCS Opposite-Spin Energy  =      -1.8094076250112678 [Eh]
	 SCS Correlation Energy    =      -1.9779069854049689 [Eh]
	 SCS Total Energy          =    -531.4613395926476187 [Eh]
	-----------------------------------------------------------

  Dipole Moment: [D]
     X:     0.3659      Y:    -0.5561      Z:    -1.9211     Total:     2.0331

*** Psi4 exiting successfully. Buy a developer a beer!
