                               Psi4 1.4a3.dev225

  ==> Input File <==

--------------------------------------------------------------------------
#psi4
#
memory 32 gb

molecule  {
0 1
  O        0.2776560     1.6256810     0.3396990
  O        2.1917380    -1.4109440     0.2140340
  O       -2.8039560    -0.0525170    -1.0004960
  O        2.6531900     0.6906990    -0.5129330
  O       -2.2475620    -0.2274030     1.1902310
  C        0.4695752     0.2473965     0.4102188
  C       -0.5274300    -0.4946180    -0.4922450
  C        1.8865320    -0.1139530    -0.0063600
  C       -1.9248990    -0.2390210     0.0157560
  H        0.3131550    -0.0984550     1.4451980
  H       -0.3508110    -1.5763050    -0.4798880
  H       -0.4316230    -0.1350800    -1.5200620
  H        1.0266390     1.9763480    -0.1817870
  H        3.1101710    -1.5358420    -0.1051610
  H       -3.6752580     0.0850810    -0.5728850
units angstrom
no_reorient  #important for SAPT in psi4, default
symmetry c1  #important for SAPT in psi4, default
}

set PROPERTIES_ORIGIN ["COM"]
properties('MP2/aug-cc-pvtz', properties = ['dipole'])
--------------------------------------------------------------------------

    Molecular point group: c1
  Charge       = 0
  Multiplicity = 1
  Basis Set: AUG-CC-PVTZ
    Blend: AUG-CC-PVTZ
  Basis Set: (AUG-CC-PVTZ AUX)
    Blend: AUG-CC-PVTZ-JKFIT

    Orbital Energies [Eh]
    ---------------------

    Doubly Occupied:

       1A    -20.644718     2A    -20.625420     3A    -20.581215
       4A    -20.577576     5A    -20.559016     6A    -11.415289
       7A    -11.401437     8A    -11.324180     9A    -11.269095
      10A     -1.490686    11A     -1.469302    12A     -1.402057
      13A     -1.376582    14A     -1.365673    15A     -1.087405
      16A     -0.969241    17A     -0.845887    18A     -0.811445
      19A     -0.760402    20A     -0.735701    21A     -0.713868
      22A     -0.703076    23A     -0.672404    24A     -0.651770
      25A     -0.649320    26A     -0.628939    27A     -0.601516
      28A     -0.590380    29A     -0.560226    30A     -0.547353
      31A     -0.510897    32A     -0.490856    33A     -0.482364
      34A     -0.469582    35A     -0.460755

  @DF-RHF Final Energy:  -529.52364643480394

   => Energetics <=

    Nuclear Repulsion Energy =            464.3966148706614945
    One-Electron Energy =               -1648.9492612844517225
    Two-Electron Energy =                 655.0289999789862350
    Total Energy =                       -529.5236464348039362
  Basis Set: (AUG-CC-PVTZ AUX)
    Blend: AUG-CC-PVTZ-RI
    Molecular point group: c1

    Geometry (in Angstrom), charge = 0, multiplicity = 1:

       Center              X                  Y                   Z               Mass
    ------------   -----------------  -----------------  -----------------  -----------------
         O            0.277848166609     1.614425892201     0.329326255127    15.994914619570
         O            2.191930166609    -1.422199107799     0.203661255127    15.994914619570
         O           -2.803763833391    -0.063772107799    -1.010868744873    15.994914619570
         O            2.653382166609     0.679443892201    -0.523305744873    15.994914619570
         O           -2.247369833391    -0.238658107799     1.179858255127    15.994914619570
         C            0.469767366609     0.236141392201     0.399846055127    12.000000000000
         C           -0.527237833391    -0.505873107799    -0.502617744873    12.000000000000
         C            1.886724166609    -0.125208107799    -0.016732744873    12.000000000000
         C           -1.924706833391    -0.250276107799     0.005383255127    12.000000000000
         H            0.313347166609    -0.109710107799     1.434825255127     1.007825032230
         H           -0.350618833391    -1.587560107799    -0.490260744873     1.007825032230
         H           -0.431430833391    -0.146335107799    -1.530434744873     1.007825032230
         H            1.026831166609     1.965092892201    -0.192159744873     1.007825032230
         H            3.110363166609    -1.547097107799    -0.115533744873     1.007825032230
         H           -3.675065833391     0.073825892201    -0.583257744873     1.007825032230

  Basis Set: AUG-CC-PVTZ
    Blend: AUG-CC-PVTZ
  Basis Set: (AUG-CC-PVTZ AUX)
    Blend: AUG-CC-PVTZ-JKFIT
	 Reference Energy          =    -529.5236464348039362 [Eh]
	 Singles Energy            =      -0.0000000000000000 [Eh]
	 Same-Spin Energy          =      -0.5053911750578539 [Eh]
	 Opposite-Spin Energy      =      -1.5057944636197622 [Eh]
	 Correlation Energy        =      -2.0111856386776159 [Eh]
	 Total Energy              =    -531.5348320734815388 [Eh]

	 ================> DF-SCS-MP2 Energies <==================
	-----------------------------------------------------------
	 SCS Same-Spin Scale       =       0.3333333333333333 [-]
	 SCS Opposite-Spin Scale   =       1.2000000000000000 [-]
	 SCS Same-Spin Energy      =      -0.1684637250192846 [Eh]
	 SCS Opposite-Spin Energy  =      -1.8069533563437146 [Eh]
	 SCS Correlation Energy    =      -1.9754170813629992 [Eh]
	 SCS Total Energy          =    -531.4990635161669843 [Eh]
	-----------------------------------------------------------

  Dipole Moment: [D]
     X:     0.8525      Y:    -2.1158      Z:    -1.5849     Total:     2.7776

*** Psi4 exiting successfully. Buy a developer a beer!
