                               Psi4 1.3.2 release

  ==> Input File <==

--------------------------------------------------------------------------
#psi4
#
memory 32 gb

molecule  {
0 1
  O        0.2778030     1.6259200     0.3386670
  O        2.1480020    -1.4175260     0.2314998
  O       -2.8041000    -0.0533200    -1.0004000
  O        2.6534740     0.6903680    -0.5128080
  O       -2.2475040    -0.2263980     1.1904210
  C        0.4723530     0.2278750     0.4110270
  C       -0.5274950    -0.4947260    -0.4920330
  C        1.8865440    -0.1140510    -0.0062910
  C       -1.9249390    -0.2389030     0.0159280
  H        0.3131310    -0.0976200     1.4451750
  H       -0.3508850    -1.5764080    -0.4792290
  H       -0.4317560    -0.1356430    -1.5200150
  H        1.0272260     1.9763200    -0.1823570
  H        3.1099360    -1.5361820    -0.1045700
  H       -3.6753880     0.0844680    -0.5728280
units angstrom
no_reorient  #important for SAPT in psi4, default
symmetry c1  #important for SAPT in psi4, default
}

set PROPERTIES_ORIGIN ["COM"]
properties('MP2/aug-cc-pvtz', properties = ['dipole'])
--------------------------------------------------------------------------

    Molecular point group: c1
  Charge       = 0
  Multiplicity = 1
  Basis Set: AUG-CC-PVTZ
    Blend: AUG-CC-PVTZ
  Basis Set: (AUG-CC-PVTZ AUX)
    Blend: AUG-CC-PVTZ-JKFIT

    Orbital Energies [Eh]
    ---------------------

    Doubly Occupied:

       1A    -20.650544     2A    -20.625181     3A    -20.583992
       4A    -20.574047     5A    -20.558669     6A    -11.415973
       7A    -11.401270     8A    -11.321454     9A    -11.268770
      10A     -1.487408    11A     -1.468999    12A     -1.396640
      13A     -1.372965    14A     -1.364934    15A     -1.088238
      16A     -0.968512    17A     -0.840135    18A     -0.808118
      19A     -0.755105    20A     -0.735509    21A     -0.713320
      22A     -0.701848    23A     -0.671380    24A     -0.651409
      25A     -0.647368    26A     -0.628271    27A     -0.599499
      28A     -0.589513    29A     -0.557386    30A     -0.546411
      31A     -0.512743    32A     -0.490747    33A     -0.483539
      34A     -0.469612    35A     -0.460905

  @DF-RHF Final Energy:  -529.51776549680267

   => Energetics <=

    Nuclear Repulsion Energy =            464.5048515136133460
    One-Electron Energy =               -1649.2244070255987936
    Two-Electron Energy =                 655.2017900151827234
    Total Energy =                       -529.5177654968026673
  Basis Set: (AUG-CC-PVTZ AUX)
    Blend: AUG-CC-PVTZ-RI
    Molecular point group: c1

    Geometry (in Angstrom), charge = 0, multiplicity = 1:

       Center              X                  Y                   Z               Mass
    ------------   -----------------  -----------------  -----------------  -----------------
         O            0.282933379475     1.617199197386     0.326165250131    15.994914619570
         O            2.153132379475    -1.426246802614     0.218998050131    15.994914619570
         O           -2.798969620525    -0.062040802614    -1.012901749869    15.994914619570
         O            2.658604379475     0.681647197386    -0.525309749869    15.994914619570
         O           -2.242373620525    -0.235118802614     1.177919250131    15.994914619570
         C            0.477483379475     0.219154197386     0.398525250131    12.000000000000
         C           -0.522364620525    -0.503446802614    -0.504534749869    12.000000000000
         C            1.891674379475    -0.122771802614    -0.018792749869    12.000000000000
         C           -1.919808620525    -0.247623802614     0.003426250131    12.000000000000
         H            0.318261379475    -0.106340802614     1.432673250131     1.007825032230
         H           -0.345754620525    -1.585128802614    -0.491730749869     1.007825032230
         H           -0.426625620525    -0.144363802614    -1.532516749869     1.007825032230
         H            1.032356379475     1.967599197386    -0.194858749869     1.007825032230
         H            3.115066379475    -1.544902802614    -0.117071749869     1.007825032230
         H           -3.670257620525     0.075747197386    -0.585329749869     1.007825032230

  Basis Set: AUG-CC-PVTZ
    Blend: AUG-CC-PVTZ
  Basis Set: (AUG-CC-PVTZ AUX)
    Blend: AUG-CC-PVTZ-JKFIT
	 Reference Energy          =    -529.5177654968026673 [Eh]
	 Singles Energy            =      -0.0000000000000000 [Eh]
	 Same-Spin Energy          =      -0.5063393703685926 [Eh]
	 Opposite-Spin Energy      =      -1.5081463459197251 [Eh]
	 Correlation Energy        =      -2.0144857162883176 [Eh]
	 Total Energy              =    -531.5322512130909445 [Eh]

	 ================> DF-SCS-MP2 Energies <==================
	-----------------------------------------------------------
	 SCS Same-Spin Scale       =       0.3333333333333333 [-]
	 SCS Opposite-Spin Scale   =       1.2000000000000000 [-]
	 SCS Same-Spin Energy      =      -0.1687797901228642 [Eh]
	 SCS Opposite-Spin Energy  =      -1.8097756151036699 [Eh]
	 SCS Correlation Energy    =      -1.9785554052265342 [Eh]
	 SCS Total Energy          =    -531.4963209020291970 [Eh]
	-----------------------------------------------------------

  Dipole Moment: [D]
     X:     0.9469      Y:    -2.2109      Z:    -1.6050     Total:     2.8915

*** Psi4 exiting successfully. Buy a developer a beer!
