                               Psi4 1.3.2 release

  ==> Input File <==

--------------------------------------------------------------------------
#psi4
#
memory 32 gb

molecule  {
0 1
  O        0.2778030     1.6259200     0.3386670
  O        2.1914470    -1.4110830     0.2143760
  O       -2.8041000    -0.0533200    -1.0004000
  O        2.6534740     0.6903680    -0.5128080
  O       -2.2475040    -0.2263980     1.1904210
  C        0.4723530     0.2278750     0.4110270
  C       -0.5274950    -0.4947260    -0.4920330
  C        1.9493348    -0.0481909    -0.0477610
  C       -1.9249390    -0.2389030     0.0159280
  H        0.3131310    -0.0976200     1.4451750
  H       -0.3508850    -1.5764080    -0.4792290
  H       -0.4317560    -0.1356430    -1.5200150
  H        1.0272260     1.9763200    -0.1823570
  H        3.1099360    -1.5361820    -0.1045700
  H       -3.6753880     0.0844680    -0.5728280
units angstrom
no_reorient  #important for SAPT in psi4, default
symmetry c1  #important for SAPT in psi4, default
}

set PROPERTIES_ORIGIN ["COM"]
properties('MP2/aug-cc-pvtz', properties = ['dipole'])
--------------------------------------------------------------------------

    Molecular point group: c1
  Charge       = 0
  Multiplicity = 1
  Basis Set: AUG-CC-PVTZ
    Blend: AUG-CC-PVTZ
  Basis Set: (AUG-CC-PVTZ AUX)
    Blend: AUG-CC-PVTZ-JKFIT

    Orbital Energies [Eh]
    ---------------------

    Doubly Occupied:

       1A    -20.626408     2A    -20.623647     3A    -20.599912
       4A    -20.573776     5A    -20.556841     6A    -11.406195
       7A    -11.399306     8A    -11.320595     9A    -11.265212
      10A     -1.523822    11A     -1.467404    12A     -1.404396
      13A     -1.381570    14A     -1.363666    15A     -1.080167
      16A     -0.952884    17A     -0.833166    18A     -0.803275
      19A     -0.759839    20A     -0.745437    21A     -0.712254
      22A     -0.703367    23A     -0.672123    24A     -0.656181
      25A     -0.650728    26A     -0.633261    27A     -0.598979
      28A     -0.588935    29A     -0.558127    30A     -0.555820
      31A     -0.533817    32A     -0.487959    33A     -0.477799
      34A     -0.467626    35A     -0.456107

  @DF-RHF Final Energy:  -529.51154790665328

   => Energetics <=

    Nuclear Repulsion Energy =            464.4183638305279374
    One-Electron Energy =               -1648.9786243373093839
    Two-Electron Energy =                 655.0487126001282832
    Total Energy =                       -529.5115479066532771
  Basis Set: (AUG-CC-PVTZ AUX)
    Blend: AUG-CC-PVTZ-RI
    Molecular point group: c1

    Geometry (in Angstrom), charge = 0, multiplicity = 1:

       Center              X                  Y                   Z               Mass
    ------------   -----------------  -----------------  -----------------  -----------------
         O            0.272126244695     1.610533279756     0.331922039787    15.994914619570
         O            2.185770244695    -1.426469720244     0.207631039787    15.994914619570
         O           -2.809776755305    -0.068706720244    -1.007144960213    15.994914619570
         O            2.647797244695     0.674981279756    -0.519552960213    15.994914619570
         O           -2.253180755305    -0.241784720244     1.183676039787    15.994914619570
         C            0.466676244695     0.212488279756     0.404282039787    12.000000000000
         C           -0.533171755305    -0.510112720244    -0.498777960213    12.000000000000
         C            1.943658044695    -0.063577620244    -0.054505960213    12.000000000000
         C           -1.930615755305    -0.254289720244     0.009183039787    12.000000000000
         H            0.307454244695    -0.113006720244     1.438430039787     1.007825032230
         H           -0.356561755305    -1.591794720244    -0.485973960213     1.007825032230
         H           -0.437432755305    -0.151029720244    -1.526759960213     1.007825032230
         H            1.021549244695     1.960933279756    -0.189101960213     1.007825032230
         H            3.104259244695    -1.551568720244    -0.111314960213     1.007825032230
         H           -3.681064755305     0.069081279756    -0.579572960213     1.007825032230

  Basis Set: AUG-CC-PVTZ
    Blend: AUG-CC-PVTZ
  Basis Set: (AUG-CC-PVTZ AUX)
    Blend: AUG-CC-PVTZ-JKFIT
	 Reference Energy          =    -529.5115479066532771 [Eh]
	 Singles Energy            =      -0.0000000000000000 [Eh]
	 Same-Spin Energy          =      -0.5035883538044159 [Eh]
	 Opposite-Spin Energy      =      -1.5031076814450597 [Eh]
	 Correlation Energy        =      -2.0066960352494756 [Eh]
	 Total Energy              =    -531.5182439419027105 [Eh]

	 ================> DF-SCS-MP2 Energies <==================
	-----------------------------------------------------------
	 SCS Same-Spin Scale       =       0.3333333333333333 [-]
	 SCS Opposite-Spin Scale   =       1.2000000000000000 [-]
	 SCS Same-Spin Energy      =      -0.1678627846014720 [Eh]
	 SCS Opposite-Spin Energy  =      -1.8037292177340716 [Eh]
	 SCS Correlation Energy    =      -1.9715920023355435 [Eh]
	 SCS Total Energy          =    -531.4831399089888464 [Eh]
	-----------------------------------------------------------

  Dipole Moment: [D]
     X:     1.2066      Y:    -1.5875      Z:    -1.8430     Total:     2.7152

*** Psi4 exiting successfully. Buy a developer a beer!
