                               Psi4 1.3.2 release

  ==> Input File <==

--------------------------------------------------------------------------
#psi4
#
memory 32 gb

molecule  {
0 1
  O        0.2778030     1.6259200     0.3386670
  O        2.1914470    -1.4110830     0.2143760
  O       -2.8041000    -0.0533200    -1.0004000
  O        2.6534740     0.6903680    -0.5128080
  O       -2.2475040    -0.2263980     1.1904210
  C        0.4723530     0.2278750     0.4110270
  C       -0.4443815    -0.5369065    -0.5439980
  C        1.8865440    -0.1140510    -0.0062910
  C       -1.9249390    -0.2389030     0.0159280
  H        0.3131310    -0.0976200     1.4451750
  H       -0.3508850    -1.5764080    -0.4792290
  H       -0.4317560    -0.1356430    -1.5200150
  H        1.0272260     1.9763200    -0.1823570
  H        3.1099360    -1.5361820    -0.1045700
  H       -3.6753880     0.0844680    -0.5728280
units angstrom
no_reorient  #important for SAPT in psi4, default
symmetry c1  #important for SAPT in psi4, default
}

set PROPERTIES_ORIGIN ["COM"]
properties('MP2/aug-cc-pvtz', properties = ['dipole'])
--------------------------------------------------------------------------

    Molecular point group: c1
  Charge       = 0
  Multiplicity = 1
  Basis Set: AUG-CC-PVTZ
    Blend: AUG-CC-PVTZ
  Basis Set: (AUG-CC-PVTZ AUX)
    Blend: AUG-CC-PVTZ-JKFIT

    Orbital Energies [Eh]
    ---------------------

    Doubly Occupied:

       1A    -20.643488     2A    -20.625963     3A    -20.579670
       4A    -20.577201     5A    -20.560868     6A    -11.413167
       7A    -11.404298     8A    -11.323966     9A    -11.270110
      10A     -1.489877    11A     -1.467881    12A     -1.397276
      13A     -1.372453    14A     -1.365120    15A     -1.087408
      16A     -0.962017    17A     -0.841928    18A     -0.816699
      19A     -0.756859    20A     -0.735644    21A     -0.713389
      22A     -0.699159    23A     -0.670179    24A     -0.654888
      25A     -0.647902    26A     -0.628227    27A     -0.604551
      28A     -0.578642    29A     -0.576450    30A     -0.546216
      31A     -0.509999    32A     -0.491791    33A     -0.483657
      34A     -0.474071    35A     -0.450413

  @DF-RHF Final Energy:  -529.51359781522592

   => Energetics <=

    Nuclear Repulsion Energy =            463.4364918718704871
    One-Electron Energy =               -1647.0573236776422164
    Two-Electron Energy =                 654.1072339905458648
    Total Energy =                       -529.5135978152259213
  Basis Set: (AUG-CC-PVTZ AUX)
    Blend: AUG-CC-PVTZ-RI
    Molecular point group: c1

    Geometry (in Angstrom), charge = 0, multiplicity = 1:

       Center              X                  Y                   Z               Mass
    ------------   -----------------  -----------------  -----------------  -----------------
         O            0.270306593687     1.620207003559     0.332861739597    15.994914619570
         O            2.183950593687    -1.416795996441     0.208570739597    15.994914619570
         O           -2.811596406313    -0.059032996441    -1.006205260403    15.994914619570
         O            2.645977593687     0.684655003559    -0.518613260403    15.994914619570
         O           -2.255000406313    -0.232110996441     1.184615739597    15.994914619570
         C            0.464856593687     0.222162003559     0.405221739597    12.000000000000
         C           -0.451877906313    -0.542619496441    -0.549803260403    12.000000000000
         C            1.879047593687    -0.119763996441    -0.012096260403    12.000000000000
         C           -1.932435406313    -0.244615996441     0.010122739597    12.000000000000
         H            0.305634593687    -0.103332996441     1.439369739597     1.007825032230
         H           -0.358381406313    -1.582120996441    -0.485034260403     1.007825032230
         H           -0.439252406313    -0.141355996441    -1.525820260403     1.007825032230
         H            1.019729593687     1.970607003559    -0.188162260403     1.007825032230
         H            3.102439593687    -1.541894996441    -0.110375260403     1.007825032230
         H           -3.682884406313     0.078755003559    -0.578633260403     1.007825032230

  Basis Set: AUG-CC-PVTZ
    Blend: AUG-CC-PVTZ
  Basis Set: (AUG-CC-PVTZ AUX)
    Blend: AUG-CC-PVTZ-JKFIT
	 Reference Energy          =    -529.5135978152259213 [Eh]
	 Singles Energy            =      -0.0000000000000000 [Eh]
	 Same-Spin Energy          =      -0.5054346651916708 [Eh]
	 Opposite-Spin Energy      =      -1.5065047926750543 [Eh]
	 Correlation Energy        =      -2.0119394578667249 [Eh]
	 Total Energy              =    -531.5255372730925956 [Eh]

	 ================> DF-SCS-MP2 Energies <==================
	-----------------------------------------------------------
	 SCS Same-Spin Scale       =       0.3333333333333333 [-]
	 SCS Opposite-Spin Scale   =       1.2000000000000000 [-]
	 SCS Same-Spin Energy      =      -0.1684782217305569 [Eh]
	 SCS Opposite-Spin Energy  =      -1.8078057512100651 [Eh]
	 SCS Correlation Energy    =      -1.9762839729406221 [Eh]
	 SCS Total Energy          =    -531.4898817881665991 [Eh]
	-----------------------------------------------------------

  Dipole Moment: [D]
     X:     0.7121      Y:    -2.1661      Z:    -1.5459     Total:     2.7548

*** Psi4 exiting successfully. Buy a developer a beer!
