                               Psi4 1.3.2 release

  ==> Input File <==

--------------------------------------------------------------------------
#psi4
#
memory 32 gb

molecule  {
0 1
  O        0.2778030     1.6259200     0.3386670
  O        2.1914470    -1.4110830     0.2143760
  O       -2.8041000    -0.0533200    -1.0004000
  O        2.6534740     0.6903680    -0.5128080
  O       -2.2475040    -0.2263980     1.1904210
  C        0.4723530     0.2278750     0.4110270
  C       -0.5274950    -0.4947260    -0.4920330
  C        1.9012061    -0.1547337     0.0901013
  C       -1.9249390    -0.2389030     0.0159280
  H        0.3131310    -0.0976200     1.4451750
  H       -0.3508850    -1.5764080    -0.4792290
  H       -0.4317560    -0.1356430    -1.5200150
  H        1.0272260     1.9763200    -0.1823570
  H        3.1099360    -1.5361820    -0.1045700
  H       -3.6753880     0.0844680    -0.5728280
units angstrom
no_reorient  #important for SAPT in psi4, default
symmetry c1  #important for SAPT in psi4, default
}

set PROPERTIES_ORIGIN ["COM"]
properties('MP2/aug-cc-pvtz', properties = ['dipole'])
--------------------------------------------------------------------------

    Molecular point group: c1
  Charge       = 0
  Multiplicity = 1
  Basis Set: AUG-CC-PVTZ
    Blend: AUG-CC-PVTZ
  Basis Set: (AUG-CC-PVTZ AUX)
    Blend: AUG-CC-PVTZ-JKFIT

    Orbital Energies [Eh]
    ---------------------

    Doubly Occupied:

       1A    -20.661079     2A    -20.626039     3A    -20.574357
       4A    -20.569008     5A    -20.559478     6A    -11.420323
       7A    -11.402455     8A    -11.324462     9A    -11.271217
      10A     -1.512062    11A     -1.469867    12A     -1.389543
      13A     -1.366444    14A     -1.346796    15A     -1.090200
      16A     -0.977681    17A     -0.860746    18A     -0.814415
      19A     -0.760635    20A     -0.738280    21A     -0.714196
      22A     -0.704029    23A     -0.672642    24A     -0.660949
      25A     -0.646174    26A     -0.621715    27A     -0.598603
      28A     -0.590261    29A     -0.559561    30A     -0.537401
      31A     -0.491977    32A     -0.489818    33A     -0.476771
      34A     -0.470121    35A     -0.462541

  @DF-RHF Final Energy:  -529.51002990564984

   => Energetics <=

    Nuclear Repulsion Energy =            463.9031239859245943
    One-Electron Energy =               -1647.9626138385578997
    Two-Electron Energy =                 654.5494599469834611
    Total Energy =                       -529.5100299056498443
  Basis Set: (AUG-CC-PVTZ AUX)
    Blend: AUG-CC-PVTZ-RI
    Molecular point group: c1

    Geometry (in Angstrom), charge = 0, multiplicity = 1:

       Center              X                  Y                   Z               Mass
    ------------   -----------------  -----------------  -----------------  -----------------
         O            0.276435585358     1.620072893756     0.319578144871    15.994914619570
         O            2.190079585358    -1.416930106244     0.195287144871    15.994914619570
         O           -2.805467414642    -0.059167106244    -1.019488855129    15.994914619570
         O            2.652106585358     0.684520893756    -0.531896855129    15.994914619570
         O           -2.248871414642    -0.232245106244     1.171332144871    15.994914619570
         C            0.470985585358     0.222027893756     0.391938144871    12.000000000000
         C           -0.528862414642    -0.500573106244    -0.511121855129    12.000000000000
         C            1.899838685358    -0.160580806244     0.071012444871    12.000000000000
         C           -1.926306414642    -0.244750106244    -0.003160855129    12.000000000000
         H            0.311763585358    -0.103467106244     1.426086144871     1.007825032230
         H           -0.352252414642    -1.582255106244    -0.498317855129     1.007825032230
         H           -0.433123414642    -0.141490106244    -1.539103855129     1.007825032230
         H            1.025858585358     1.970472893756    -0.201445855129     1.007825032230
         H            3.108568585358    -1.542029106244    -0.123658855129     1.007825032230
         H           -3.676755414642     0.078620893756    -0.591916855129     1.007825032230

  Basis Set: AUG-CC-PVTZ
    Blend: AUG-CC-PVTZ
  Basis Set: (AUG-CC-PVTZ AUX)
    Blend: AUG-CC-PVTZ-JKFIT
	 Reference Energy          =    -529.5100299056498443 [Eh]
	 Singles Energy            =      -0.0000000000000000 [Eh]
	 Same-Spin Energy          =      -0.5065536682901886 [Eh]
	 Opposite-Spin Energy      =      -1.5081147996009898 [Eh]
	 Correlation Energy        =      -2.0146684678911786 [Eh]
	 Total Energy              =    -531.5246983735410140 [Eh]

	 ================> DF-SCS-MP2 Energies <==================
	-----------------------------------------------------------
	 SCS Same-Spin Scale       =       0.3333333333333333 [-]
	 SCS Opposite-Spin Scale   =       1.2000000000000000 [-]
	 SCS Same-Spin Energy      =      -0.1688512227633962 [Eh]
	 SCS Opposite-Spin Energy  =      -1.8097377595211876 [Eh]
	 SCS Correlation Energy    =      -1.9785889822845839 [Eh]
	 SCS Total Energy          =    -531.4886188879344218 [Eh]
	-----------------------------------------------------------

  Dipole Moment: [D]
     X:     0.8233      Y:    -2.6370      Z:    -1.3797     Total:     3.0879

*** Psi4 exiting successfully. Buy a developer a beer!
