                               Psi4 1.3.2 release

  ==> Input File <==

--------------------------------------------------------------------------
#psi4
#
memory 32 gb

molecule  {
0 1
  O        0.2778030     1.6259200     0.3386670
  O        2.1042385    -1.4223809     0.2483339
  O       -2.8041000    -0.0533200    -1.0004000
  O        2.6534740     0.6903680    -0.5128080
  O       -2.2475040    -0.2263980     1.1904210
  C        0.4723530     0.2278750     0.4110270
  C       -0.5274950    -0.4947260    -0.4920330
  C        1.8865440    -0.1140510    -0.0062910
  C       -1.9249390    -0.2389030     0.0159280
  H        0.3131310    -0.0976200     1.4451750
  H       -0.3508850    -1.5764080    -0.4792290
  H       -0.4317560    -0.1356430    -1.5200150
  H        1.0272260     1.9763200    -0.1823570
  H        3.1099360    -1.5361820    -0.1045700
  H       -3.6753880     0.0844680    -0.5728280
units angstrom
no_reorient  #important for SAPT in psi4, default
symmetry c1  #important for SAPT in psi4, default
}

set PROPERTIES_ORIGIN ["COM"]
properties('MP2/aug-cc-pvtz', properties = ['dipole'])
--------------------------------------------------------------------------

    Molecular point group: c1
  Charge       = 0
  Multiplicity = 1
  Basis Set: AUG-CC-PVTZ
    Blend: AUG-CC-PVTZ
  Basis Set: (AUG-CC-PVTZ AUX)
    Blend: AUG-CC-PVTZ-JKFIT

    Orbital Energies [Eh]
    ---------------------

    Doubly Occupied:

       1A    -20.655703     2A    -20.624606     3A    -20.586110
       4A    -20.572595     5A    -20.558002     6A    -11.416212
       7A    -11.400558     8A    -11.319206     9A    -11.267736
      10A     -1.484343    11A     -1.468378    12A     -1.395621
      13A     -1.372852    14A     -1.364315    15A     -1.086667
      16A     -0.965874    17A     -0.835732    18A     -0.805256
      19A     -0.752840    20A     -0.733053    21A     -0.712581
      22A     -0.700960    23A     -0.670088    24A     -0.651086
      25A     -0.646030    26A     -0.628767    27A     -0.598672
      28A     -0.588853    29A     -0.556279    30A     -0.545113
      31A     -0.514374    32A     -0.490082    33A     -0.482872
      34A     -0.468412    35A     -0.459912

  @DF-RHF Final Energy:  -529.50835637380271

   => Energetics <=

    Nuclear Repulsion Energy =            464.7184884837211598
    One-Electron Energy =               -1649.6942089860854139
    Two-Electron Energy =                 655.4673641285615986
    Total Energy =                       -529.5083563738027124
  Basis Set: (AUG-CC-PVTZ AUX)
    Blend: AUG-CC-PVTZ-RI
    Molecular point group: c1

    Geometry (in Angstrom), charge = 0, multiplicity = 1:

       Center              X                  Y                   Z               Mass
    ------------   -----------------  -----------------  -----------------  -----------------
         O            0.288156372236     1.617778609625     0.324156169906    15.994914619570
         O            2.114591872236    -1.430522290375     0.233823069906    15.994914619570
         O           -2.793746627764    -0.061461390375    -1.014910830094    15.994914619570
         O            2.663827372236     0.682226609625    -0.527318830094    15.994914619570
         O           -2.237150627764    -0.234539390375     1.175910169906    15.994914619570
         C            0.482706372236     0.219733609625     0.396516169906    12.000000000000
         C           -0.517141627764    -0.502867390375    -0.506543830094    12.000000000000
         C            1.896897372236    -0.122192390375    -0.020801830094    12.000000000000
         C           -1.914585627764    -0.247044390375     0.001417169906    12.000000000000
         H            0.323484372236    -0.105761390375     1.430664169906     1.007825032230
         H           -0.340531627764    -1.584549390375    -0.493739830094     1.007825032230
         H           -0.421402627764    -0.143784390375    -1.534525830094     1.007825032230
         H            1.037579372236     1.968178609625    -0.196867830094     1.007825032230
         H            3.120289372236    -1.544323390375    -0.119080830094     1.007825032230
         H           -3.665034627764     0.076326609625    -0.587338830094     1.007825032230

  Basis Set: AUG-CC-PVTZ
    Blend: AUG-CC-PVTZ
  Basis Set: (AUG-CC-PVTZ AUX)
    Blend: AUG-CC-PVTZ-JKFIT
	 Reference Energy          =    -529.5083563738027124 [Eh]
	 Singles Energy            =      -0.0000000000000000 [Eh]
	 Same-Spin Energy          =      -0.5073073903503412 [Eh]
	 Opposite-Spin Energy      =      -1.5102986580388962 [Eh]
	 Correlation Energy        =      -2.0176060483892373 [Eh]
	 Total Energy              =    -531.5259624221919239 [Eh]

	 ================> DF-SCS-MP2 Energies <==================
	-----------------------------------------------------------
	 SCS Same-Spin Scale       =       0.3333333333333333 [-]
	 SCS Opposite-Spin Scale   =       1.2000000000000000 [-]
	 SCS Same-Spin Energy      =      -0.1691024634501137 [Eh]
	 SCS Opposite-Spin Energy  =      -1.8123583896466753 [Eh]
	 SCS Correlation Energy    =      -1.9814608530967890 [Eh]
	 SCS Total Energy          =    -531.4898172268995040 [Eh]
	-----------------------------------------------------------

  Dipole Moment: [D]
     X:     1.0390      Y:    -2.2364      Z:    -1.6217     Total:     2.9514

*** Psi4 exiting successfully. Buy a developer a beer!
