                               Psi4 1.3.2 release

  ==> Input File <==

--------------------------------------------------------------------------
#psi4
#
memory 32 gb

molecule  {
0 1
  O        0.2778030     1.6259200     0.3386670
  O        2.1699758    -1.4143583     0.2235330
  O       -2.8041000    -0.0533200    -1.0004000
  O        2.6534740     0.6903680    -0.5128080
  O       -2.2475040    -0.2263980     1.1904210
  C        0.4723530     0.2278750     0.4110270
  C       -0.5274950    -0.4947260    -0.4920330
  C        1.8865440    -0.1140510    -0.0062910
  C       -1.9249390    -0.2389030     0.0159280
  H        0.3131310    -0.0976200     1.4451750
  H       -0.3508850    -1.5764080    -0.4792290
  H       -0.4317560    -0.1356430    -1.5200150
  H        1.0272260     1.9763200    -0.1823570
  H        3.1099360    -1.5361820    -0.1045700
  H       -3.6753880     0.0844680    -0.5728280
units angstrom
no_reorient  #important for SAPT in psi4, default
symmetry c1  #important for SAPT in psi4, default
}

set PROPERTIES_ORIGIN ["COM"]
properties('MP2/aug-cc-pvtz', properties = ['dipole'])
--------------------------------------------------------------------------

    Molecular point group: c1
  Charge       = 0
  Multiplicity = 1
  Basis Set: AUG-CC-PVTZ
    Blend: AUG-CC-PVTZ
  Basis Set: (AUG-CC-PVTZ AUX)
    Blend: AUG-CC-PVTZ-JKFIT

    Orbital Energies [Eh]
    ---------------------

    Doubly Occupied:

       1A    -20.647745     2A    -20.625474     3A    -20.582951
       4A    -20.574777     5A    -20.559009     6A    -11.415935
       7A    -11.401632     8A    -11.322600     9A    -11.269294
      10A     -1.489180    11A     -1.469314    12A     -1.397261
      13A     -1.373032    14A     -1.365249    15A     -1.089039
      16A     -0.969940    17A     -0.842952    18A     -0.809560
      19A     -0.756868    20A     -0.736061    21A     -0.713688
      22A     -0.702303    23A     -0.671992    24A     -0.651661
      25A     -0.647693    26A     -0.627954    27A     -0.599903
      28A     -0.589848    29A     -0.557950    30A     -0.547020
      31A     -0.511932    32A     -0.491052    33A     -0.483801
      34A     -0.470221    35A     -0.461383

  @DF-RHF Final Energy:  -529.52114938205250

   => Energetics <=

    Nuclear Repulsion Energy =            464.4120952197180259
    One-Electron Energy =               -1649.0139417318032429
    Two-Electron Energy =                 655.0806971300326040
    Total Energy =                       -529.5211493820524993
  Basis Set: (AUG-CC-PVTZ AUX)
    Blend: AUG-CC-PVTZ-RI
    Molecular point group: c1

    Geometry (in Angstrom), charge = 0, multiplicity = 1:

       Center              X                  Y                   Z               Mass
    ------------   -----------------  -----------------  -----------------  -----------------
         O            0.280310897308     1.616821145489     0.327116054768    15.994914619570
         O            2.172483697308    -1.423457154511     0.211982054768    15.994914619570
         O           -2.801592102692    -0.062418854511    -1.011950945232    15.994914619570
         O            2.655981897308     0.681269145489    -0.524358945232    15.994914619570
         O           -2.244996102692    -0.235496854511     1.178870054768    15.994914619570
         C            0.474860897308     0.218776145489     0.399476054768    12.000000000000
         C           -0.524987102692    -0.503824854511    -0.503583945232    12.000000000000
         C            1.889051897308    -0.123149854511    -0.017841945232    12.000000000000
         C           -1.922431102692    -0.248001854511     0.004377054768    12.000000000000
         H            0.315638897308    -0.106718854511     1.433624054768     1.007825032230
         H           -0.348377102692    -1.585506854511    -0.490779945232     1.007825032230
         H           -0.429248102692    -0.144741854511    -1.531565945232     1.007825032230
         H            1.029733897308     1.967221145489    -0.193907945232     1.007825032230
         H            3.112443897308    -1.545280854511    -0.116120945232     1.007825032230
         H           -3.672880102692     0.075369145489    -0.584378945232     1.007825032230

  Basis Set: AUG-CC-PVTZ
    Blend: AUG-CC-PVTZ
  Basis Set: (AUG-CC-PVTZ AUX)
    Blend: AUG-CC-PVTZ-JKFIT
	 Reference Energy          =    -529.5211493820524993 [Eh]
	 Singles Energy            =      -0.0000000000000000 [Eh]
	 Same-Spin Energy          =      -0.5058804798566293 [Eh]
	 Opposite-Spin Energy      =      -1.5071426714341534 [Eh]
	 Correlation Energy        =      -2.0130231512907826 [Eh]
	 Total Energy              =    -531.5341725333432805 [Eh]

	 ================> DF-SCS-MP2 Energies <==================
	-----------------------------------------------------------
	 SCS Same-Spin Scale       =       0.3333333333333333 [-]
	 SCS Opposite-Spin Scale   =       1.2000000000000000 [-]
	 SCS Same-Spin Energy      =      -0.1686268266188764 [Eh]
	 SCS Opposite-Spin Energy  =      -1.8085712057209840 [Eh]
	 SCS Correlation Energy    =      -1.9771980323398604 [Eh]
	 SCS Total Energy          =    -531.4983474143923559 [Eh]
	-----------------------------------------------------------

  Dipole Moment: [D]
     X:     0.8986      Y:    -2.1972      Z:    -1.5971     Total:     2.8611

*** Psi4 exiting successfully. Buy a developer a beer!
