                               Psi4 1.4a3.dev225

  ==> Input File <==

--------------------------------------------------------------------------
#psi4
#
memory 32 gb

molecule  {
0 1
  O        0.2776560     1.6256810     0.3396990
  O        2.1917380    -1.4109440     0.2140340
  O       -2.8039560    -0.0525170    -1.0004960
  O        2.6531900     0.6906990    -0.5129330
  O       -2.2475620    -0.2274030     1.1902310
  C        0.4723300     0.2276130     0.4112310
  C       -0.5274300    -0.4946180    -0.4922450
  C        1.8990856    -0.1007772    -0.0146549
  C       -1.9248990    -0.2390210     0.0157560
  H        0.3131550    -0.0984550     1.4451980
  H       -0.3508110    -1.5763050    -0.4798880
  H       -0.4316230    -0.1350800    -1.5200620
  H        1.0266390     1.9763480    -0.1817870
  H        3.1101710    -1.5358420    -0.1051610
  H       -3.6752580     0.0850810    -0.5728850
units angstrom
no_reorient  #important for SAPT in psi4, default
symmetry c1  #important for SAPT in psi4, default
}

set PROPERTIES_ORIGIN ["COM"]
properties('MP2/aug-cc-pvtz', properties = ['dipole'])
--------------------------------------------------------------------------

    Molecular point group: c1
  Charge       = 0
  Multiplicity = 1
  Basis Set: AUG-CC-PVTZ
    Blend: AUG-CC-PVTZ
  Basis Set: (AUG-CC-PVTZ AUX)
    Blend: AUG-CC-PVTZ-JKFIT

    Orbital Energies [Eh]
    ---------------------

    Doubly Occupied:

       1A    -20.641308     2A    -20.625346     3A    -20.585577
       4A    -20.575136     5A    -20.558851     6A    -11.414137
       7A    -11.401464     8A    -11.323176     9A    -11.268885
      10A     -1.491987    11A     -1.469182    12A     -1.401619
      13A     -1.377080    14A     -1.365352    15A     -1.087763
      16A     -0.967766    17A     -0.843294    18A     -0.809417
      19A     -0.757741    20A     -0.737523    21A     -0.713666
      22A     -0.702529    23A     -0.672243    24A     -0.651665
      25A     -0.648378    26A     -0.629443    27A     -0.600059
      28A     -0.589855    29A     -0.557846    30A     -0.549215
      31A     -0.517138    32A     -0.490896    33A     -0.483847
      34A     -0.470215    35A     -0.461027

  @DF-RHF Final Energy:  -529.52438794499881

   => Energetics <=

    Nuclear Repulsion Energy =            464.3285503744602920
    One-Electron Energy =               -1648.8246224902416088
    Two-Electron Energy =                 654.9716841707825097
    Total Energy =                       -529.5243879449988071
  Basis Set: (AUG-CC-PVTZ AUX)
    Blend: AUG-CC-PVTZ-RI
    Molecular point group: c1

    Geometry (in Angstrom), charge = 0, multiplicity = 1:

       Center              X                  Y                   Z               Mass
    ------------   -----------------  -----------------  -----------------  -----------------
         O            0.276477485278     1.615017531499     0.329978332479    15.994914619570
         O            2.190559485278    -1.421607468501     0.204313332479    15.994914619570
         O           -2.805134514722    -0.063180468501    -1.010216667521    15.994914619570
         O            2.652011485278     0.680035531499    -0.522653667521    15.994914619570
         O           -2.248740514722    -0.238066468501     1.180510332479    15.994914619570
         C            0.471151485278     0.216949531499     0.401510332479    12.000000000000
         C           -0.528608514722    -0.505281468501    -0.501965667521    12.000000000000
         C            1.897907085278    -0.111440668501    -0.024375567521    12.000000000000
         C           -1.926077514722    -0.249684468501     0.006035332479    12.000000000000
         H            0.311976485278    -0.109118468501     1.435477332479     1.007825032230
         H           -0.351989514722    -1.586968468501    -0.489608667521     1.007825032230
         H           -0.432801514722    -0.145743468501    -1.529782667521     1.007825032230
         H            1.025460485278     1.965684531499    -0.191507667521     1.007825032230
         H            3.108992485278    -1.546505468501    -0.114881667521     1.007825032230
         H           -3.676436514722     0.074417531499    -0.582605667521     1.007825032230

  Basis Set: AUG-CC-PVTZ
    Blend: AUG-CC-PVTZ
  Basis Set: (AUG-CC-PVTZ AUX)
    Blend: AUG-CC-PVTZ-JKFIT
	 Reference Energy          =    -529.5243879449988071 [Eh]
	 Singles Energy            =      -0.0000000000000000 [Eh]
	 Same-Spin Energy          =      -0.5050256551034283 [Eh]
	 Opposite-Spin Energy      =      -1.5054963239047054 [Eh]
	 Correlation Energy        =      -2.0105219790081339 [Eh]
	 Total Energy              =    -531.5349099240069108 [Eh]

	 ================> DF-SCS-MP2 Energies <==================
	-----------------------------------------------------------
	 SCS Same-Spin Scale       =       0.3333333333333333 [-]
	 SCS Opposite-Spin Scale   =       1.2000000000000000 [-]
	 SCS Same-Spin Energy      =      -0.1683418850344761 [Eh]
	 SCS Opposite-Spin Energy  =      -1.8065955886856464 [Eh]
	 SCS Correlation Energy    =      -1.9749374737201224 [Eh]
	 SCS Total Energy          =    -531.4993254187189677 [Eh]
	-----------------------------------------------------------

  Dipole Moment: [D]
     X:     0.9182      Y:    -2.0686      Z:    -1.6373     Total:     2.7933

*** Psi4 exiting successfully. Buy a developer a beer!
