                               Psi4 1.3.2 release

  ==> Input File <==

--------------------------------------------------------------------------
#psi4
#
memory 32 gb

molecule  {
0 1
  O        0.2545645     1.6228666     0.3463575
  O        2.1914470    -1.4110830     0.2143760
  O       -2.8041000    -0.0533200    -1.0004000
  O        2.6534740     0.6903680    -0.5128080
  O       -2.2475040    -0.2263980     1.1904210
  C        0.4723530     0.2278750     0.4110270
  C       -0.5274950    -0.4947260    -0.4920330
  C        1.8865440    -0.1140510    -0.0062910
  C       -1.9249390    -0.2389030     0.0159280
  H        0.3131310    -0.0976200     1.4451750
  H       -0.3508850    -1.5764080    -0.4792290
  H       -0.4317560    -0.1356430    -1.5200150
  H        1.0272260     1.9763200    -0.1823570
  H        3.1099360    -1.5361820    -0.1045700
  H       -3.6753880     0.0844680    -0.5728280
units angstrom
no_reorient  #important for SAPT in psi4, default
symmetry c1  #important for SAPT in psi4, default
}

set PROPERTIES_ORIGIN ["COM"]
properties('MP2/aug-cc-pvtz', properties = ['dipole'])
--------------------------------------------------------------------------

    Molecular point group: c1
  Charge       = 0
  Multiplicity = 1
  Basis Set: AUG-CC-PVTZ
    Blend: AUG-CC-PVTZ
  Basis Set: (AUG-CC-PVTZ AUX)
    Blend: AUG-CC-PVTZ-JKFIT

    Orbital Energies [Eh]
    ---------------------

    Doubly Occupied:

       1A    -20.645363     2A    -20.625433     3A    -20.582725
       4A    -20.577919     5A    -20.558900     6A    -11.416747
       7A    -11.401612     8A    -11.323189     9A    -11.269358
      10A     -1.491596    11A     -1.469262    12A     -1.396655
      13A     -1.371850    14A     -1.364817    15A     -1.088634
      16A     -0.971158    17A     -0.845556    18A     -0.809387
      19A     -0.758526    20A     -0.736447    21A     -0.713514
      22A     -0.701962    23A     -0.672395    24A     -0.651790
      25A     -0.645541    26A     -0.627244    27A     -0.599409
      28A     -0.589897    29A     -0.558023    30A     -0.547973
      31A     -0.511863    32A     -0.491191    33A     -0.484135
      34A     -0.469918    35A     -0.461624

  @DF-RHF Final Energy:  -529.52133870842442

   => Energetics <=

    Nuclear Repulsion Energy =            464.2561369478701181
    One-Electron Energy =               -1648.6917218258772664
    Two-Electron Energy =                 654.9142461695827251
    Total Energy =                       -529.5213387084244232
  Basis Set: (AUG-CC-PVTZ AUX)
    Blend: AUG-CC-PVTZ-RI
    Molecular point group: c1

    Geometry (in Angstrom), charge = 0, multiplicity = 1:

       Center              X                  Y                   Z               Mass
    ------------   -----------------  -----------------  -----------------  -----------------
         O            0.257283317255     1.613741262642     0.334981575479    15.994914619570
         O            2.194165817255    -1.420208337358     0.203000075479    15.994914619570
         O           -2.801381182745    -0.062445337358    -1.011775924521    15.994914619570
         O            2.656192817255     0.681242662642    -0.524183924521    15.994914619570
         O           -2.244785182745    -0.235523337358     1.179045075479    15.994914619570
         C            0.475071817255     0.218749662642     0.399651075479    12.000000000000
         C           -0.524776182745    -0.503851337358    -0.503408924521    12.000000000000
         C            1.889262817255    -0.123176337358    -0.017666924521    12.000000000000
         C           -1.922220182745    -0.248028337358     0.004552075479    12.000000000000
         H            0.315849817255    -0.106745337358     1.433799075479     1.007825032230
         H           -0.348166182745    -1.585533337358    -0.490604924521     1.007825032230
         H           -0.429037182745    -0.144768337358    -1.531390924521     1.007825032230
         H            1.029944817255     1.967194662642    -0.193732924521     1.007825032230
         H            3.112654817255    -1.545307337358    -0.115945924521     1.007825032230
         H           -3.672669182745     0.075342662642    -0.584203924521     1.007825032230

  Basis Set: AUG-CC-PVTZ
    Blend: AUG-CC-PVTZ
  Basis Set: (AUG-CC-PVTZ AUX)
    Blend: AUG-CC-PVTZ-JKFIT
	 Reference Energy          =    -529.5213387084244232 [Eh]
	 Singles Energy            =      -0.0000000000000000 [Eh]
	 Same-Spin Energy          =      -0.5058191608883729 [Eh]
	 Opposite-Spin Energy      =      -1.5070619431754659 [Eh]
	 Correlation Energy        =      -2.0128811040638386 [Eh]
	 Total Energy              =    -531.5342198124882316 [Eh]

	 ================> DF-SCS-MP2 Energies <==================
	-----------------------------------------------------------
	 SCS Same-Spin Scale       =       0.3333333333333333 [-]
	 SCS Opposite-Spin Scale   =       1.2000000000000000 [-]
	 SCS Same-Spin Energy      =      -0.1686063869627910 [Eh]
	 SCS Opposite-Spin Energy  =      -1.8084743318105589 [Eh]
	 SCS Correlation Energy    =      -1.9770807187733499 [Eh]
	 SCS Total Energy          =    -531.4984194271977458 [Eh]
	-----------------------------------------------------------

  Dipole Moment: [D]
     X:     0.9006      Y:    -2.1721      Z:    -1.5930     Total:     2.8402

*** Psi4 exiting successfully. Buy a developer a beer!
