                               Psi4 1.3.2 release

  ==> Input File <==

--------------------------------------------------------------------------
#psi4
#
memory 32 gb

molecule  {
0 1
  O        0.2778030     1.6259200     0.3386670
  O        2.1914470    -1.4110830     0.2143760
  O       -2.8041000    -0.0533200    -1.0004000
  O        2.6534740     0.6903680    -0.5128080
  O       -2.2475040    -0.2263980     1.1904210
  C        0.4723530     0.2278750     0.4110270
  C       -0.5071579    -0.5056095    -0.5054470
  C        1.8865440    -0.1140510    -0.0062910
  C       -1.9249390    -0.2389030     0.0159280
  H        0.3131310    -0.0976200     1.4451750
  H       -0.3508850    -1.5764080    -0.4792290
  H       -0.4317560    -0.1356430    -1.5200150
  H        1.0272260     1.9763200    -0.1823570
  H        3.1099360    -1.5361820    -0.1045700
  H       -3.6753880     0.0844680    -0.5728280
units angstrom
no_reorient  #important for SAPT in psi4, default
symmetry c1  #important for SAPT in psi4, default
}

set PROPERTIES_ORIGIN ["COM"]
properties('MP2/aug-cc-pvtz', properties = ['dipole'])
--------------------------------------------------------------------------

    Molecular point group: c1
  Charge       = 0
  Multiplicity = 1
  Basis Set: AUG-CC-PVTZ
    Blend: AUG-CC-PVTZ
  Basis Set: (AUG-CC-PVTZ AUX)
    Blend: AUG-CC-PVTZ-JKFIT

    Orbital Energies [Eh]
    ---------------------

    Doubly Occupied:

       1A    -20.644424     2A    -20.625870     3A    -20.581315
       4A    -20.575889     5A    -20.559809     6A    -11.415190
       7A    -11.402797     8A    -11.323660     9A    -11.269619
      10A     -1.490760    11A     -1.469207    12A     -1.397722
      13A     -1.372911    14A     -1.365488    15A     -1.088925
      16A     -0.968815    17A     -0.845074    18A     -0.812539
      19A     -0.758354    20A     -0.735960    21A     -0.713868
      22A     -0.701328    23A     -0.672080    24A     -0.652477
      25A     -0.647834    26A     -0.627768    27A     -0.601542
      28A     -0.587271    29A     -0.563339    30A     -0.547433
      31A     -0.510794    32A     -0.491480    33A     -0.483797
      34A     -0.471846    35A     -0.459508

  @DF-RHF Final Energy:  -529.52298030012298

   => Energetics <=

    Nuclear Repulsion Energy =            464.0970012584683673
    One-Electron Energy =               -1648.3665732413458045
    Two-Electron Energy =                 654.7465916827545698
    Total Energy =                       -529.5229803001229811
  Basis Set: (AUG-CC-PVTZ AUX)
    Blend: AUG-CC-PVTZ-RI
    Molecular point group: c1

    Geometry (in Angstrom), charge = 0, multiplicity = 1:

       Center              X                  Y                   Z               Mass
    ------------   -----------------  -----------------  -----------------  -----------------
         O            0.275927458019     1.617404737245     0.329409965668    15.994914619570
         O            2.189571458019    -1.419598262755     0.205118965668    15.994914619570
         O           -2.805975541981    -0.061835262755    -1.009657034332    15.994914619570
         O            2.651598458019     0.681852737245    -0.522065034332    15.994914619570
         O           -2.249379541981    -0.234913262755     1.181163965668    15.994914619570
         C            0.470477458019     0.219359737245     0.401769965668    12.000000000000
         C           -0.509033441981    -0.514124762755    -0.514704034332    12.000000000000
         C            1.884668458019    -0.122566262755    -0.015548034332    12.000000000000
         C           -1.926814541981    -0.247418262755     0.006670965668    12.000000000000
         H            0.311255458019    -0.106135262755     1.435917965668     1.007825032230
         H           -0.352760541981    -1.584923262755    -0.488486034332     1.007825032230
         H           -0.433631541981    -0.144158262755    -1.529272034332     1.007825032230
         H            1.025350458019     1.967804737245    -0.191614034332     1.007825032230
         H            3.108060458019    -1.544697262755    -0.113827034332     1.007825032230
         H           -3.677263541981     0.075952737245    -0.582085034332     1.007825032230

  Basis Set: AUG-CC-PVTZ
    Blend: AUG-CC-PVTZ
  Basis Set: (AUG-CC-PVTZ AUX)
    Blend: AUG-CC-PVTZ-JKFIT
	 Reference Energy          =    -529.5229803001229811 [Eh]
	 Singles Energy            =      -0.0000000000000000 [Eh]
	 Same-Spin Energy          =      -0.5053498387524875 [Eh]
	 Opposite-Spin Energy      =      -1.5061012072892255 [Eh]
	 Correlation Energy        =      -2.0114510460417128 [Eh]
	 Total Energy              =    -531.5344313461646379 [Eh]

	 ================> DF-SCS-MP2 Energies <==================
	-----------------------------------------------------------
	 SCS Same-Spin Scale       =       0.3333333333333333 [-]
	 SCS Opposite-Spin Scale   =       1.2000000000000000 [-]
	 SCS Same-Spin Energy      =      -0.1684499462508292 [Eh]
	 SCS Opposite-Spin Energy  =      -1.8073214487470706 [Eh]
	 SCS Correlation Energy    =      -1.9757713949978997 [Eh]
	 SCS Total Energy          =    -531.4987516951208590 [Eh]
	-----------------------------------------------------------

  Dipole Moment: [D]
     X:     0.8127      Y:    -2.1786      Z:    -1.5776     Total:     2.8099

*** Psi4 exiting successfully. Buy a developer a beer!
