                               Psi4 1.3.2 release

  ==> Input File <==

--------------------------------------------------------------------------
#psi4
#
memory 32 gb

molecule  {
0 1
  O        0.2778030     1.6259200     0.3386670
  O        2.1914470    -1.4110830     0.2143760
  O       -2.8041000    -0.0533200    -1.0004000
  O        2.6534740     0.6903680    -0.5128080
  O       -2.2475040    -0.2263980     1.1904210
  C        0.4723530     0.2278750     0.4110270
  C       -0.4011237    -0.5566117    -0.5682506
  C        1.8865440    -0.1140510    -0.0062910
  C       -1.9249390    -0.2389030     0.0159280
  H        0.3131310    -0.0976200     1.4451750
  H       -0.3508850    -1.5764080    -0.4792290
  H       -0.4317560    -0.1356430    -1.5200150
  H        1.0272260     1.9763200    -0.1823570
  H        3.1099360    -1.5361820    -0.1045700
  H       -3.6753880     0.0844680    -0.5728280
units angstrom
no_reorient  #important for SAPT in psi4, default
symmetry c1  #important for SAPT in psi4, default
}

set PROPERTIES_ORIGIN ["COM"]
properties('MP2/aug-cc-pvtz', properties = ['dipole'])
--------------------------------------------------------------------------

    Molecular point group: c1
  Charge       = 0
  Multiplicity = 1
  Basis Set: AUG-CC-PVTZ
    Blend: AUG-CC-PVTZ
  Basis Set: (AUG-CC-PVTZ AUX)
    Blend: AUG-CC-PVTZ-JKFIT

    Orbital Energies [Eh]
    ---------------------

    Doubly Occupied:

       1A    -20.643003     2A    -20.625888     3A    -20.578711
       4A    -20.578197     5A    -20.561368     6A    -11.412044
       7A    -11.404626     8A    -11.324645     9A    -11.271394
      10A     -1.489466    11A     -1.466974    12A     -1.397161
      13A     -1.372268    14A     -1.364779    15A     -1.087269
      16A     -0.958379    17A     -0.840106    18A     -0.819006
      19A     -0.756133    20A     -0.735749    21A     -0.713068
      22A     -0.699550    23A     -0.668572    24A     -0.656871
      25A     -0.648168    26A     -0.628388    27A     -0.605982
      28A     -0.583504    29A     -0.573427    30A     -0.545002
      31A     -0.509617    32A     -0.491909    33A     -0.484224
      34A     -0.474659    35A     -0.442759

  @DF-RHF Final Energy:  -529.50193709403970

   => Energetics <=

    Nuclear Repulsion Energy =            463.0346511788810631
    One-Electron Energy =               -1646.2474440887560831
    Two-Electron Energy =                 653.7108558158354299
    Total Energy =                       -529.5019370940397039
  Basis Set: (AUG-CC-PVTZ AUX)
    Blend: AUG-CC-PVTZ-RI
    Molecular point group: c1

    Geometry (in Angstrom), charge = 0, multiplicity = 1:

       Center              X                  Y                   Z               Mass
    ------------   -----------------  -----------------  -----------------  -----------------
         O            0.266433382972     1.621971364940     0.335033265430    15.994914619570
         O            2.180077382972    -1.415031635060     0.210742265430    15.994914619570
         O           -2.815469617028    -0.057268635060    -1.004033734570    15.994914619570
         O            2.642104382972     0.686419364940    -0.516441734570    15.994914619570
         O           -2.258873617028    -0.230346635060     1.186787265430    15.994914619570
         C            0.460983382972     0.223926364940     0.407393265430    12.000000000000
         C           -0.412493317028    -0.560560335060    -0.571884334570    12.000000000000
         C            1.875174382972    -0.117999635060    -0.009924734570    12.000000000000
         C           -1.936308617028    -0.242851635060     0.012294265430    12.000000000000
         H            0.301761382972    -0.101568635060     1.441541265430     1.007825032230
         H           -0.362254617028    -1.580356635060    -0.482862734570     1.007825032230
         H           -0.443125617028    -0.139591635060    -1.523648734570     1.007825032230
         H            1.015856382972     1.972371364940    -0.185990734570     1.007825032230
         H            3.098566382972    -1.540130635060    -0.108203734570     1.007825032230
         H           -3.686757617028     0.080519364940    -0.576461734570     1.007825032230

  Basis Set: AUG-CC-PVTZ
    Blend: AUG-CC-PVTZ
  Basis Set: (AUG-CC-PVTZ AUX)
    Blend: AUG-CC-PVTZ-JKFIT
	 Reference Energy          =    -529.5019370940397039 [Eh]
	 Singles Energy            =      -0.0000000000000000 [Eh]
	 Same-Spin Energy          =      -0.5057751910947096 [Eh]
	 Opposite-Spin Energy      =      -1.5073187381468527 [Eh]
	 Correlation Energy        =      -2.0130939292415624 [Eh]
	 Total Energy              =    -531.5150310232812672 [Eh]

	 ================> DF-SCS-MP2 Energies <==================
	-----------------------------------------------------------
	 SCS Same-Spin Scale       =       0.3333333333333333 [-]
	 SCS Opposite-Spin Scale   =       1.2000000000000000 [-]
	 SCS Same-Spin Energy      =      -0.1685917303649032 [Eh]
	 SCS Opposite-Spin Energy  =      -1.8087824857762231 [Eh]
	 SCS Correlation Energy    =      -1.9773742161411263 [Eh]
	 SCS Total Energy          =    -531.4793113101808331 [Eh]
	-----------------------------------------------------------

  Dipole Moment: [D]
     X:     0.6487      Y:    -2.1560      Z:    -1.5221     Total:     2.7178

*** Psi4 exiting successfully. Buy a developer a beer!
