                               Psi4 1.3.2 release

  ==> Input File <==

--------------------------------------------------------------------------
#psi4
#
memory 32 gb

molecule  {
0 1
  O        0.2778030     1.6259200     0.3386670
  O        2.1914470    -1.4110830     0.2143760
  O       -2.8041000    -0.0533200    -1.0004000
  O        2.6534740     0.6903680    -0.5128080
  O       -2.2475040    -0.2263980     1.1904210
  C        0.4723530     0.2278750     0.4110270
  C       -0.5274950    -0.4947260    -0.4920330
  C        1.8015406    -0.1311674     0.0306895
  C       -1.9249390    -0.2389030     0.0159280
  H        0.3131310    -0.0976200     1.4451750
  H       -0.3508850    -1.5764080    -0.4792290
  H       -0.4317560    -0.1356430    -1.5200150
  H        1.0272260     1.9763200    -0.1823570
  H        3.1099360    -1.5361820    -0.1045700
  H       -3.6753880     0.0844680    -0.5728280
units angstrom
no_reorient  #important for SAPT in psi4, default
symmetry c1  #important for SAPT in psi4, default
}

set PROPERTIES_ORIGIN ["COM"]
properties('MP2/aug-cc-pvtz', properties = ['dipole'])
--------------------------------------------------------------------------

    Molecular point group: c1
  Charge       = 0
  Multiplicity = 1
  Basis Set: AUG-CC-PVTZ
    Blend: AUG-CC-PVTZ
  Basis Set: (AUG-CC-PVTZ AUX)
    Blend: AUG-CC-PVTZ-JKFIT

    Orbital Energies [Eh]
    ---------------------

    Doubly Occupied:

       1A    -20.646916     2A    -20.629156     3A    -20.580034
       4A    -20.571017     5A    -20.563264     6A    -11.424719
       7A    -11.406245     8A    -11.326938     9A    -11.276978
      10A     -1.480495    11A     -1.473115    12A     -1.394915
      13A     -1.369916    14A     -1.335193    15A     -1.106406
      16A     -0.993959    17A     -0.851510    18A     -0.818232
      19A     -0.768444    20A     -0.727627    21A     -0.717027
      22A     -0.706276    23A     -0.675671    24A     -0.648967
      25A     -0.646442    26A     -0.616464    27A     -0.600784
      28A     -0.589998    29A     -0.563740    30A     -0.550335
      31A     -0.494048    32A     -0.487116    33A     -0.481084
      34A     -0.475367    35A     -0.466240

  @DF-RHF Final Energy:  -529.50162308558242

   => Energetics <=

    Nuclear Repulsion Energy =            464.6750173903445784
    One-Electron Energy =               -1649.4240098312566261
    Two-Electron Energy =                 655.2473693553295107
    Total Energy =                       -529.5016230855824233
  Basis Set: (AUG-CC-PVTZ AUX)
    Blend: AUG-CC-PVTZ-RI
    Molecular point group: c1

    Geometry (in Angstrom), charge = 0, multiplicity = 1:

       Center              X                  Y                   Z               Mass
    ------------   -----------------  -----------------  -----------------  -----------------
         O            0.285359420654     1.617962817755     0.324897750129    15.994914619570
         O            2.199003420654    -1.419040182245     0.200606750129    15.994914619570
         O           -2.796543579346    -0.061277182245    -1.014169249871    15.994914619570
         O            2.661030420654     0.682410817755    -0.526577249871    15.994914619570
         O           -2.239947579346    -0.234355182245     1.176651750129    15.994914619570
         C            0.479909420654     0.219917817755     0.397257750129    12.000000000000
         C           -0.519938579346    -0.502683182245    -0.505802249871    12.000000000000
         C            1.809097020654    -0.139124582245     0.016920250129    12.000000000000
         C           -1.917382579346    -0.246860182245     0.002158750129    12.000000000000
         H            0.320687420654    -0.105577182245     1.431405750129     1.007825032230
         H           -0.343328579346    -1.584365182245    -0.492998249871     1.007825032230
         H           -0.424199579346    -0.143600182245    -1.533784249871     1.007825032230
         H            1.034782420654     1.968362817755    -0.196126249871     1.007825032230
         H            3.117492420654    -1.544139182245    -0.118339249871     1.007825032230
         H           -3.667831579346     0.076510817755    -0.586597249871     1.007825032230

  Basis Set: AUG-CC-PVTZ
    Blend: AUG-CC-PVTZ
  Basis Set: (AUG-CC-PVTZ AUX)
    Blend: AUG-CC-PVTZ-JKFIT
	 Reference Energy          =    -529.5016230855824233 [Eh]
	 Singles Energy            =      -0.0000000000000000 [Eh]
	 Same-Spin Energy          =      -0.5079710977875858 [Eh]
	 Opposite-Spin Energy      =      -1.5108850475193056 [Eh]
	 Correlation Energy        =      -2.0188561453068914 [Eh]
	 Total Energy              =    -531.5204792308893502 [Eh]

	 ================> DF-SCS-MP2 Energies <==================
	-----------------------------------------------------------
	 SCS Same-Spin Scale       =       0.3333333333333333 [-]
	 SCS Opposite-Spin Scale   =       1.2000000000000000 [-]
	 SCS Same-Spin Energy      =      -0.1693236992625286 [Eh]
	 SCS Opposite-Spin Energy  =      -1.8130620570231666 [Eh]
	 SCS Correlation Energy    =      -1.9823857562856952 [Eh]
	 SCS Total Energy          =    -531.4840088418681034 [Eh]
	-----------------------------------------------------------

  Dipole Moment: [D]
     X:     0.3613      Y:    -2.3338      Z:    -1.4306     Total:     2.7611

*** Psi4 exiting successfully. Buy a developer a beer!
