                               Psi4 1.4a3.dev225

  ==> Input File <==

--------------------------------------------------------------------------
#psi4
#
memory 32 gb

molecule  {
0 1
  O        0.2776560     1.6256810     0.3396990
  O        2.1917380    -1.4109440     0.2140340
  O       -2.8039560    -0.0525170    -1.0004960
  O        2.6531900     0.6906990    -0.5129330
  O       -2.2475620    -0.2274030     1.1902310
  C        0.4723300     0.2276130     0.4112310
  C       -0.5274300    -0.4946180    -0.4922450
  C        1.8865320    -0.1139530    -0.0063600
  C       -1.9248990    -0.2390210     0.0157560
  H        0.3131550    -0.0984550     1.4451980
  H       -0.3508110    -1.5763050    -0.4798880
  H       -0.4316230    -0.1350800    -1.5200620
  H        1.0266390     1.9763480    -0.1817870
  H        3.1289086    -1.5383901    -0.1116731
  H       -3.6752580     0.0850810    -0.5728850
units angstrom
no_reorient  #important for SAPT in psi4, default
symmetry c1  #important for SAPT in psi4, default
}

set PROPERTIES_ORIGIN ["COM"]
properties('MP2/aug-cc-pvtz', properties = ['dipole'])
--------------------------------------------------------------------------

    Molecular point group: c1
  Charge       = 0
  Multiplicity = 1
  Basis Set: AUG-CC-PVTZ
    Blend: AUG-CC-PVTZ
  Basis Set: (AUG-CC-PVTZ AUX)
    Blend: AUG-CC-PVTZ-JKFIT

    Orbital Energies [Eh]
    ---------------------

    Doubly Occupied:

       1A    -20.645909     2A    -20.625677     3A    -20.581499
       4A    -20.575383     5A    -20.559245     6A    -11.415529
       7A    -11.401884     8A    -11.323638     9A    -11.269675
      10A     -1.488391    11A     -1.469527    12A     -1.396456
      13A     -1.372516    14A     -1.365425    15A     -1.089460
      16A     -0.970241    17A     -0.844016    18A     -0.810247
      19A     -0.757986    20A     -0.734427    21A     -0.713893
      22A     -0.702443    23A     -0.672237    24A     -0.651112
      25A     -0.647069    26A     -0.627195    27A     -0.600001
      28A     -0.590002    29A     -0.558361    30A     -0.546980
      31A     -0.510516    32A     -0.491172    33A     -0.483736
      34A     -0.470701    35A     -0.461708

  @DF-RHF Final Energy:  -529.52192471383125

   => Energetics <=

    Nuclear Repulsion Energy =            464.2092148644819076
    One-Electron Energy =               -1648.6137619966334569
    Two-Electron Energy =                 654.8826224183202385
    Total Energy =                       -529.5219247138312539
  Basis Set: (AUG-CC-PVTZ AUX)
    Blend: AUG-CC-PVTZ-RI
    Molecular point group: c1

    Geometry (in Angstrom), charge = 0, multiplicity = 1:

       Center              X                  Y                   Z               Mass
    ------------   -----------------  -----------------  -----------------  -----------------
         O            0.277460603320     1.616216425789     0.329284595083    15.994914619570
         O            2.191542603320    -1.420408574211     0.203619595083    15.994914619570
         O           -2.804151396680    -0.061981574211    -1.010910404917    15.994914619570
         O            2.652994603320     0.681234425789    -0.523347404917    15.994914619570
         O           -2.247757396680    -0.236867574211     1.179816595083    15.994914619570
         C            0.472134603320     0.218148425789     0.400816595083    12.000000000000
         C           -0.527625396680    -0.504082574211    -0.502659404917    12.000000000000
         C            1.886336603320    -0.123417574211    -0.016774404917    12.000000000000
         C           -1.925094396680    -0.248485574211     0.005341595083    12.000000000000
         H            0.312959603320    -0.107919574211     1.434783595083     1.007825032230
         H           -0.351006396680    -1.585769574211    -0.490302404917     1.007825032230
         H           -0.431818396680    -0.144544574211    -1.530476404917     1.007825032230
         H            1.026443603320     1.966883425789    -0.192201404917     1.007825032230
         H            3.128713203320    -1.547854674211    -0.122087504917     1.007825032230
         H           -3.675453396680     0.075616425789    -0.583299404917     1.007825032230

  Basis Set: AUG-CC-PVTZ
    Blend: AUG-CC-PVTZ
  Basis Set: (AUG-CC-PVTZ AUX)
    Blend: AUG-CC-PVTZ-JKFIT
	 Reference Energy          =    -529.5219247138312539 [Eh]
	 Singles Energy            =      -0.0000000000000000 [Eh]
	 Same-Spin Energy          =      -0.5056938402278596 [Eh]
	 Opposite-Spin Energy      =      -1.5067793050930587 [Eh]
	 Correlation Energy        =      -2.0124731453209184 [Eh]
	 Total Energy              =    -531.5343978591521363 [Eh]

	 ================> DF-SCS-MP2 Energies <==================
	-----------------------------------------------------------
	 SCS Same-Spin Scale       =       0.3333333333333333 [-]
	 SCS Opposite-Spin Scale   =       1.2000000000000000 [-]
	 SCS Same-Spin Energy      =      -0.1685646134092865 [Eh]
	 SCS Opposite-Spin Energy  =      -1.8081351661116702 [Eh]
	 SCS Correlation Energy    =      -1.9766997795209567 [Eh]
	 SCS Total Energy          =    -531.4986244933521675 [Eh]
	-----------------------------------------------------------

  Dipole Moment: [D]
     X:     0.8748      Y:    -2.1916      Z:    -1.5950     Total:     2.8482

*** Psi4 exiting successfully. Buy a developer a beer!
