                               Psi4 1.4a3.dev225

  ==> Input File <==

--------------------------------------------------------------------------
#psi4
#
memory 32 gb

molecule  {
0 1
  O        0.2776560     1.6256810     0.3396990
  O        2.1917380    -1.4109440     0.2140340
  O       -2.8039560    -0.0525170    -1.0004960
  O        2.6531900     0.6906990    -0.5129330
  O       -2.2475620    -0.2274030     1.1902310
  C        0.4723300     0.2276130     0.4112310
  C       -0.5274300    -0.4946180    -0.4922450
  C        1.9332482    -0.1252362    -0.0201545
  C       -1.9248990    -0.2390210     0.0157560
  H        0.3131550    -0.0984550     1.4451980
  H       -0.3508110    -1.5763050    -0.4798880
  H       -0.4316230    -0.1350800    -1.5200620
  H        1.0266390     1.9763480    -0.1817870
  H        3.1101710    -1.5358420    -0.1051610
  H       -3.6752580     0.0850810    -0.5728850
units angstrom
no_reorient  #important for SAPT in psi4, default
symmetry c1  #important for SAPT in psi4, default
}

set PROPERTIES_ORIGIN ["COM"]
properties('MP2/aug-cc-pvtz', properties = ['dipole'])
--------------------------------------------------------------------------

    Molecular point group: c1
  Charge       = 0
  Multiplicity = 1
  Basis Set: AUG-CC-PVTZ
    Blend: AUG-CC-PVTZ
  Basis Set: (AUG-CC-PVTZ AUX)
    Blend: AUG-CC-PVTZ-JKFIT

    Orbital Energies [Eh]
    ---------------------

    Doubly Occupied:

       1A    -20.649535     2A    -20.623808     3A    -20.583876
       4A    -20.572644     5A    -20.557073     6A    -11.412361
       7A    -11.399508     8A    -11.320655     9A    -11.266051
      10A     -1.504110    11A     -1.467573    12A     -1.409827
      13A     -1.375575    14A     -1.363625    15A     -1.082539
      16A     -0.960069    17A     -0.847081    18A     -0.808118
      19A     -0.757813    20A     -0.741498    21A     -0.712089
      22A     -0.701253    23A     -0.671620    24A     -0.658038
      25A     -0.650989    26A     -0.629251    27A     -0.598650
      28A     -0.588876    29A     -0.555726    30A     -0.547675
      31A     -0.520349    32A     -0.488651    33A     -0.478506
      34A     -0.467376    35A     -0.457618

  @DF-RHF Final Energy:  -529.52352271150789

   => Energetics <=

    Nuclear Repulsion Energy =            464.1401751545490129
    One-Electron Energy =               -1648.4673846610603505
    Two-Electron Energy =                 654.8036867950033866
    Total Energy =                       -529.5235227115078942
  Basis Set: (AUG-CC-PVTZ AUX)
    Blend: AUG-CC-PVTZ-RI
    Molecular point group: c1

    Geometry (in Angstrom), charge = 0, multiplicity = 1:

       Center              X                  Y                   Z               Mass
    ------------   -----------------  -----------------  -----------------  -----------------
         O            0.273418639281     1.617207537946     0.330470754878    15.994914619570
         O            2.187500639281    -1.419417462054     0.204805754878    15.994914619570
         O           -2.808193360719    -0.060990462054    -1.009724245122    15.994914619570
         O            2.648952639281     0.682225537946    -0.522161245122    15.994914619570
         O           -2.251799360719    -0.235876462054     1.181002754878    15.994914619570
         C            0.468092639281     0.219139537946     0.402002754878    12.000000000000
         C           -0.531667360719    -0.503091462054    -0.501473245122    12.000000000000
         C            1.929010839281    -0.133709662054    -0.029382745122    12.000000000000
         C           -1.929136360719    -0.247494462054     0.006527754878    12.000000000000
         H            0.308917639281    -0.106928462054     1.435969754878     1.007825032230
         H           -0.355048360719    -1.584778462054    -0.489116245122     1.007825032230
         H           -0.435860360719    -0.143553462054    -1.529290245122     1.007825032230
         H            1.022401639281     1.967874537946    -0.191015245122     1.007825032230
         H            3.105933639281    -1.544315462054    -0.114389245122     1.007825032230
         H           -3.679495360719     0.076607537946    -0.582113245122     1.007825032230

  Basis Set: AUG-CC-PVTZ
    Blend: AUG-CC-PVTZ
  Basis Set: (AUG-CC-PVTZ AUX)
    Blend: AUG-CC-PVTZ-JKFIT
	 Reference Energy          =    -529.5235227115078942 [Eh]
	 Singles Energy            =      -0.0000000000000000 [Eh]
	 Same-Spin Energy          =      -0.5046854388081702 [Eh]
	 Opposite-Spin Energy      =      -1.5046248780155604 [Eh]
	 Correlation Energy        =      -2.0093103168237305 [Eh]
	 Total Energy              =    -531.5328330283316518 [Eh]

	 ================> DF-SCS-MP2 Energies <==================
	-----------------------------------------------------------
	 SCS Same-Spin Scale       =       0.3333333333333333 [-]
	 SCS Opposite-Spin Scale   =       1.2000000000000000 [-]
	 SCS Same-Spin Energy      =      -0.1682284796027234 [Eh]
	 SCS Opposite-Spin Energy  =      -1.8055498536186725 [Eh]
	 SCS Correlation Energy    =      -1.9737783332213958 [Eh]
	 SCS Total Energy          =    -531.4973010447292836 [Eh]
	-----------------------------------------------------------

  Dipole Moment: [D]
     X:     1.1400      Y:    -2.2486      Z:    -1.6387     Total:     3.0069

*** Psi4 exiting successfully. Buy a developer a beer!
