                               Psi4 1.3.2 release

  ==> Input File <==

--------------------------------------------------------------------------
#psi4
#
memory 32 gb

molecule  {
0 1
  O        0.2778030     1.6259200     0.3386670
  O        2.1914470    -1.4110830     0.2143760
  O       -2.8041000    -0.0533200    -1.0004000
  O        2.6534740     0.6903680    -0.5128080
  O       -2.2475040    -0.2263980     1.1904210
  C        0.4723530     0.2278750     0.4110270
  C       -0.5274950    -0.4947260    -0.4920330
  C        1.6996802    -0.0688707     0.0488512
  C       -1.9249390    -0.2389030     0.0159280
  H        0.3131310    -0.0976200     1.4451750
  H       -0.3508850    -1.5764080    -0.4792290
  H       -0.4317560    -0.1356430    -1.5200150
  H        1.0272260     1.9763200    -0.1823570
  H        3.1099360    -1.5361820    -0.1045700
  H       -3.6753880     0.0844680    -0.5728280
units angstrom
no_reorient  #important for SAPT in psi4, default
symmetry c1  #important for SAPT in psi4, default
}

set PROPERTIES_ORIGIN ["COM"]
properties('MP2/aug-cc-pvtz', properties = ['dipole'])
--------------------------------------------------------------------------

    Molecular point group: c1
  Charge       = 0
  Multiplicity = 1
  Basis Set: AUG-CC-PVTZ
    Blend: AUG-CC-PVTZ
  Basis Set: (AUG-CC-PVTZ AUX)
    Blend: AUG-CC-PVTZ-JKFIT

    Orbital Energies [Eh]
    ---------------------

    Doubly Occupied:

       1A    -20.634367     2A    -20.625446     3A    -20.588461
       4A    -20.573711     5A    -20.569185     6A    -11.432245
       7A    -11.412732     8A    -11.328052     9A    -11.287865
      10A     -1.478770    11A     -1.442895    12A     -1.400013
      13A     -1.375537    14A     -1.311984    15A     -1.134282
      16A     -1.020871    17A     -0.846498    18A     -0.820089
      19A     -0.771197    20A     -0.725503    21A     -0.720184
      22A     -0.704222    23A     -0.678451    24A     -0.650557
      25A     -0.639984    26A     -0.607103    27A     -0.602578
      28A     -0.577703    29A     -0.570252    30A     -0.562956
      31A     -0.498954    32A     -0.489380    33A     -0.478137
      34A     -0.473657    35A     -0.467555

  @DF-RHF Final Energy:  -529.44608196415425

   => Energetics <=

    Nuclear Repulsion Energy =            465.4373658338610653
    One-Electron Energy =               -1650.7641442632602775
    Two-Electron Energy =                 655.8806964652449096
    Total Energy =                       -529.4460819641542457
  Basis Set: (AUG-CC-PVTZ AUX)
    Blend: AUG-CC-PVTZ-RI
    Molecular point group: c1

    Geometry (in Angstrom), charge = 0, multiplicity = 1:

       Center              X                  Y                   Z               Mass
    ------------   -----------------  -----------------  -----------------  -----------------
         O            0.294479782593     1.612384904733     0.323271590430    15.994914619570
         O            2.208123782593    -1.424618095267     0.198980590430    15.994914619570
         O           -2.787423217407    -0.066855095267    -1.015795409570    15.994914619570
         O            2.670150782593     0.676832904733    -0.528203409570    15.994914619570
         O           -2.230827217407    -0.239933095267     1.175025590430    15.994914619570
         C            0.489029782593     0.214339904733     0.395631590430    12.000000000000
         C           -0.510818217407    -0.508261095267    -0.507428409570    12.000000000000
         C            1.716356982593    -0.082405795267     0.033455790430    12.000000000000
         C           -1.908262217407    -0.252438095267     0.000532590430    12.000000000000
         H            0.329807782593    -0.111155095267     1.429779590430     1.007825032230
         H           -0.334208217407    -1.589943095267    -0.494624409570     1.007825032230
         H           -0.415079217407    -0.149178095267    -1.535410409570     1.007825032230
         H            1.043902782593     1.962784904733    -0.197752409570     1.007825032230
         H            3.126612782593    -1.549717095267    -0.119965409570     1.007825032230
         H           -3.658711217407     0.070932904733    -0.588223409570     1.007825032230

  Basis Set: AUG-CC-PVTZ
    Blend: AUG-CC-PVTZ
  Basis Set: (AUG-CC-PVTZ AUX)
    Blend: AUG-CC-PVTZ-JKFIT
	 Reference Energy          =    -529.4460819641542457 [Eh]
	 Singles Energy            =      -0.0000000000000000 [Eh]
	 Same-Spin Energy          =      -0.5115591742697030 [Eh]
	 Opposite-Spin Energy      =      -1.5182097541230259 [Eh]
	 Correlation Energy        =      -2.0297689283927287 [Eh]
	 Total Energy              =    -531.4758508925469869 [Eh]

	 ================> DF-SCS-MP2 Energies <==================
	-----------------------------------------------------------
	 SCS Same-Spin Scale       =       0.3333333333333333 [-]
	 SCS Opposite-Spin Scale   =       1.2000000000000000 [-]
	 SCS Same-Spin Energy      =      -0.1705197247565677 [Eh]
	 SCS Opposite-Spin Energy  =      -1.8218517049476310 [Eh]
	 SCS Correlation Energy    =      -1.9923714297041988 [Eh]
	 SCS Total Energy          =    -531.4384533938584809 [Eh]
	-----------------------------------------------------------

  Dipole Moment: [D]
     X:    -0.3253      Y:    -1.8392      Z:    -1.4192     Total:     2.3458

*** Psi4 exiting successfully. Buy a developer a beer!
