                               Psi4 1.3.2 release

  ==> Input File <==

--------------------------------------------------------------------------
#psi4
#
memory 32 gb

molecule  {
0 1
  O        0.2778030     1.6259200     0.3386670
  O        2.1914470    -1.4110830     0.2143760
  O       -2.8041000    -0.0533200    -1.0004000
  O        2.6534740     0.6903680    -0.5128080
  O       -2.2475040    -0.2263980     1.1904210
  C        0.4723530     0.2278750     0.4110270
  C       -0.5274950    -0.4947260    -0.4920330
  C        1.8865440    -0.1140510    -0.0062910
  C       -1.9249390    -0.2389030     0.0159280
  H        0.3131310    -0.0976200     1.4451750
  H       -0.3508850    -1.5764080    -0.4792290
  H       -0.4317560    -0.1356430    -1.5200150
  H        1.0272260     1.9763200    -0.1823570
  H        3.2036302    -1.5489432    -0.1371054
  H       -3.6753880     0.0844680    -0.5728280
units angstrom
no_reorient  #important for SAPT in psi4, default
symmetry c1  #important for SAPT in psi4, default
}

set PROPERTIES_ORIGIN ["COM"]
properties('MP2/aug-cc-pvtz', properties = ['dipole'])
--------------------------------------------------------------------------

    Molecular point group: c1
  Charge       = 0
  Multiplicity = 1
  Basis Set: AUG-CC-PVTZ
    Blend: AUG-CC-PVTZ
  Basis Set: (AUG-CC-PVTZ AUX)
    Blend: AUG-CC-PVTZ-JKFIT

    Orbital Energies [Eh]
    ---------------------

    Doubly Occupied:

       1A    -20.649498     2A    -20.625318     3A    -20.579892
       4A    -20.574854     5A    -20.558844     6A    -11.413875
       7A    -11.401449     8A    -11.323161     9A    -11.269103
      10A     -1.479418    11A     -1.469109    12A     -1.391302
      13A     -1.369855    14A     -1.364760    15A     -1.088069
      16A     -0.966126    17A     -0.836865    18A     -0.807049
      19A     -0.754401    20A     -0.727176    21A     -0.713141
      22A     -0.701029    23A     -0.670872    24A     -0.648325
      25A     -0.643220    26A     -0.625283    27A     -0.598769
      28A     -0.589302    29A     -0.557726    30A     -0.544234
      31A     -0.508201    32A     -0.490554    33A     -0.482618
      34A     -0.470151    35A     -0.461172

  @DF-RHF Final Energy:  -529.51039926861449

   => Energetics <=

    Nuclear Repulsion Energy =            463.7391142450671850
    One-Electron Energy =               -1647.7895861038664407
    Two-Electron Energy =                 654.5400725901847636
    Total Energy =                       -529.5103992686144920
  Basis Set: (AUG-CC-PVTZ AUX)
    Blend: AUG-CC-PVTZ-RI
    Molecular point group: c1

    Geometry (in Angstrom), charge = 0, multiplicity = 1:

       Center              X                  Y                   Z               Mass
    ------------   -----------------  -----------------  -----------------  -----------------
         O            0.277043829749     1.616526214600     0.328453566977    15.994914619570
         O            2.190687829749    -1.420476785400     0.204162566977    15.994914619570
         O           -2.804859170251    -0.062713785400    -1.010613433023    15.994914619570
         O            2.652714829749     0.680974214600    -0.523021433023    15.994914619570
         O           -2.248263170251    -0.235791785400     1.180207566977    15.994914619570
         C            0.471593829749     0.218481214600     0.400813566977    12.000000000000
         C           -0.528254170251    -0.504119785400    -0.502246433023    12.000000000000
         C            1.885784829749    -0.123444785400    -0.016504433023    12.000000000000
         C           -1.925698170251    -0.248296785400     0.005714566977    12.000000000000
         H            0.312371829749    -0.107013785400     1.434961566977     1.007825032230
         H           -0.351644170251    -1.585801785400    -0.489442433023     1.007825032230
         H           -0.432515170251    -0.145036785400    -1.530228433023     1.007825032230
         H            1.026466829749     1.966926214600    -0.192570433023     1.007825032230
         H            3.202871029749    -1.558336985400    -0.147318833023     1.007825032230
         H           -3.676147170251     0.075074214600    -0.583041433023     1.007825032230

  Basis Set: AUG-CC-PVTZ
    Blend: AUG-CC-PVTZ
  Basis Set: (AUG-CC-PVTZ AUX)
    Blend: AUG-CC-PVTZ-JKFIT
	 Reference Energy          =    -529.5103992686144920 [Eh]
	 Singles Energy            =      -0.0000000000000000 [Eh]
	 Same-Spin Energy          =      -0.5067076299945572 [Eh]
	 Opposite-Spin Energy      =      -1.5092519704045619 [Eh]
	 Correlation Energy        =      -2.0159596003991194 [Eh]
	 Total Energy              =    -531.5263588690136203 [Eh]

	 ================> DF-SCS-MP2 Energies <==================
	-----------------------------------------------------------
	 SCS Same-Spin Scale       =       0.3333333333333333 [-]
	 SCS Opposite-Spin Scale   =       1.2000000000000000 [-]
	 SCS Same-Spin Energy      =      -0.1689025433315191 [Eh]
	 SCS Opposite-Spin Energy  =      -1.8111023644854742 [Eh]
	 SCS Correlation Energy    =      -1.9800049078169932 [Eh]
	 SCS Total Energy          =    -531.4904041764315252 [Eh]
	-----------------------------------------------------------

  Dipole Moment: [D]
     X:     0.9743      Y:    -2.2305      Z:    -1.6193     Total:     2.9235

*** Psi4 exiting successfully. Buy a developer a beer!
