                               Psi4 1.3.2 release

  ==> Input File <==

--------------------------------------------------------------------------
#psi4
#
memory 32 gb

molecule  {
0 1
  O        0.2778030     1.6259200     0.3386670
  O        2.1914470    -1.4110830     0.2143760
  O       -2.8041000    -0.0533200    -1.0004000
  O        2.6534740     0.6903680    -0.5128080
  O       -2.2475040    -0.2263980     1.1904210
  C        0.4723530     0.2278750     0.4110270
  C       -0.5274950    -0.4947260    -0.4920330
  C        1.8651376    -0.1177404     0.0028603
  C       -1.9249390    -0.2389030     0.0159280
  H        0.3131310    -0.0976200     1.4451750
  H       -0.3508850    -1.5764080    -0.4792290
  H       -0.4317560    -0.1356430    -1.5200150
  H        1.0272260     1.9763200    -0.1823570
  H        3.1099360    -1.5361820    -0.1045700
  H       -3.6753880     0.0844680    -0.5728280
units angstrom
no_reorient  #important for SAPT in psi4, default
symmetry c1  #important for SAPT in psi4, default
}

set PROPERTIES_ORIGIN ["COM"]
properties('MP2/aug-cc-pvtz', properties = ['dipole'])
--------------------------------------------------------------------------

    Molecular point group: c1
  Charge       = 0
  Multiplicity = 1
  Basis Set: AUG-CC-PVTZ
    Blend: AUG-CC-PVTZ
  Basis Set: (AUG-CC-PVTZ AUX)
    Blend: AUG-CC-PVTZ-JKFIT

    Orbital Energies [Eh]
    ---------------------

    Doubly Occupied:

       1A    -20.645235     2A    -20.626611     3A    -20.579337
       4A    -20.576634     5A    -20.560329     6A    -11.418190
       7A    -11.403059     8A    -11.324802     9A    -11.271550
      10A     -1.487591    11A     -1.470511    12A     -1.394988
      13A     -1.368539    14A     -1.364421    15A     -1.093580
      16A     -0.977164    17A     -0.847593    18A     -0.812724
      19A     -0.760734    20A     -0.733708    21A     -0.714852
      22A     -0.703586    23A     -0.673266    24A     -0.650504
      25A     -0.647113    26A     -0.625156    27A     -0.600755
      28A     -0.590613    29A     -0.559772    30A     -0.547584
      31A     -0.504870    32A     -0.492097    33A     -0.484715
      34A     -0.472246    35A     -0.463276

  @DF-RHF Final Energy:  -529.52061670227852

   => Energetics <=

    Nuclear Repulsion Energy =            464.4073615433789541
    One-Electron Energy =               -1648.9605542807757956
    Two-Electron Energy =                 655.0325760351182680
    Total Energy =                       -529.5206167022785166
  Basis Set: (AUG-CC-PVTZ AUX)
    Blend: AUG-CC-PVTZ-RI
    Molecular point group: c1

    Geometry (in Angstrom), charge = 0, multiplicity = 1:

       Center              X                  Y                   Z               Mass
    ------------   -----------------  -----------------  -----------------  -----------------
         O            0.279665081557     1.616760592948     0.327389517062    15.994914619570
         O            2.193309081557    -1.420242407052     0.203098517062    15.994914619570
         O           -2.802237918443    -0.062479407052    -1.011677482938    15.994914619570
         O            2.655336081557     0.681208592948    -0.524085482938    15.994914619570
         O           -2.245641918443    -0.235557407052     1.179143517062    15.994914619570
         C            0.474215081557     0.218715592948     0.399749517062    12.000000000000
         C           -0.525632918443    -0.503885407052    -0.503310482938    12.000000000000
         C            1.866999681557    -0.126899807052    -0.008417182938    12.000000000000
         C           -1.923076918443    -0.248062407052     0.004650517062    12.000000000000
         H            0.314993081557    -0.106779407052     1.433897517062     1.007825032230
         H           -0.349022918443    -1.585567407052    -0.490506482938     1.007825032230
         H           -0.429893918443    -0.144802407052    -1.531292482938     1.007825032230
         H            1.029088081557     1.967160592948    -0.193634482938     1.007825032230
         H            3.111798081557    -1.545341407052    -0.115847482938     1.007825032230
         H           -3.673525918443     0.075308592948    -0.584105482938     1.007825032230

  Basis Set: AUG-CC-PVTZ
    Blend: AUG-CC-PVTZ
  Basis Set: (AUG-CC-PVTZ AUX)
    Blend: AUG-CC-PVTZ-JKFIT
	 Reference Energy          =    -529.5206167022785166 [Eh]
	 Singles Energy            =      -0.0000000000000000 [Eh]
	 Same-Spin Energy          =      -0.5059881516640639 [Eh]
	 Opposite-Spin Energy      =      -1.5072161345847570 [Eh]
	 Correlation Energy        =      -2.0132042862488211 [Eh]
	 Total Energy              =    -531.5338209885272818 [Eh]

	 ================> DF-SCS-MP2 Energies <==================
	-----------------------------------------------------------
	 SCS Same-Spin Scale       =       0.3333333333333333 [-]
	 SCS Opposite-Spin Scale   =       1.2000000000000000 [-]
	 SCS Same-Spin Energy      =      -0.1686627172213546 [Eh]
	 SCS Opposite-Spin Energy  =      -1.8086593615017084 [Eh]
	 SCS Correlation Energy    =      -1.9773220787230630 [Eh]
	 SCS Total Energy          =    -531.4979387810016078 [Eh]
	-----------------------------------------------------------

  Dipole Moment: [D]
     X:     0.7239      Y:    -2.2202      Z:    -1.5467     Total:     2.8010

*** Psi4 exiting successfully. Buy a developer a beer!
