                               Psi4 1.3.2 release

  ==> Input File <==

--------------------------------------------------------------------------
#psi4
#
memory 32 gb

molecule  {
0 1
  O        0.2778030     1.6259200     0.3386670
  O        2.1914470    -1.4110830     0.2143760
  O       -2.8041000    -0.0533200    -1.0004000
  O        2.5915578     0.7486634    -0.5068012
  O       -2.2475040    -0.2263980     1.1904210
  C        0.4723530     0.2278750     0.4110270
  C       -0.5274950    -0.4947260    -0.4920330
  C        1.8865440    -0.1140510    -0.0062910
  C       -1.9249390    -0.2389030     0.0159280
  H        0.3131310    -0.0976200     1.4451750
  H       -0.3508850    -1.5764080    -0.4792290
  H       -0.4317560    -0.1356430    -1.5200150
  H        1.0272260     1.9763200    -0.1823570
  H        3.1099360    -1.5361820    -0.1045700
  H       -3.6753880     0.0844680    -0.5728280
units angstrom
no_reorient  #important for SAPT in psi4, default
symmetry c1  #important for SAPT in psi4, default
}

set PROPERTIES_ORIGIN ["COM"]
properties('MP2/aug-cc-pvtz', properties = ['dipole'])
--------------------------------------------------------------------------

    Molecular point group: c1
  Charge       = 0
  Multiplicity = 1
  Basis Set: AUG-CC-PVTZ
    Blend: AUG-CC-PVTZ
  Basis Set: (AUG-CC-PVTZ AUX)
    Blend: AUG-CC-PVTZ-JKFIT

    Orbital Energies [Eh]
    ---------------------

    Doubly Occupied:

       1A    -20.651837     2A    -20.624387     3A    -20.583660
       4A    -20.570732     5A    -20.557718     6A    -11.417160
       7A    -11.400298     8A    -11.319127     9A    -11.267773
      10A     -1.492354    11A     -1.468159    12A     -1.403165
      13A     -1.370564    14A     -1.363687    15A     -1.087360
      16A     -0.969664    17A     -0.846600    18A     -0.809501
      19A     -0.759428    20A     -0.739539    21A     -0.712564
      22A     -0.701583    23A     -0.671384    24A     -0.653162
      25A     -0.648454    26A     -0.626829    27A     -0.598341
      28A     -0.589192    29A     -0.556330    30A     -0.544026
      31A     -0.514730    32A     -0.490455    33A     -0.482601
      34A     -0.467634    35A     -0.459894

  @DF-RHF Final Energy:  -529.52138421700010

   => Energetics <=

    Nuclear Repulsion Energy =            464.9741113765298337
    One-Electron Energy =               -1650.1512059067115388
    Two-Electron Energy =                 655.6557103131815438
    Total Energy =                       -529.5213842170001044
  Basis Set: (AUG-CC-PVTZ AUX)
    Blend: AUG-CC-PVTZ-RI
    Molecular point group: c1

    Geometry (in Angstrom), charge = 0, multiplicity = 1:

       Center              X                  Y                   Z               Mass
    ------------   -----------------  -----------------  -----------------  -----------------
         O            0.285137840816     1.609472937042     0.327492018112    15.994914619570
         O            2.198781840816    -1.427530062958     0.203201018112    15.994914619570
         O           -2.796765159184    -0.069767062958    -1.011574981888    15.994914619570
         O            2.598892640816     0.732216337042    -0.517976181888    15.994914619570
         O           -2.240169159184    -0.242845062958     1.179246018112    15.994914619570
         C            0.479687840816     0.211427937042     0.399852018112    12.000000000000
         C           -0.520160159184    -0.511173062958    -0.503207981888    12.000000000000
         C            1.893878840816    -0.130498062958    -0.017465981888    12.000000000000
         C           -1.917604159184    -0.255350062958     0.004753018112    12.000000000000
         H            0.320465840816    -0.114067062958     1.434000018112     1.007825032230
         H           -0.343550159184    -1.592855062958    -0.490403981888     1.007825032230
         H           -0.424421159184    -0.152090062958    -1.531189981888     1.007825032230
         H            1.034560840816     1.959872937042    -0.193531981888     1.007825032230
         H            3.117270840816    -1.552629062958    -0.115744981888     1.007825032230
         H           -3.668053159184     0.068020937042    -0.584002981888     1.007825032230

  Basis Set: AUG-CC-PVTZ
    Blend: AUG-CC-PVTZ
  Basis Set: (AUG-CC-PVTZ AUX)
    Blend: AUG-CC-PVTZ-JKFIT
	 Reference Energy          =    -529.5213842170001044 [Eh]
	 Singles Energy            =      -0.0000000000000000 [Eh]
	 Same-Spin Energy          =      -0.5058057969479748 [Eh]
	 Opposite-Spin Energy      =      -1.5066826619036684 [Eh]
	 Correlation Energy        =      -2.0124884588516432 [Eh]
	 Total Energy              =    -531.5338726758517396 [Eh]

	 ================> DF-SCS-MP2 Energies <==================
	-----------------------------------------------------------
	 SCS Same-Spin Scale       =       0.3333333333333333 [-]
	 SCS Opposite-Spin Scale   =       1.2000000000000000 [-]
	 SCS Same-Spin Energy      =      -0.1686019323159916 [Eh]
	 SCS Opposite-Spin Energy  =      -1.8080191942844019 [Eh]
	 SCS Correlation Energy    =      -1.9766211266003935 [Eh]
	 SCS Total Energy          =    -531.4980053436005392 [Eh]
	-----------------------------------------------------------

  Dipole Moment: [D]
     X:     1.0998      Y:    -2.3392      Z:    -1.6155     Total:     3.0482

*** Psi4 exiting successfully. Buy a developer a beer!
