                               Psi4 1.3.2 release

  ==> Input File <==

--------------------------------------------------------------------------
#psi4
#
memory 32 gb

molecule  {
0 1
  O        0.2778030     1.6259200     0.3386670
  O        2.1914470    -1.4110830     0.2143760
  O       -2.8041000    -0.0533200    -1.0004000
  O        2.6534740     0.6903680    -0.5128080
  O       -2.2475040    -0.2263980     1.1904210
  C        0.4723530     0.2278750     0.4110270
  C       -0.5274950    -0.4947260    -0.4920330
  C        1.8865440    -0.1140510    -0.0062910
  C       -1.9249390    -0.2389030     0.0159280
  H        0.3131310    -0.0976200     1.4451750
  H       -0.3508850    -1.5764080    -0.4792290
  H       -0.4317560    -0.1356430    -1.5200150
  H        1.0272260     1.9763200    -0.1823570
  H        2.9225476    -1.5106595    -0.0394992
  H       -3.6753880     0.0844680    -0.5728280
units angstrom
no_reorient  #important for SAPT in psi4, default
symmetry c1  #important for SAPT in psi4, default
}

set PROPERTIES_ORIGIN ["COM"]
properties('MP2/aug-cc-pvtz', properties = ['dipole'])
--------------------------------------------------------------------------

    Molecular point group: c1
  Charge       = 0
  Multiplicity = 1
  Basis Set: AUG-CC-PVTZ
    Blend: AUG-CC-PVTZ
  Basis Set: (AUG-CC-PVTZ AUX)
    Blend: AUG-CC-PVTZ-JKFIT

    Orbital Energies [Eh]
    ---------------------

    Doubly Occupied:

       1A    -20.628644     2A    -20.626686     3A    -20.586357
       4A    -20.576984     5A    -20.560390     6A    -11.420323
       7A    -11.403119     8A    -11.325224     9A    -11.271291
      10A     -1.535810    11A     -1.470629    12A     -1.415055
      13A     -1.377637    14A     -1.366766    15A     -1.094914
      16A     -0.988948    17A     -0.875471    18A     -0.816593
      19A     -0.768634    20A     -0.749809    21A     -0.715372
      22A     -0.705625    23A     -0.676006    24A     -0.659910
      25A     -0.654760    26A     -0.630869    27A     -0.603127
      28A     -0.591900    29A     -0.560146    30A     -0.552967
      31A     -0.517451    32A     -0.493194    33A     -0.486688
      34A     -0.472296    35A     -0.463209

  @DF-RHF Final Energy:  -529.47979538101413

   => Energetics <=

    Nuclear Repulsion Energy =            465.8414041813257995
    One-Electron Energy =               -1651.3567931003087779
    Two-Electron Energy =                 656.0355935379689072
    Total Energy =                       -529.4797953810141280
  Basis Set: (AUG-CC-PVTZ AUX)
    Blend: AUG-CC-PVTZ-RI
    Molecular point group: c1

    Geometry (in Angstrom), charge = 0, multiplicity = 1:

       Center              X                  Y                   Z               Mass
    ------------   -----------------  -----------------  -----------------  -----------------
         O            0.279157535619     1.616238325981     0.327719580605    15.994914619570
         O            2.192801535619    -1.420764674019     0.203428580605    15.994914619570
         O           -2.802745464381    -0.063001674019    -1.011347419395    15.994914619570
         O            2.654828535619     0.680686325981    -0.523755419395    15.994914619570
         O           -2.246149464381    -0.236079674019     1.179473580605    15.994914619570
         C            0.473707535619     0.218193325981     0.400079580605    12.000000000000
         C           -0.526140464381    -0.504407674019    -0.502980419395    12.000000000000
         C            1.887898535619    -0.123732674019    -0.017238419395    12.000000000000
         C           -1.923584464381    -0.248584674019     0.004980580605    12.000000000000
         H            0.314485535619    -0.107301674019     1.434227580605     1.007825032230
         H           -0.349530464381    -1.586089674019    -0.490176419395     1.007825032230
         H           -0.430401464381    -0.145324674019    -1.530962419395     1.007825032230
         H            1.028580535619     1.966638325981    -0.193304419395     1.007825032230
         H            2.923902135619    -1.520341174019    -0.050446619395     1.007825032230
         H           -3.674033464381     0.074786325981    -0.583775419395     1.007825032230

  Basis Set: AUG-CC-PVTZ
    Blend: AUG-CC-PVTZ
  Basis Set: (AUG-CC-PVTZ AUX)
    Blend: AUG-CC-PVTZ-JKFIT
	 Reference Energy          =    -529.4797953810141280 [Eh]
	 Singles Energy            =      -0.0000000000000000 [Eh]
	 Same-Spin Energy          =      -0.5030196440256186 [Eh]
	 Opposite-Spin Energy      =      -1.5010270347603221 [Eh]
	 Correlation Energy        =      -2.0040466787859406 [Eh]
	 Total Energy              =    -531.4838420598000539 [Eh]

	 ================> DF-SCS-MP2 Energies <==================
	-----------------------------------------------------------
	 SCS Same-Spin Scale       =       0.3333333333333333 [-]
	 SCS Opposite-Spin Scale   =       1.2000000000000000 [-]
	 SCS Same-Spin Energy      =      -0.1676732146752062 [Eh]
	 SCS Opposite-Spin Energy  =      -1.8012324417123864 [Eh]
	 SCS Correlation Energy    =      -1.9689056563875926 [Eh]
	 SCS Total Energy          =    -531.4487010374017473 [Eh]
	-----------------------------------------------------------

  Dipole Moment: [D]
     X:     0.5976      Y:    -2.0562      Z:    -1.5326     Total:     2.6333

*** Psi4 exiting successfully. Buy a developer a beer!
