                               Psi4 1.3.2 release

  ==> Input File <==

--------------------------------------------------------------------------
#psi4
#
memory 32 gb

molecule  {
0 1
  O        0.2778030     1.6259200     0.3386670
  O        2.1050703    -1.4218044     0.2505730
  O       -2.8041000    -0.0533200    -1.0004000
  O        2.6534740     0.6903680    -0.5128080
  O       -2.2475040    -0.2263980     1.1904210
  C        0.4723530     0.2278750     0.4110270
  C       -0.5274950    -0.4947260    -0.4920330
  C        1.8865440    -0.1140510    -0.0062910
  C       -1.9249390    -0.2389030     0.0159280
  H        0.3131310    -0.0976200     1.4451750
  H       -0.3508850    -1.5764080    -0.4792290
  H       -0.4317560    -0.1356430    -1.5200150
  H        1.0272260     1.9763200    -0.1823570
  H        3.1099360    -1.5361820    -0.1045700
  H       -3.6753880     0.0844680    -0.5728280
units angstrom
no_reorient  #important for SAPT in psi4, default
symmetry c1  #important for SAPT in psi4, default
}

set PROPERTIES_ORIGIN ["COM"]
properties('MP2/aug-cc-pvtz', properties = ['dipole'])
--------------------------------------------------------------------------

    Molecular point group: c1
  Charge       = 0
  Multiplicity = 1
  Basis Set: AUG-CC-PVTZ
    Blend: AUG-CC-PVTZ
  Basis Set: (AUG-CC-PVTZ AUX)
    Blend: AUG-CC-PVTZ-JKFIT

    Orbital Energies [Eh]
    ---------------------

    Doubly Occupied:

       1A    -20.655705     2A    -20.624612     3A    -20.586109
       4A    -20.572598     5A    -20.558009     6A    -11.416210
       7A    -11.400565     8A    -11.319206     9A    -11.267748
      10A     -1.484336    11A     -1.468384    12A     -1.395620
      13A     -1.372854    14A     -1.364321    15A     -1.086674
      16A     -0.965878    17A     -0.835740    18A     -0.805240
      19A     -0.752840    20A     -0.733078    21A     -0.712589
      22A     -0.700933    23A     -0.670083    24A     -0.651137
      25A     -0.646000    26A     -0.628761    27A     -0.598691
      28A     -0.588859    29A     -0.556293    30A     -0.545104
      31A     -0.514376    32A     -0.490087    33A     -0.482876
      34A     -0.468415    35A     -0.459914

  @DF-RHF Final Energy:  -529.50835612253559

   => Energetics <=

    Nuclear Repulsion Energy =            464.7111272608152603
    One-Electron Energy =               -1649.6792743292987780
    Two-Electron Energy =                 655.4597909459480434
    Total Energy =                       -529.5083561225355879
  Basis Set: (AUG-CC-PVTZ AUX)
    Blend: AUG-CC-PVTZ-RI
    Molecular point group: c1

    Geometry (in Angstrom), charge = 0, multiplicity = 1:

       Center              X                  Y                   Z               Mass
    ------------   -----------------  -----------------  -----------------  -----------------
         O            0.288057100346     1.617709806734     0.323888942580    15.994914619570
         O            2.115324400346    -1.430014593266     0.235794942580    15.994914619570
         O           -2.793845899654    -0.061530193266    -1.015178057420    15.994914619570
         O            2.663728100346     0.682157806734    -0.527586057420    15.994914619570
         O           -2.237249899654    -0.234608193266     1.175642942580    15.994914619570
         C            0.482607100346     0.219664806734     0.396248942580    12.000000000000
         C           -0.517240899654    -0.502936193266    -0.506811057420    12.000000000000
         C            1.896798100346    -0.122261193266    -0.021069057420    12.000000000000
         C           -1.914684899654    -0.247113193266     0.001149942580    12.000000000000
         H            0.323385100346    -0.105830193266     1.430396942580     1.007825032230
         H           -0.340630899654    -1.584618193266    -0.494007057420     1.007825032230
         H           -0.421501899654    -0.143853193266    -1.534793057420     1.007825032230
         H            1.037480100346     1.968109806734    -0.197135057420     1.007825032230
         H            3.120190100346    -1.544392193266    -0.119348057420     1.007825032230
         H           -3.665133899654     0.076257806734    -0.587606057420     1.007825032230

  Basis Set: AUG-CC-PVTZ
    Blend: AUG-CC-PVTZ
  Basis Set: (AUG-CC-PVTZ AUX)
    Blend: AUG-CC-PVTZ-JKFIT
	 Reference Energy          =    -529.5083561225355879 [Eh]
	 Singles Energy            =      -0.0000000000000000 [Eh]
	 Same-Spin Energy          =      -0.5073067495887649 [Eh]
	 Opposite-Spin Energy      =      -1.5102995400218597 [Eh]
	 Correlation Energy        =      -2.0176062896106246 [Eh]
	 Total Energy              =    -531.5259624121462139 [Eh]

	 ================> DF-SCS-MP2 Energies <==================
	-----------------------------------------------------------
	 SCS Same-Spin Scale       =       0.3333333333333333 [-]
	 SCS Opposite-Spin Scale   =       1.2000000000000000 [-]
	 SCS Same-Spin Energy      =      -0.1691022498629216 [Eh]
	 SCS Opposite-Spin Energy  =      -1.8123594480262315 [Eh]
	 SCS Correlation Energy    =      -1.9814616978891531 [Eh]
	 SCS Total Energy          =    -531.4898178204247188 [Eh]
	-----------------------------------------------------------

  Dipole Moment: [D]
     X:     1.0376      Y:    -2.2371      Z:    -1.6249     Total:     2.9532

*** Psi4 exiting successfully. Buy a developer a beer!
