                               Psi4 1.3.2 release

  ==> Input File <==

--------------------------------------------------------------------------
#psi4
#
memory 32 gb

molecule  {
0 1
  O        0.2778030     1.6259200     0.3386670
  O        2.1914470    -1.4110830     0.2143760
  O       -2.8041000    -0.0533200    -1.0004000
  O        2.6229645     0.7200238    -0.5101115
  O       -2.2475040    -0.2263980     1.1904210
  C        0.4723530     0.2278750     0.4110270
  C       -0.5274950    -0.4947260    -0.4920330
  C        1.8865440    -0.1140510    -0.0062910
  C       -1.9249390    -0.2389030     0.0159280
  H        0.3131310    -0.0976200     1.4451750
  H       -0.3508850    -1.5764080    -0.4792290
  H       -0.4317560    -0.1356430    -1.5200150
  H        1.0272260     1.9763200    -0.1823570
  H        3.1099360    -1.5361820    -0.1045700
  H       -3.6753880     0.0844680    -0.5728280
units angstrom
no_reorient  #important for SAPT in psi4, default
symmetry c1  #important for SAPT in psi4, default
}

set PROPERTIES_ORIGIN ["COM"]
properties('MP2/aug-cc-pvtz', properties = ['dipole'])
--------------------------------------------------------------------------

    Molecular point group: c1
  Charge       = 0
  Multiplicity = 1
  Basis Set: AUG-CC-PVTZ
    Blend: AUG-CC-PVTZ
  Basis Set: (AUG-CC-PVTZ AUX)
    Blend: AUG-CC-PVTZ-JKFIT

    Orbital Energies [Eh]
    ---------------------

    Doubly Occupied:

       1A    -20.648354     2A    -20.625085     3A    -20.582827
       4A    -20.573175     5A    -20.558544     6A    -11.416542
       7A    -11.401156     8A    -11.321454     9A    -11.268804
      10A     -1.491680    11A     -1.468903    12A     -1.400383
      13A     -1.372059    14A     -1.364672    15A     -1.088612
      16A     -0.970552    17A     -0.846413    18A     -0.810244
      19A     -0.759195    20A     -0.737857    21A     -0.713322
      22A     -0.702186    23A     -0.671972    24A     -0.652505
      25A     -0.648079    26A     -0.627263    27A     -0.599327
      28A     -0.589683    29A     -0.557426    30A     -0.545919
      31A     -0.512983    32A     -0.490933    33A     -0.483430
      34A     -0.469251    35A     -0.460905

  @DF-RHF Final Energy:  -529.52282670183979

   => Energetics <=

    Nuclear Repulsion Energy =            464.6388085655416376
    One-Electron Energy =               -1649.4598866413889482
    Two-Electron Energy =                 655.2982513740074637
    Total Energy =                       -529.5228267018397901
  Basis Set: (AUG-CC-PVTZ AUX)
    Blend: AUG-CC-PVTZ-RI
    Molecular point group: c1

    Geometry (in Angstrom), charge = 0, multiplicity = 1:

       Center              X                  Y                   Z               Mass
    ------------   -----------------  -----------------  -----------------  -----------------
         O            0.281389581039     1.612890954876     0.327887088729    15.994914619570
         O            2.195033581039    -1.424112045124     0.203596088729    15.994914619570
         O           -2.800513418961    -0.066349045124    -1.011179911271    15.994914619570
         O            2.626551081039     0.706994754876    -0.520891411271    15.994914619570
         O           -2.243917418961    -0.239427045124     1.179641088729    15.994914619570
         C            0.475939581039     0.214845954876     0.400247088729    12.000000000000
         C           -0.523908418961    -0.507755045124    -0.502812911271    12.000000000000
         C            1.890130581039    -0.127080045124    -0.017070911271    12.000000000000
         C           -1.921352418961    -0.251932045124     0.005148088729    12.000000000000
         H            0.316717581039    -0.110649045124     1.434395088729     1.007825032230
         H           -0.347298418961    -1.589437045124    -0.490008911271     1.007825032230
         H           -0.428169418961    -0.148672045124    -1.530794911271     1.007825032230
         H            1.030812581039     1.963290954876    -0.193136911271     1.007825032230
         H            3.113522581039    -1.549211045124    -0.115349911271     1.007825032230
         H           -3.671801418961     0.071438954876    -0.583607911271     1.007825032230

  Basis Set: AUG-CC-PVTZ
    Blend: AUG-CC-PVTZ
  Basis Set: (AUG-CC-PVTZ AUX)
    Blend: AUG-CC-PVTZ-JKFIT
	 Reference Energy          =    -529.5228267018397901 [Eh]
	 Singles Energy            =      -0.0000000000000000 [Eh]
	 Same-Spin Energy          =      -0.5056068573027716 [Eh]
	 Opposite-Spin Energy      =      -1.5064095211420017 [Eh]
	 Correlation Energy        =      -2.0120163784447733 [Eh]
	 Total Energy              =    -531.5348430802845314 [Eh]

	 ================> DF-SCS-MP2 Energies <==================
	-----------------------------------------------------------
	 SCS Same-Spin Scale       =       0.3333333333333333 [-]
	 SCS Opposite-Spin Scale   =       1.2000000000000000 [-]
	 SCS Same-Spin Energy      =      -0.1685356191009239 [Eh]
	 SCS Opposite-Spin Energy  =      -1.8076914253704019 [Eh]
	 SCS Correlation Energy    =      -1.9762270444713259 [Eh]
	 SCS Total Energy          =    -531.4990537463111195 [Eh]
	-----------------------------------------------------------

  Dipole Moment: [D]
     X:     0.9734      Y:    -2.2620      Z:    -1.6006     Total:     2.9371

*** Psi4 exiting successfully. Buy a developer a beer!
