                               Psi4 1.3.2 release

  ==> Input File <==

--------------------------------------------------------------------------
#psi4
#
memory 32 gb

molecule  {
0 1
  O        0.2778030     1.6259200     0.3386670
  O        2.3180973    -1.3831775     0.1581213
  O       -2.8041000    -0.0533200    -1.0004000
  O        2.6534740     0.6903680    -0.5128080
  O       -2.2475040    -0.2263980     1.1904210
  C        0.4723530     0.2278750     0.4110270
  C       -0.5274950    -0.4947260    -0.4920330
  C        1.8865440    -0.1140510    -0.0062910
  C       -1.9249390    -0.2389030     0.0159280
  H        0.3131310    -0.0976200     1.4451750
  H       -0.3508850    -1.5764080    -0.4792290
  H       -0.4317560    -0.1356430    -1.5200150
  H        1.0272260     1.9763200    -0.1823570
  H        3.1099360    -1.5361820    -0.1045700
  H       -3.6753880     0.0844680    -0.5728280
units angstrom
no_reorient  #important for SAPT in psi4, default
symmetry c1  #important for SAPT in psi4, default
}

set PROPERTIES_ORIGIN ["COM"]
properties('MP2/aug-cc-pvtz', properties = ['dipole'])
--------------------------------------------------------------------------

    Molecular point group: c1
  Charge       = 0
  Multiplicity = 1
  Basis Set: AUG-CC-PVTZ
    Blend: AUG-CC-PVTZ
  Basis Set: (AUG-CC-PVTZ AUX)
    Blend: AUG-CC-PVTZ-JKFIT

    Orbital Energies [Eh]
    ---------------------

    Doubly Occupied:

       1A    -20.627573     2A    -20.624060     3A    -20.579969
       4A    -20.575974     5A    -20.561459     6A    -11.417479
       7A    -11.404223     8A    -11.331006     9A    -11.273002
      10A     -1.506848    11A     -1.471570    12A     -1.403195
      13A     -1.374250    14A     -1.367549    15A     -1.094896
      16A     -0.982734    17A     -0.875190    18A     -0.817962
      19A     -0.772387    20A     -0.731854    21A     -0.716122
      22A     -0.705612    23A     -0.675488    24A     -0.652651
      25A     -0.648246    26A     -0.624561    27A     -0.602165
      28A     -0.592173    29A     -0.561990    30A     -0.550499
      31A     -0.506265    32A     -0.492834    33A     -0.484056
      34A     -0.474582    35A     -0.464434

  @DF-RHF Final Energy:  -529.50843572631834

   => Energetics <=

    Nuclear Repulsion Energy =            464.0914303105160457
    One-Electron Energy =               -1648.1100200050886997
    Two-Electron Energy =                 654.5101539682543716
    Total Energy =                       -529.5084357263183392
  Basis Set: (AUG-CC-PVTZ AUX)
    Blend: AUG-CC-PVTZ-RI
    Molecular point group: c1

    Geometry (in Angstrom), charge = 0, multiplicity = 1:

       Center              X                  Y                   Z               Mass
    ------------   -----------------  -----------------  -----------------  -----------------
         O            0.262633208772     1.613099845943     0.334922670683    15.994914619570
         O            2.302927508772    -1.395997654057     0.154376970683    15.994914619570
         O           -2.819269791228    -0.066140154057    -1.004144329317    15.994914619570
         O            2.638304208772     0.677547845943    -0.516552329317    15.994914619570
         O           -2.262673791228    -0.239218154057     1.186676670683    15.994914619570
         C            0.457183208772     0.215054845943     0.407282670683    12.000000000000
         C           -0.542664791228    -0.507546154057    -0.495777329317    12.000000000000
         C            1.871374208772    -0.126871154057    -0.010035329317    12.000000000000
         C           -1.940108791228    -0.251723154057     0.012183670683    12.000000000000
         H            0.297961208772    -0.110440154057     1.441430670683     1.007825032230
         H           -0.366054791228    -1.589228154057    -0.482973329317     1.007825032230
         H           -0.446925791228    -0.148463154057    -1.523759329317     1.007825032230
         H            1.012056208772     1.963499845943    -0.186101329317     1.007825032230
         H            3.094766208772    -1.549002154057    -0.108314329317     1.007825032230
         H           -3.690557791228     0.071647845943    -0.576572329317     1.007825032230

  Basis Set: AUG-CC-PVTZ
    Blend: AUG-CC-PVTZ
  Basis Set: (AUG-CC-PVTZ AUX)
    Blend: AUG-CC-PVTZ-JKFIT
	 Reference Energy          =    -529.5084357263183392 [Eh]
	 Singles Energy            =      -0.0000000000000000 [Eh]
	 Same-Spin Energy          =      -0.5032316583332649 [Eh]
	 Opposite-Spin Energy      =      -1.5015695210837379 [Eh]
	 Correlation Energy        =      -2.0048011794170026 [Eh]
	 Total Energy              =    -531.5132369057353117 [Eh]

	 ================> DF-SCS-MP2 Energies <==================
	-----------------------------------------------------------
	 SCS Same-Spin Scale       =       0.3333333333333333 [-]
	 SCS Opposite-Spin Scale   =       1.2000000000000000 [-]
	 SCS Same-Spin Energy      =      -0.1677438861110883 [Eh]
	 SCS Opposite-Spin Energy  =      -1.8018834253004854 [Eh]
	 SCS Correlation Energy    =      -1.9696273114115737 [Eh]
	 SCS Total Energy          =    -531.4780630377299531 [Eh]
	-----------------------------------------------------------

  Dipole Moment: [D]
     X:     0.5302      Y:    -2.0814      Z:    -1.5230     Total:     2.6330

*** Psi4 exiting successfully. Buy a developer a beer!
