                               Psi4 1.3.2 release

  ==> Input File <==

--------------------------------------------------------------------------
#psi4
#
memory 32 gb

molecule  {
0 1
  O        0.2778030     1.6259200     0.3386670
  O        2.1914470    -1.4110830     0.2143760
  O       -2.8041000    -0.0533200    -1.0004000
  O        2.6534740     0.6903680    -0.5128080
  O       -2.2475040    -0.2263980     1.1904210
  C        0.4723530     0.2278750     0.4110270
  C       -0.4865224    -0.5162696    -0.5185818
  C        1.8865440    -0.1140510    -0.0062910
  C       -1.9249390    -0.2389030     0.0159280
  H        0.3131310    -0.0976200     1.4451750
  H       -0.3508850    -1.5764080    -0.4792290
  H       -0.4317560    -0.1356430    -1.5200150
  H        1.0272260     1.9763200    -0.1823570
  H        3.1099360    -1.5361820    -0.1045700
  H       -3.6753880     0.0844680    -0.5728280
units angstrom
no_reorient  #important for SAPT in psi4, default
symmetry c1  #important for SAPT in psi4, default
}

set PROPERTIES_ORIGIN ["COM"]
properties('MP2/aug-cc-pvtz', properties = ['dipole'])
--------------------------------------------------------------------------

    Molecular point group: c1
  Charge       = 0
  Multiplicity = 1
  Basis Set: AUG-CC-PVTZ
    Blend: AUG-CC-PVTZ
  Basis Set: (AUG-CC-PVTZ AUX)
    Blend: AUG-CC-PVTZ-JKFIT

    Orbital Energies [Eh]
    ---------------------

    Doubly Occupied:

       1A    -20.644082     2A    -20.625935     3A    -20.580737
       4A    -20.576299     5A    -20.560212     6A    -11.414470
       7A    -11.403445     8A    -11.323662     9A    -11.269598
      10A     -1.490429    11A     -1.468774    12A     -1.397535
      13A     -1.372733    14A     -1.365389    15A     -1.088223
      16A     -0.966364    17A     -0.843971    18A     -0.814016
      19A     -0.757808    20A     -0.735795    21A     -0.713706
      22A     -0.700221    23A     -0.671522    24A     -0.653186
      25A     -0.647806    26A     -0.627937    27A     -0.602669
      28A     -0.584336    29A     -0.568014    30A     -0.547111
      31A     -0.510498    32A     -0.491607    33A     -0.483644
      34A     -0.472741    35A     -0.456814

  @DF-RHF Final Energy:  -529.52108199033603

   => Energetics <=

    Nuclear Repulsion Energy =            463.8687876306612452
    One-Electron Energy =               -1647.9171636056398711
    Two-Electron Energy =                 654.5272939846425970
    Total Energy =                       -529.5210819903360289
  Basis Set: (AUG-CC-PVTZ AUX)
    Blend: AUG-CC-PVTZ-RI
    Molecular point group: c1

    Geometry (in Angstrom), charge = 0, multiplicity = 1:

       Center              X                  Y                   Z               Mass
    ------------   -----------------  -----------------  -----------------  -----------------
         O            0.274079799569     1.618359219756     0.330586027514    15.994914619570
         O            2.187723799569    -1.418643780244     0.206295027514    15.994914619570
         O           -2.807823200431    -0.060880780244    -1.008480972486    15.994914619570
         O            2.649750799569     0.682807219756    -0.520888972486    15.994914619570
         O           -2.251227200431    -0.233958780244     1.182340027514    15.994914619570
         C            0.468629799569     0.220314219756     0.402946027514    12.000000000000
         C           -0.490245600431    -0.523830380244    -0.526662772486    12.000000000000
         C            1.882820799569    -0.121611780244    -0.014371972486    12.000000000000
         C           -1.928662200431    -0.246463780244     0.007847027514    12.000000000000
         H            0.309407799569    -0.105180780244     1.437094027514     1.007825032230
         H           -0.354608200431    -1.583968780244    -0.487309972486     1.007825032230
         H           -0.435479200431    -0.143203780244    -1.528095972486     1.007825032230
         H            1.023502799569     1.968759219756    -0.190437972486     1.007825032230
         H            3.106212799569    -1.543742780244    -0.112650972486     1.007825032230
         H           -3.679111200431     0.076907219756    -0.580908972486     1.007825032230

  Basis Set: AUG-CC-PVTZ
    Blend: AUG-CC-PVTZ
  Basis Set: (AUG-CC-PVTZ AUX)
    Blend: AUG-CC-PVTZ-JKFIT
	 Reference Energy          =    -529.5210819903360289 [Eh]
	 Singles Energy            =      -0.0000000000000000 [Eh]
	 Same-Spin Energy          =      -0.5053198929090033 [Eh]
	 Opposite-Spin Energy      =      -1.5061256148642266 [Eh]
	 Correlation Energy        =      -2.0114455077732298 [Eh]
	 Total Energy              =    -531.5325274981092889 [Eh]

	 ================> DF-SCS-MP2 Energies <==================
	-----------------------------------------------------------
	 SCS Same-Spin Scale       =       0.3333333333333333 [-]
	 SCS Opposite-Spin Scale   =       1.2000000000000000 [-]
	 SCS Same-Spin Energy      =      -0.1684399643030011 [Eh]
	 SCS Opposite-Spin Energy  =      -1.8073507378370719 [Eh]
	 SCS Correlation Energy    =      -1.9757907021400729 [Eh]
	 SCS Total Energy          =    -531.4968726924761313 [Eh]
	-----------------------------------------------------------

  Dipole Moment: [D]
     X:     0.7778      Y:    -2.1747      Z:    -1.5674     Total:     2.7912

*** Psi4 exiting successfully. Buy a developer a beer!
