                               Psi4 1.3.2 release

  ==> Input File <==

--------------------------------------------------------------------------
#psi4
#
memory 32 gb

molecule  {
0 1
  O        0.2778030     1.6259200     0.3386670
  O        2.1697676    -1.4145026     0.2229728
  O       -2.8041000    -0.0533200    -1.0004000
  O        2.6534740     0.6903680    -0.5128080
  O       -2.2475040    -0.2263980     1.1904210
  C        0.4723530     0.2278750     0.4110270
  C       -0.5274950    -0.4947260    -0.4920330
  C        1.8865440    -0.1140510    -0.0062910
  C       -1.9249390    -0.2389030     0.0159280
  H        0.3131310    -0.0976200     1.4451750
  H       -0.3508850    -1.5764080    -0.4792290
  H       -0.4317560    -0.1356430    -1.5200150
  H        1.0272260     1.9763200    -0.1823570
  H        3.1099360    -1.5361820    -0.1045700
  H       -3.6753880     0.0844680    -0.5728280
units angstrom
no_reorient  #important for SAPT in psi4, default
symmetry c1  #important for SAPT in psi4, default
}

set PROPERTIES_ORIGIN ["COM"]
properties('MP2/aug-cc-pvtz', properties = ['dipole'])
--------------------------------------------------------------------------

    Molecular point group: c1
  Charge       = 0
  Multiplicity = 1
  Basis Set: AUG-CC-PVTZ
    Blend: AUG-CC-PVTZ
  Basis Set: (AUG-CC-PVTZ AUX)
    Blend: AUG-CC-PVTZ-JKFIT

    Orbital Energies [Eh]
    ---------------------

    Doubly Occupied:

       1A    -20.647744     2A    -20.625472     3A    -20.582952
       4A    -20.574777     5A    -20.559007     6A    -11.415935
       7A    -11.401631     8A    -11.322601     9A    -11.269291
      10A     -1.489181    11A     -1.469313    12A     -1.397261
      13A     -1.373032    14A     -1.365247    15A     -1.089037
      16A     -0.969939    17A     -0.842951    18A     -0.809565
      19A     -0.756865    20A     -0.736058    21A     -0.713686
      22A     -0.702310    23A     -0.671993    24A     -0.651638
      25A     -0.647709    26A     -0.627958    27A     -0.599897
      28A     -0.589846    29A     -0.557947    30A     -0.547023
      31A     -0.511931    32A     -0.491051    33A     -0.483800
      34A     -0.470220    35A     -0.461382

  @DF-RHF Final Energy:  -529.52114936168005

   => Energetics <=

    Nuclear Repulsion Energy =            464.4138608505118100
    One-Electron Energy =               -1649.0175239424243046
    Two-Electron Energy =                 655.0825137302324492
    Total Energy =                       -529.5211493616800453
  Basis Set: (AUG-CC-PVTZ AUX)
    Blend: AUG-CC-PVTZ-RI
    Molecular point group: c1

    Geometry (in Angstrom), charge = 0, multiplicity = 1:

       Center              X                  Y                   Z               Mass
    ------------   -----------------  -----------------  -----------------  -----------------
         O            0.280335745117     1.616838367097     0.327182912322    15.994914619570
         O            2.172300345117    -1.423584232903     0.211488712322    15.994914619570
         O           -2.801567254883    -0.062401632903    -1.011884087678    15.994914619570
         O            2.656006745117     0.681286367097    -0.524292087678    15.994914619570
         O           -2.244971254883    -0.235479632903     1.178936912322    15.994914619570
         C            0.474885745117     0.218793367097     0.399542912322    12.000000000000
         C           -0.524962254883    -0.503807632903    -0.503517087678    12.000000000000
         C            1.889076745117    -0.123132632903    -0.017775087678    12.000000000000
         C           -1.922406254883    -0.247984632903     0.004443912322    12.000000000000
         H            0.315663745117    -0.106701632903     1.433690912322     1.007825032230
         H           -0.348352254883    -1.585489632903    -0.490713087678     1.007825032230
         H           -0.429223254883    -0.144724632903    -1.531499087678     1.007825032230
         H            1.029758745117     1.967238367097    -0.193841087678     1.007825032230
         H            3.112468745117    -1.545263632903    -0.116054087678     1.007825032230
         H           -3.672855254883     0.075386367097    -0.584312087678     1.007825032230

  Basis Set: AUG-CC-PVTZ
    Blend: AUG-CC-PVTZ
  Basis Set: (AUG-CC-PVTZ AUX)
    Blend: AUG-CC-PVTZ-JKFIT
	 Reference Energy          =    -529.5211493616800453 [Eh]
	 Singles Energy            =      -0.0000000000000000 [Eh]
	 Same-Spin Energy          =      -0.5058805906733687 [Eh]
	 Opposite-Spin Energy      =      -1.5071424205852462 [Eh]
	 Correlation Energy        =      -2.0130230112586149 [Eh]
	 Total Energy              =    -531.5341723729386558 [Eh]

	 ================> DF-SCS-MP2 Energies <==================
	-----------------------------------------------------------
	 SCS Same-Spin Scale       =       0.3333333333333333 [-]
	 SCS Opposite-Spin Scale   =       1.2000000000000000 [-]
	 SCS Same-Spin Energy      =      -0.1686268635577896 [Eh]
	 SCS Opposite-Spin Energy  =      -1.8085709047022953 [Eh]
	 SCS Correlation Energy    =      -1.9771977682600848 [Eh]
	 SCS Total Energy          =    -531.4983471299401572 [Eh]
	-----------------------------------------------------------

  Dipole Moment: [D]
     X:     0.8989      Y:    -2.1970      Z:    -1.5963     Total:     2.8606

*** Psi4 exiting successfully. Buy a developer a beer!
