                               Psi4 1.3.2 release

  ==> Input File <==

--------------------------------------------------------------------------
#psi4
#
memory 32 gb

molecule  {
0 1
  O        0.2778030     1.6259200     0.3386670
  O        2.1914470    -1.4110830     0.2143760
  O       -2.8041000    -0.0533200    -1.0004000
  O        2.6534740     0.6903680    -0.5128080
  O       -2.2475040    -0.2263980     1.1904210
  C        0.4723530     0.2278750     0.4110270
  C       -0.5274950    -0.4947260    -0.4920330
  C        1.9730329    -0.1032536    -0.0421964
  C       -1.9249390    -0.2389030     0.0159280
  H        0.3131310    -0.0976200     1.4451750
  H       -0.3508850    -1.5764080    -0.4792290
  H       -0.4317560    -0.1356430    -1.5200150
  H        1.0272260     1.9763200    -0.1823570
  H        3.1099360    -1.5361820    -0.1045700
  H       -3.6753880     0.0844680    -0.5728280
units angstrom
no_reorient  #important for SAPT in psi4, default
symmetry c1  #important for SAPT in psi4, default
}

set PROPERTIES_ORIGIN ["COM"]
properties('MP2/aug-cc-pvtz', properties = ['dipole'])
--------------------------------------------------------------------------

    Molecular point group: c1
  Charge       = 0
  Multiplicity = 1
  Basis Set: AUG-CC-PVTZ
    Blend: AUG-CC-PVTZ
  Basis Set: (AUG-CC-PVTZ AUX)
    Blend: AUG-CC-PVTZ-JKFIT

    Orbital Energies [Eh]
    ---------------------

    Doubly Occupied:

       1A    -20.644190     2A    -20.622259     3A    -20.592117
       4A    -20.570924     5A    -20.555250     6A    -11.407922
       7A    -11.397525     8A    -11.317375     9A    -11.262966
      10A     -1.515126    11A     -1.465933    12A     -1.425181
      13A     -1.376447    14A     -1.362015    15A     -1.076865
      16A     -0.948989    17A     -0.840497    18A     -0.804265
      19A     -0.759440    20A     -0.745581    21A     -0.710610
      22A     -0.701203    23A     -0.671854    24A     -0.659843
      25A     -0.654322    26A     -0.630350    27A     -0.597435
      28A     -0.587721    29A     -0.554449    30A     -0.553214
      31A     -0.534651    32A     -0.486481    33A     -0.473005
      34A     -0.464933    35A     -0.452543

  @DF-RHF Final Energy:  -529.51633929853006

   => Energetics <=

    Nuclear Repulsion Energy =            464.1091051271684478
    One-Electron Energy =               -1648.4039272528414131
    Two-Electron Energy =                 654.7784828271428523
    Total Energy =                       -529.5163392985300561
  Basis Set: (AUG-CC-PVTZ AUX)
    Blend: AUG-CC-PVTZ-RI
    Molecular point group: c1

    Geometry (in Angstrom), charge = 0, multiplicity = 1:

       Center              X                  Y                   Z               Mass
    ------------   -----------------  -----------------  -----------------  -----------------
         O            0.270004367604     1.615463475919     0.331423797427    15.994914619570
         O            2.183648367604    -1.421539524081     0.207132797427    15.994914619570
         O           -2.811898632396    -0.063776524081    -1.007643202573    15.994914619570
         O            2.645675367604     0.679911475919    -0.520051202573    15.994914619570
         O           -2.255302632396    -0.236854524081     1.183177797427    15.994914619570
         C            0.464554367604     0.217418475919     0.403783797427    12.000000000000
         C           -0.535293632396    -0.505182524081    -0.499276202573    12.000000000000
         C            1.965234267604    -0.113710124081    -0.049439602573    12.000000000000
         C           -1.932737632396    -0.249359524081     0.008684797427    12.000000000000
         H            0.305332367604    -0.108076524081     1.437931797427     1.007825032230
         H           -0.358683632396    -1.586864524081    -0.486472202573     1.007825032230
         H           -0.439554632396    -0.146099524081    -1.527258202573     1.007825032230
         H            1.019427367604     1.965863475919    -0.189600202573     1.007825032230
         H            3.102137367604    -1.546638524081    -0.111813202573     1.007825032230
         H           -3.683186632396     0.074011475919    -0.580071202573     1.007825032230

  Basis Set: AUG-CC-PVTZ
    Blend: AUG-CC-PVTZ
  Basis Set: (AUG-CC-PVTZ AUX)
    Blend: AUG-CC-PVTZ-JKFIT
	 Reference Energy          =    -529.5163392985300561 [Eh]
	 Singles Energy            =      -0.0000000000000000 [Eh]
	 Same-Spin Energy          =      -0.5038764498184380 [Eh]
	 Opposite-Spin Energy      =      -1.5032102754104284 [Eh]
	 Correlation Energy        =      -2.0070867252288664 [Eh]
	 Total Energy              =    -531.5234260237589297 [Eh]

	 ================> DF-SCS-MP2 Energies <==================
	-----------------------------------------------------------
	 SCS Same-Spin Scale       =       0.3333333333333333 [-]
	 SCS Opposite-Spin Scale   =       1.2000000000000000 [-]
	 SCS Same-Spin Energy      =      -0.1679588166061460 [Eh]
	 SCS Opposite-Spin Energy  =      -1.8038523304925140 [Eh]
	 SCS Correlation Energy    =      -1.9718111470986601 [Eh]
	 SCS Total Energy          =    -531.4881504456286621 [Eh]
	-----------------------------------------------------------

  Dipole Moment: [D]
     X:     1.3926      Y:    -2.0369      Z:    -1.7613     Total:     3.0315

*** Psi4 exiting successfully. Buy a developer a beer!
