                               Psi4 1.3.2 release

  ==> Input File <==

--------------------------------------------------------------------------
#psi4
#
memory 32 gb

molecule  {
0 1
  O        0.1852754     1.6111612     0.3695378
  O        2.1914470    -1.4110830     0.2143760
  O       -2.8041000    -0.0533200    -1.0004000
  O        2.6534740     0.6903680    -0.5128080
  O       -2.2475040    -0.2263980     1.1904210
  C        0.4723530     0.2278750     0.4110270
  C       -0.5274950    -0.4947260    -0.4920330
  C        1.8865440    -0.1140510    -0.0062910
  C       -1.9249390    -0.2389030     0.0159280
  H        0.3131310    -0.0976200     1.4451750
  H       -0.3508850    -1.5764080    -0.4792290
  H       -0.4317560    -0.1356430    -1.5200150
  H        1.0272260     1.9763200    -0.1823570
  H        3.1099360    -1.5361820    -0.1045700
  H       -3.6753880     0.0844680    -0.5728280
units angstrom
no_reorient  #important for SAPT in psi4, default
symmetry c1  #important for SAPT in psi4, default
}

set PROPERTIES_ORIGIN ["COM"]
properties('MP2/aug-cc-pvtz', properties = ['dipole'])
--------------------------------------------------------------------------

    Molecular point group: c1
  Charge       = 0
  Multiplicity = 1
  Basis Set: AUG-CC-PVTZ
    Blend: AUG-CC-PVTZ
  Basis Set: (AUG-CC-PVTZ AUX)
    Blend: AUG-CC-PVTZ-JKFIT

    Orbital Energies [Eh]
    ---------------------

    Doubly Occupied:

       1A    -20.647031     2A    -20.624457     3A    -20.585090
       4A    -20.584361     5A    -20.557553     6A    -11.419094
       7A    -11.400485     8A    -11.321802     9A    -11.268062
      10A     -1.493047    11A     -1.468182    12A     -1.394941
      13A     -1.368250    14A     -1.361592    15A     -1.085325
      16A     -0.970728    17A     -0.843955    18A     -0.805584
      19A     -0.757012    20A     -0.737404    21A     -0.712018
      22A     -0.699691    23A     -0.671937    24A     -0.652379
      25A     -0.639693    26A     -0.624919    27A     -0.596401
      28A     -0.589018    29A     -0.557869    30A     -0.545719
      31A     -0.514056    32A     -0.491004    33A     -0.484144
      34A     -0.467203    35A     -0.460956

  @DF-RHF Final Energy:  -529.50918660625405

   => Energetics <=

    Nuclear Repulsion Energy =            464.0992840925451901
    One-Electron Energy =               -1648.4150166530182560
    Two-Electron Energy =                 654.8065459542189046
    Total Energy =                       -529.5091866062540475
  Basis Set: (AUG-CC-PVTZ AUX)
    Blend: AUG-CC-PVTZ-RI
    Molecular point group: c1

    Geometry (in Angstrom), charge = 0, multiplicity = 1:

       Center              X                  Y                   Z               Mass
    ------------   -----------------  -----------------  -----------------  -----------------
         O            0.196263584827     1.603432853729     0.355395402526    15.994914619570
         O            2.202435184827    -1.418811346271     0.200233602526    15.994914619570
         O           -2.793111815173    -0.061048346271    -1.014542397474    15.994914619570
         O            2.664462184827     0.682639653729    -0.526950397474    15.994914619570
         O           -2.236515815173    -0.234126346271     1.176278602526    15.994914619570
         C            0.483341184827     0.220146653729     0.396884602526    12.000000000000
         C           -0.516506815173    -0.502454346271    -0.506175397474    12.000000000000
         C            1.897532184827    -0.121779346271    -0.020433397474    12.000000000000
         C           -1.913950815173    -0.246631346271     0.001785602526    12.000000000000
         H            0.324119184827    -0.105348346271     1.431032602526     1.007825032230
         H           -0.339896815173    -1.584136346271    -0.493371397474     1.007825032230
         H           -0.420767815173    -0.143371346271    -1.534157397474     1.007825032230
         H            1.038214184827     1.968591653729    -0.196499397474     1.007825032230
         H            3.120924184827    -1.543910346271    -0.118712397474     1.007825032230
         H           -3.664399815173     0.076739653729    -0.586970397474     1.007825032230

  Basis Set: AUG-CC-PVTZ
    Blend: AUG-CC-PVTZ
  Basis Set: (AUG-CC-PVTZ AUX)
    Blend: AUG-CC-PVTZ-JKFIT
	 Reference Energy          =    -529.5091866062540475 [Eh]
	 Singles Energy            =      -0.0000000000000000 [Eh]
	 Same-Spin Energy          =      -0.5070365917635287 [Eh]
	 Opposite-Spin Energy      =      -1.5099335753034369 [Eh]
	 Correlation Energy        =      -2.0169701670669653 [Eh]
	 Total Energy              =    -531.5261567733209631 [Eh]

	 ================> DF-SCS-MP2 Energies <==================
	-----------------------------------------------------------
	 SCS Same-Spin Scale       =       0.3333333333333333 [-]
	 SCS Opposite-Spin Scale   =       1.2000000000000000 [-]
	 SCS Same-Spin Energy      =      -0.1690121972545096 [Eh]
	 SCS Opposite-Spin Energy  =      -1.8119202903641241 [Eh]
	 SCS Correlation Energy    =      -1.9809324876186336 [Eh]
	 SCS Total Energy          =    -531.4901190938726359 [Eh]
	-----------------------------------------------------------

  Dipole Moment: [D]
     X:     1.0491      Y:    -2.1430      Z:    -1.6091     Total:     2.8779

*** Psi4 exiting successfully. Buy a developer a beer!
