                               Psi4 1.4a3.dev225

  ==> Input File <==

--------------------------------------------------------------------------
#psi4
#
memory 32 gb

molecule  {
0 1
  O        0.2776560     1.6256810     0.3396990
  O        2.1917380    -1.4109440     0.2140340
  O       -2.8039560    -0.0525170    -1.0004960
  O        2.6531900     0.6906990    -0.5129330
  O       -2.2475620    -0.2274030     1.1902310
  C        0.4723300     0.2276130     0.4112310
  C       -0.5274300    -0.4946180    -0.4922450
  C        1.8865320    -0.1139530    -0.0063600
  C       -1.9248990    -0.2390210     0.0157560
  H        0.3131550    -0.0984550     1.4451980
  H       -0.3508110    -1.5763050    -0.4798880
  H       -0.4316230    -0.1350800    -1.5200620
  H        1.0266390     1.9763480    -0.1817870
  H        3.0914334    -1.5332939    -0.0986489
  H       -3.6752580     0.0850810    -0.5728850
units angstrom
no_reorient  #important for SAPT in psi4, default
symmetry c1  #important for SAPT in psi4, default
}

set PROPERTIES_ORIGIN ["COM"]
properties('MP2/aug-cc-pvtz', properties = ['dipole'])
--------------------------------------------------------------------------

    Molecular point group: c1
  Charge       = 0
  Multiplicity = 1
  Basis Set: AUG-CC-PVTZ
    Blend: AUG-CC-PVTZ
  Basis Set: (AUG-CC-PVTZ AUX)
    Blend: AUG-CC-PVTZ-JKFIT

    Orbital Energies [Eh]
    ---------------------

    Doubly Occupied:

       1A    -20.643593     2A    -20.625858     3A    -20.582338
       4A    -20.575656     5A    -20.559450     6A    -11.416377
       7A    -11.402105     8A    -11.323895     9A    -11.269964
      10A     -1.494101    11A     -1.469729    12A     -1.399509
      13A     -1.373686    14A     -1.365696    15A     -1.090251
      16A     -0.972739    17A     -0.848620    18A     -0.811701
      19A     -0.759916    20A     -0.737870    21A     -0.714200
      22A     -0.703070    23A     -0.672920    24A     -0.652667
      25A     -0.648706    26A     -0.627984    27A     -0.600586
      28A     -0.590352    29A     -0.558681    30A     -0.548212
      31A     -0.511719    32A     -0.491501    33A     -0.484289
      34A     -0.470981    35A     -0.461979

  @DF-RHF Final Energy:  -529.52440667941266

   => Energetics <=

    Nuclear Repulsion Energy =            464.4641926521829305
    One-Electron Energy =               -1649.0553955433447300
    Two-Electron Energy =                 655.0667962117491925
    Total Energy =                       -529.5244066794126638
  Basis Set: (AUG-CC-PVTZ AUX)
    Blend: AUG-CC-PVTZ-RI
    Molecular point group: c1

    Geometry (in Angstrom), charge = 0, multiplicity = 1:

       Center              X                  Y                   Z               Mass
    ------------   -----------------  -----------------  -----------------  -----------------
         O            0.277742412120     1.616178103004     0.329186654733    15.994914619570
         O            2.191824412120    -1.420446896996     0.203521654733    15.994914619570
         O           -2.803869587880    -0.062019896996    -1.011008345267    15.994914619570
         O            2.653276412120     0.681196103004    -0.523445345267    15.994914619570
         O           -2.247475587880    -0.236905896996     1.179718654733    15.994914619570
         C            0.472416412120     0.218110103004     0.400718654733    12.000000000000
         C           -0.527343587880    -0.504120896996    -0.502757345267    12.000000000000
         C            1.886618412120    -0.123455896996    -0.016872345267    12.000000000000
         C           -1.924812587880    -0.248523896996     0.005243654733    12.000000000000
         H            0.313241412120    -0.107957896996     1.434685654733     1.007825032230
         H           -0.350724587880    -1.585807896996    -0.490400345267     1.007825032230
         H           -0.431536587880    -0.144582896996    -1.530574345267     1.007825032230
         H            1.026725412120     1.966845103004    -0.192299345267     1.007825032230
         H            3.091519812120    -1.542796796996    -0.109161245267     1.007825032230
         H           -3.675171587880     0.075578103004    -0.583397345267     1.007825032230

  Basis Set: AUG-CC-PVTZ
    Blend: AUG-CC-PVTZ
  Basis Set: (AUG-CC-PVTZ AUX)
    Blend: AUG-CC-PVTZ-JKFIT
	 Reference Energy          =    -529.5244066794126638 [Eh]
	 Singles Energy            =      -0.0000000000000000 [Eh]
	 Same-Spin Energy          =      -0.5051851306811274 [Eh]
	 Opposite-Spin Energy      =      -1.5056093138554978 [Eh]
	 Correlation Energy        =      -2.0107944445366250 [Eh]
	 Total Energy              =    -531.5352011239492640 [Eh]

	 ================> DF-SCS-MP2 Energies <==================
	-----------------------------------------------------------
	 SCS Same-Spin Scale       =       0.3333333333333333 [-]
	 SCS Opposite-Spin Scale   =       1.2000000000000000 [-]
	 SCS Same-Spin Energy      =      -0.1683950435603758 [Eh]
	 SCS Opposite-Spin Energy  =      -1.8067311766265972 [Eh]
	 SCS Correlation Energy    =      -1.9751262201869730 [Eh]
	 SCS Total Energy          =    -531.4995328995996715 [Eh]
	-----------------------------------------------------------

  Dipole Moment: [D]
     X:     0.8242      Y:    -2.1702      Z:    -1.5827     Total:     2.8096

*** Psi4 exiting successfully. Buy a developer a beer!
