                               Psi4 1.3.2 release

  ==> Input File <==

--------------------------------------------------------------------------
#psi4
#
memory 32 gb

molecule  {
0 1
  O        0.2778030     1.6259200     0.3386670
  O        2.1914470    -1.4110830     0.2143760
  O       -2.8041000    -0.0533200    -1.0004000
  O        2.6683806     0.6751703    -0.5139250
  O       -2.2475040    -0.2263980     1.1904210
  C        0.4723530     0.2278750     0.4110270
  C       -0.5274950    -0.4947260    -0.4920330
  C        1.8865440    -0.1140510    -0.0062910
  C       -1.9249390    -0.2389030     0.0159280
  H        0.3131310    -0.0976200     1.4451750
  H       -0.3508850    -1.5764080    -0.4792290
  H       -0.4317560    -0.1356430    -1.5200150
  H        1.0272260     1.9763200    -0.1823570
  H        3.1099360    -1.5361820    -0.1045700
  H       -3.6753880     0.0844680    -0.5728280
units angstrom
no_reorient  #important for SAPT in psi4, default
symmetry c1  #important for SAPT in psi4, default
}

set PROPERTIES_ORIGIN ["COM"]
properties('MP2/aug-cc-pvtz', properties = ['dipole'])
--------------------------------------------------------------------------

    Molecular point group: c1
  Charge       = 0
  Multiplicity = 1
  Basis Set: AUG-CC-PVTZ
    Blend: AUG-CC-PVTZ
  Basis Set: (AUG-CC-PVTZ AUX)
    Blend: AUG-CC-PVTZ-JKFIT

    Orbital Energies [Eh]
    ---------------------

    Doubly Occupied:

       1A    -20.642989     2A    -20.626100     3A    -20.581444
       4A    -20.576638     5A    -20.559743     6A    -11.415676
       7A    -11.402405     8A    -11.324906     9A    -11.270312
      10A     -1.490900    11A     -1.469985    12A     -1.396919
      13A     -1.373412    14A     -1.365981    15A     -1.090455
      16A     -0.971898    17A     -0.846145    18A     -0.811347
      19A     -0.758799    20A     -0.735349    21A     -0.714400
      22A     -0.703067    23A     -0.672884    24A     -0.651582
      25A     -0.647886    26A     -0.627734    27A     -0.600749
      28A     -0.590432    29A     -0.559052    30A     -0.548381
      31A     -0.510150    32A     -0.491522    33A     -0.484200
      34A     -0.471610    35A     -0.462292

  @DF-RHF Final Energy:  -529.52356806303055

   => Energetics <=

    Nuclear Repulsion Energy =            464.1920906715138813
    One-Electron Energy =               -1648.5366308977174867
    Two-Electron Energy =                 654.8209721631731099
    Total Energy =                       -529.5235680630305524
  Basis Set: (AUG-CC-PVTZ AUX)
    Blend: AUG-CC-PVTZ-RI
    Molecular point group: c1

    Geometry (in Angstrom), charge = 0, multiplicity = 1:

       Center              X                  Y                   Z               Mass
    ------------   -----------------  -----------------  -----------------  -----------------
         O            0.275969357302     1.618244034629     0.328342214185    15.994914619570
         O            2.189613357302    -1.418758965371     0.204051214185    15.994914619570
         O           -2.805933642698    -0.060995965371    -1.010724785815    15.994914619570
         O            2.666546957302     0.667494334629    -0.524249785815    15.994914619570
         O           -2.249337642698    -0.234073965371     1.180096214185    15.994914619570
         C            0.470519357302     0.220199034629     0.400702214185    12.000000000000
         C           -0.529328642698    -0.502401965371    -0.502357785815    12.000000000000
         C            1.884710357302    -0.121726965371    -0.016615785815    12.000000000000
         C           -1.926772642698    -0.246578965371     0.005603214185    12.000000000000
         H            0.311297357302    -0.105295965371     1.434850214185     1.007825032230
         H           -0.352718642698    -1.584083965371    -0.489553785815     1.007825032230
         H           -0.433589642698    -0.143318965371    -1.530339785815     1.007825032230
         H            1.025392357302     1.968644034629    -0.192681785815     1.007825032230
         H            3.108102357302    -1.543857965371    -0.114894785815     1.007825032230
         H           -3.677221642698     0.076792034629    -0.583152785815     1.007825032230

  Basis Set: AUG-CC-PVTZ
    Blend: AUG-CC-PVTZ
  Basis Set: (AUG-CC-PVTZ AUX)
    Blend: AUG-CC-PVTZ-JKFIT
	 Reference Energy          =    -529.5235680630305524 [Eh]
	 Singles Energy            =      -0.0000000000000000 [Eh]
	 Same-Spin Energy          =      -0.5053674193252857 [Eh]
	 Opposite-Spin Energy      =      -1.5060963579705002 [Eh]
	 Correlation Energy        =      -2.0114637772957860 [Eh]
	 Total Energy              =    -531.5350318403263827 [Eh]

	 ================> DF-SCS-MP2 Energies <==================
	-----------------------------------------------------------
	 SCS Same-Spin Scale       =       0.3333333333333333 [-]
	 SCS Opposite-Spin Scale   =       1.2000000000000000 [-]
	 SCS Same-Spin Energy      =      -0.1684558064417619 [Eh]
	 SCS Opposite-Spin Energy  =      -1.8073156295646002 [Eh]
	 SCS Correlation Energy    =      -1.9757714360063621 [Eh]
	 SCS Total Energy          =    -531.4993394990368643 [Eh]
	-----------------------------------------------------------

  Dipole Moment: [D]
     X:     0.7888      Y:    -2.1417      Z:    -1.5813     Total:     2.7766

*** Psi4 exiting successfully. Buy a developer a beer!
