                               Psi4 1.3.2 release

  ==> Input File <==

--------------------------------------------------------------------------
#psi4
#
memory 32 gb

molecule  {
0 1
  O        0.2778030     1.6259200     0.3386670
  O        2.1914470    -1.4110830     0.2143760
  O       -2.8041000    -0.0533200    -1.0004000
  O        2.6534740     0.6903680    -0.5128080
  O       -2.2475040    -0.2263980     1.1904210
  C        0.5135270     0.2330948     0.3843579
  C       -0.5274950    -0.4947260    -0.4920330
  C        1.8865440    -0.1140510    -0.0062910
  C       -1.9249390    -0.2389030     0.0159280
  H        0.3131310    -0.0976200     1.4451750
  H       -0.3508850    -1.5764080    -0.4792290
  H       -0.4317560    -0.1356430    -1.5200150
  H        1.0272260     1.9763200    -0.1823570
  H        3.1099360    -1.5361820    -0.1045700
  H       -3.6753880     0.0844680    -0.5728280
units angstrom
no_reorient  #important for SAPT in psi4, default
symmetry c1  #important for SAPT in psi4, default
}

set PROPERTIES_ORIGIN ["COM"]
properties('MP2/aug-cc-pvtz', properties = ['dipole'])
--------------------------------------------------------------------------

    Molecular point group: c1
  Charge       = 0
  Multiplicity = 1
  Basis Set: AUG-CC-PVTZ
    Blend: AUG-CC-PVTZ
  Basis Set: (AUG-CC-PVTZ AUX)
    Blend: AUG-CC-PVTZ-JKFIT

    Orbital Energies [Eh]
    ---------------------

    Doubly Occupied:

       1A    -20.645390     2A    -20.626089     3A    -20.581764
       4A    -20.577488     5A    -20.559347     6A    -11.415598
       7A    -11.402484     8A    -11.323570     9A    -11.271052
      10A     -1.492779    11A     -1.469719    12A     -1.399985
      13A     -1.373890    14A     -1.365673    15A     -1.089427
      16A     -0.979459    17A     -0.845468    18A     -0.809116
      19A     -0.763462    20A     -0.736646    21A     -0.713927
      22A     -0.703099    23A     -0.671346    24A     -0.651972
      25A     -0.646499    26A     -0.626076    27A     -0.597842
      28A     -0.591026    29A     -0.559646    30A     -0.550286
      31A     -0.511465    32A     -0.492612    33A     -0.485568
      34A     -0.466260    35A     -0.462608

  @DF-RHF Final Energy:  -529.52023056297685

   => Energetics <=

    Nuclear Repulsion Energy =            464.5669140381707507
    One-Electron Energy =               -1649.2570110694350660
    Two-Electron Energy =                 655.1698664682874096
    Total Energy =                       -529.5202305629768489
  Basis Set: (AUG-CC-PVTZ AUX)
    Blend: AUG-CC-PVTZ-RI
    Molecular point group: c1

    Geometry (in Angstrom), charge = 0, multiplicity = 1:

       Center              X                  Y                   Z               Mass
    ------------   -----------------  -----------------  -----------------  -----------------
         O            0.274061766644     1.615962882271     0.330596798918    15.994914619570
         O            2.187705766644    -1.421040117729     0.206305798918    15.994914619570
         O           -2.807841233356    -0.063277117729    -1.008470201082    15.994914619570
         O            2.649732766644     0.680410882271    -0.520878201082    15.994914619570
         O           -2.251245233356    -0.236355117729     1.182350798918    15.994914619570
         C            0.509785766644     0.223137682271     0.376287698918    12.000000000000
         C           -0.531236233356    -0.504683117729    -0.500103201082    12.000000000000
         C            1.882802766644    -0.124008117729    -0.014361201082    12.000000000000
         C           -1.928680233356    -0.248860117729     0.007857798918    12.000000000000
         H            0.309389766644    -0.107577117729     1.437104798918     1.007825032230
         H           -0.354626233356    -1.586365117729    -0.487299201082     1.007825032230
         H           -0.435497233356    -0.145600117729    -1.528085201082     1.007825032230
         H            1.023484766644     1.966362882271    -0.190427201082     1.007825032230
         H            3.106194766644    -1.546139117729    -0.112640201082     1.007825032230
         H           -3.679129233356     0.074510882271    -0.580898201082     1.007825032230

  Basis Set: AUG-CC-PVTZ
    Blend: AUG-CC-PVTZ
  Basis Set: (AUG-CC-PVTZ AUX)
    Blend: AUG-CC-PVTZ-JKFIT
	 Reference Energy          =    -529.5202305629768489 [Eh]
	 Singles Energy            =      -0.0000000000000000 [Eh]
	 Same-Spin Energy          =      -0.5057968396217725 [Eh]
	 Opposite-Spin Energy      =      -1.5067985248898994 [Eh]
	 Correlation Energy        =      -2.0125953645116716 [Eh]
	 Total Energy              =    -531.5328259274884886 [Eh]

	 ================> DF-SCS-MP2 Energies <==================
	-----------------------------------------------------------
	 SCS Same-Spin Scale       =       0.3333333333333333 [-]
	 SCS Opposite-Spin Scale   =       1.2000000000000000 [-]
	 SCS Same-Spin Energy      =      -0.1685989465405908 [Eh]
	 SCS Opposite-Spin Energy  =      -1.8081582298678791 [Eh]
	 SCS Correlation Energy    =      -1.9767571764084699 [Eh]
	 SCS Total Energy          =    -531.4969877393853039 [Eh]
	-----------------------------------------------------------

  Dipole Moment: [D]
     X:     0.8324      Y:    -2.1492      Z:    -1.5943     Total:     2.8025

*** Psi4 exiting successfully. Buy a developer a beer!
