                               Psi4 1.3.2 release

  ==> Input File <==

--------------------------------------------------------------------------
#psi4
#
memory 32 gb

molecule  {
0 1
  O        0.3712784     1.6338677     0.3081487
  O        2.1914470    -1.4110830     0.2143760
  O       -2.8041000    -0.0533200    -1.0004000
  O        2.6534740     0.6903680    -0.5128080
  O       -2.2475040    -0.2263980     1.1904210
  C        0.4723530     0.2278750     0.4110270
  C       -0.5274950    -0.4947260    -0.4920330
  C        1.8865440    -0.1140510    -0.0062910
  C       -1.9249390    -0.2389030     0.0159280
  H        0.3131310    -0.0976200     1.4451750
  H       -0.3508850    -1.5764080    -0.4792290
  H       -0.4317560    -0.1356430    -1.5200150
  H        1.0272260     1.9763200    -0.1823570
  H        3.1099360    -1.5361820    -0.1045700
  H       -3.6753880     0.0844680    -0.5728280
units angstrom
no_reorient  #important for SAPT in psi4, default
symmetry c1  #important for SAPT in psi4, default
}

set PROPERTIES_ORIGIN ["COM"]
properties('MP2/aug-cc-pvtz', properties = ['dipole'])
--------------------------------------------------------------------------

    Molecular point group: c1
  Charge       = 0
  Multiplicity = 1
  Basis Set: AUG-CC-PVTZ
    Blend: AUG-CC-PVTZ
  Basis Set: (AUG-CC-PVTZ AUX)
    Blend: AUG-CC-PVTZ-JKFIT

    Orbital Energies [Eh]
    ---------------------

    Doubly Occupied:

       1A    -20.642481     2A    -20.627133     3A    -20.578635
       4A    -20.564556     5A    -20.561150     6A    -11.412762
       7A    -11.403551     8A    -11.326666     9A    -11.271767
      10A     -1.489410    11A     -1.471132    12A     -1.408224
      13A     -1.376164    14A     -1.367834    15A     -1.095309
      16A     -0.973613    17A     -0.849961    18A     -0.818722
      19A     -0.759835    20A     -0.735635    21A     -0.716325
      22A     -0.706131    23A     -0.673464    24A     -0.661098
      25A     -0.649865    26A     -0.627570    27A     -0.603149
      28A     -0.591308    29A     -0.561604    30A     -0.542206
      31A     -0.508126    32A     -0.492310    33A     -0.483089
      34A     -0.474471    35A     -0.462712

  @DF-RHF Final Energy:  -529.51928370605265

   => Energetics <=

    Nuclear Repulsion Energy =            464.7734565392827903
    One-Electron Energy =               -1649.6095478376391839
    Two-Electron Energy =                 655.3168075923038032
    Total Energy =                       -529.5192837060526472
  Basis Set: (AUG-CC-PVTZ AUX)
    Blend: AUG-CC-PVTZ-RI
    Molecular point group: c1

    Geometry (in Angstrom), charge = 0, multiplicity = 1:

       Center              X                  Y                   Z               Mass
    ------------   -----------------  -----------------  -----------------  -----------------
         O            0.360067895908     1.623429426847     0.301332837764    15.994914619570
         O            2.180236495908    -1.421521273153     0.207560137764    15.994914619570
         O           -2.815310504092    -0.063758273153    -1.007215862236    15.994914619570
         O            2.642263495908     0.679929726847    -0.519623862236    15.994914619570
         O           -2.258714504092    -0.236836273153     1.183605137764    15.994914619570
         C            0.461142495908     0.217436726847     0.404211137764    12.000000000000
         C           -0.538705504092    -0.505164273153    -0.498848862236    12.000000000000
         C            1.875333495908    -0.124489273153    -0.013106862236    12.000000000000
         C           -1.936149504092    -0.249341273153     0.009112137764    12.000000000000
         H            0.301920495908    -0.108058273153     1.438359137764     1.007825032230
         H           -0.362095504092    -1.586846273153    -0.486044862236     1.007825032230
         H           -0.442966504092    -0.146081273153    -1.526830862236     1.007825032230
         H            1.016015495908     1.965881726847    -0.189172862236     1.007825032230
         H            3.098725495908    -1.546620273153    -0.111385862236     1.007825032230
         H           -3.686598504092     0.074029726847    -0.579643862236     1.007825032230

  Basis Set: AUG-CC-PVTZ
    Blend: AUG-CC-PVTZ
  Basis Set: (AUG-CC-PVTZ AUX)
    Blend: AUG-CC-PVTZ-JKFIT
	 Reference Energy          =    -529.5192837060526472 [Eh]
	 Singles Energy            =      -0.0000000000000000 [Eh]
	 Same-Spin Energy          =      -0.5040920832705478 [Eh]
	 Opposite-Spin Energy      =      -1.5031560510303805 [Eh]
	 Correlation Energy        =      -2.0072481343009283 [Eh]
	 Total Energy              =    -531.5265318403535275 [Eh]

	 ================> DF-SCS-MP2 Energies <==================
	-----------------------------------------------------------
	 SCS Same-Spin Scale       =       0.3333333333333333 [-]
	 SCS Opposite-Spin Scale   =       1.2000000000000000 [-]
	 SCS Same-Spin Energy      =      -0.1680306944235159 [Eh]
	 SCS Opposite-Spin Energy  =      -1.8037872612364565 [Eh]
	 SCS Correlation Energy    =      -1.9718179556599724 [Eh]
	 SCS Total Energy          =    -531.4911016617126052 [Eh]
	-----------------------------------------------------------

  Dipole Moment: [D]
     X:     0.6371      Y:    -2.2271      Z:    -1.5633     Total:     2.7946

*** Psi4 exiting successfully. Buy a developer a beer!
