                               Psi4 1.3.2 release

  ==> Input File <==

--------------------------------------------------------------------------
#psi4
#
memory 32 gb

molecule  {
0 1
  O        0.2778030     1.6259200     0.3386670
  O        2.1914470    -1.4110830     0.2143760
  O       -2.8041000    -0.0533200    -1.0004000
  O        2.6534740     0.6903680    -0.5128080
  O       -2.2475040    -0.2263980     1.1904210
  C        0.4861180     0.1289593     0.4161467
  C       -0.5274950    -0.4947260    -0.4920330
  C        1.8865440    -0.1140510    -0.0062910
  C       -1.9249390    -0.2389030     0.0159280
  H        0.3131310    -0.0976200     1.4451750
  H       -0.3508850    -1.5764080    -0.4792290
  H       -0.4317560    -0.1356430    -1.5200150
  H        1.0272260     1.9763200    -0.1823570
  H        3.1099360    -1.5361820    -0.1045700
  H       -3.6753880     0.0844680    -0.5728280
units angstrom
no_reorient  #important for SAPT in psi4, default
symmetry c1  #important for SAPT in psi4, default
}

set PROPERTIES_ORIGIN ["COM"]
properties('MP2/aug-cc-pvtz', properties = ['dipole'])
--------------------------------------------------------------------------

    Molecular point group: c1
  Charge       = 0
  Multiplicity = 1
  Basis Set: AUG-CC-PVTZ
    Blend: AUG-CC-PVTZ
  Basis Set: (AUG-CC-PVTZ AUX)
    Blend: AUG-CC-PVTZ-JKFIT

    Orbital Energies [Eh]
    ---------------------

    Doubly Occupied:

       1A    -20.645230     2A    -20.627382     3A    -20.585497
       4A    -20.565270     5A    -20.560822     6A    -11.419382
       7A    -11.404626     8A    -11.323878     9A    -11.273319
      10A     -1.493791    11A     -1.471148    12A     -1.392634
      13A     -1.368398    14A     -1.342761    15A     -1.101745
      16A     -0.981980    17A     -0.849506    18A     -0.810244
      19A     -0.755005    20A     -0.738437    21A     -0.715240
      22A     -0.701049    23A     -0.674032    24A     -0.654749
      25A     -0.639867    26A     -0.623609    27A     -0.597360
      28A     -0.591660    29A     -0.558543    30A     -0.533086
      31A     -0.512393    32A     -0.494705    33A     -0.488613
      34A     -0.473109    35A     -0.465140

  @DF-RHF Final Energy:  -529.51176360159207

   => Energetics <=

    Nuclear Repulsion Energy =            464.0550952916844381
    One-Electron Energy =               -1648.2652980677746655
    Two-Electron Energy =                 654.6984391744981622
    Total Energy =                       -529.5117636015920652
  Basis Set: (AUG-CC-PVTZ AUX)
    Blend: AUG-CC-PVTZ-RI
    Molecular point group: c1

    Geometry (in Angstrom), charge = 0, multiplicity = 1:

       Center              X                  Y                   Z               Mass
    ------------   -----------------  -----------------  -----------------  -----------------
         O            0.276515909770     1.625286951789     0.327750497886    15.994914619570
         O            2.190159909770    -1.411716048211     0.203459497886    15.994914619570
         O           -2.805387090230    -0.053953048211    -1.011316502114    15.994914619570
         O            2.652186909770     0.689734951789    -0.523724502114    15.994914619570
         O           -2.248791090230    -0.227031048211     1.179504497886    15.994914619570
         C            0.484830909770     0.128326251789     0.405230197886    12.000000000000
         C           -0.528782090230    -0.495359048211    -0.502949502114    12.000000000000
         C            1.885256909770    -0.114684048211    -0.017207502114    12.000000000000
         C           -1.926226090230    -0.239536048211     0.005011497886    12.000000000000
         H            0.311843909770    -0.098253048211     1.434258497886     1.007825032230
         H           -0.352172090230    -1.577041048211    -0.490145502114     1.007825032230
         H           -0.433043090230    -0.136276048211    -1.530931502114     1.007825032230
         H            1.025938909770     1.975686951789    -0.193273502114     1.007825032230
         H            3.108648909770    -1.536815048211    -0.115486502114     1.007825032230
         H           -3.676675090230     0.083834951789    -0.583744502114     1.007825032230

  Basis Set: AUG-CC-PVTZ
    Blend: AUG-CC-PVTZ
  Basis Set: (AUG-CC-PVTZ AUX)
    Blend: AUG-CC-PVTZ-JKFIT
	 Reference Energy          =    -529.5117636015920652 [Eh]
	 Singles Energy            =      -0.0000000000000000 [Eh]
	 Same-Spin Energy          =      -0.5061669629865833 [Eh]
	 Opposite-Spin Energy      =      -1.5090310977687693 [Eh]
	 Correlation Energy        =      -2.0151980607553526 [Eh]
	 Total Energy              =    -531.5269616623473894 [Eh]

	 ================> DF-SCS-MP2 Energies <==================
	-----------------------------------------------------------
	 SCS Same-Spin Scale       =       0.3333333333333333 [-]
	 SCS Opposite-Spin Scale   =       1.2000000000000000 [-]
	 SCS Same-Spin Energy      =      -0.1687223209955278 [Eh]
	 SCS Opposite-Spin Energy  =      -1.8108373173225232 [Eh]
	 SCS Correlation Energy    =      -1.9795596383180509 [Eh]
	 SCS Total Energy          =    -531.4913232399101162 [Eh]
	-----------------------------------------------------------

  Dipole Moment: [D]
     X:     0.8408      Y:    -2.4726      Z:    -1.6100     Total:     3.0680

*** Psi4 exiting successfully. Buy a developer a beer!
