                               Psi4 1.3.2 release

  ==> Input File <==

--------------------------------------------------------------------------
#psi4
#
memory 32 gb

molecule  {
0 1
  O        0.2778030     1.6259200     0.3386670
  O        2.1914470    -1.4110830     0.2143760
  O       -2.8041000    -0.0533200    -1.0004000
  O        2.6534740     0.6903680    -0.5128080
  O       -2.2475040    -0.2263980     1.1904210
  C        0.4520845     0.2369116     0.4258429
  C       -0.5274950    -0.4947260    -0.4920330
  C        1.8865440    -0.1140510    -0.0062910
  C       -1.9249390    -0.2389030     0.0159280
  H        0.3131310    -0.0976200     1.4451750
  H       -0.3508850    -1.5764080    -0.4792290
  H       -0.4317560    -0.1356430    -1.5200150
  H        1.0272260     1.9763200    -0.1823570
  H        3.1099360    -1.5361820    -0.1045700
  H       -3.6753880     0.0844680    -0.5728280
units angstrom
no_reorient  #important for SAPT in psi4, default
symmetry c1  #important for SAPT in psi4, default
}

set PROPERTIES_ORIGIN ["COM"]
properties('MP2/aug-cc-pvtz', properties = ['dipole'])
--------------------------------------------------------------------------

    Molecular point group: c1
  Charge       = 0
  Multiplicity = 1
  Basis Set: AUG-CC-PVTZ
    Blend: AUG-CC-PVTZ
  Basis Set: (AUG-CC-PVTZ AUX)
    Blend: AUG-CC-PVTZ-JKFIT

    Orbital Energies [Eh]
    ---------------------

    Doubly Occupied:

       1A    -20.644327     2A    -20.625448     3A    -20.581470
       4A    -20.575780     5A    -20.559208     6A    -11.415434
       7A    -11.401490     8A    -11.324223     9A    -11.269091
      10A     -1.490005    11A     -1.469443    12A     -1.398925
      13A     -1.374683    14A     -1.365697    15A     -1.088580
      16A     -0.966855    17A     -0.846308    18A     -0.812309
      19A     -0.757333    20A     -0.735633    21A     -0.714053
      22A     -0.703080    23A     -0.673252    24A     -0.652142
      25A     -0.649064    26A     -0.628694    27A     -0.601816
      28A     -0.589753    29A     -0.560367    30A     -0.545273
      31A     -0.510744    32A     -0.490799    33A     -0.482114
      34A     -0.471868    35A     -0.460494

  @DF-RHF Final Energy:  -529.52333542152621

   => Energetics <=

    Nuclear Repulsion Energy =            464.2345658665930159
    One-Electron Energy =               -1648.6442910546088569
    Two-Electron Energy =                 654.8863897664895148
    Total Energy =                       -529.5233354215262125
  Basis Set: (AUG-CC-PVTZ AUX)
    Blend: AUG-CC-PVTZ-RI
    Molecular point group: c1

    Geometry (in Angstrom), charge = 0, multiplicity = 1:

       Center              X                  Y                   Z               Mass
    ------------   -----------------  -----------------  -----------------  -----------------
         O            0.279563196429     1.615621134178     0.326882320916    15.994914619570
         O            2.193207196429    -1.421381865822     0.202591320916    15.994914619570
         O           -2.802339803571    -0.063618865822    -1.012184679084    15.994914619570
         O            2.655234196429     0.680069134178    -0.524592679084    15.994914619570
         O           -2.245743803571    -0.236696865822     1.178636320916    15.994914619570
         C            0.453844696429     0.226612734178     0.414058220916    12.000000000000
         C           -0.525734803571    -0.505024865822    -0.503817679084    12.000000000000
         C            1.888304196429    -0.124349865822    -0.018075679084    12.000000000000
         C           -1.923178803571    -0.249201865822     0.004143320916    12.000000000000
         H            0.314891196429    -0.107918865822     1.433390320916     1.007825032230
         H           -0.349124803571    -1.586706865822    -0.491013679084     1.007825032230
         H           -0.429995803571    -0.145941865822    -1.531799679084     1.007825032230
         H            1.028986196429     1.966021134178    -0.194141679084     1.007825032230
         H            3.111696196429    -1.546480865822    -0.116354679084     1.007825032230
         H           -3.673627803571     0.074169134178    -0.584612679084     1.007825032230

  Basis Set: AUG-CC-PVTZ
    Blend: AUG-CC-PVTZ
  Basis Set: (AUG-CC-PVTZ AUX)
    Blend: AUG-CC-PVTZ-JKFIT
	 Reference Energy          =    -529.5233354215262125 [Eh]
	 Singles Energy            =      -0.0000000000000000 [Eh]
	 Same-Spin Energy          =      -0.5052997606176812 [Eh]
	 Opposite-Spin Energy      =      -1.5058014649143163 [Eh]
	 Correlation Energy        =      -2.0111012255319975 [Eh]
	 Total Energy              =    -531.5344366470582145 [Eh]

	 ================> DF-SCS-MP2 Energies <==================
	-----------------------------------------------------------
	 SCS Same-Spin Scale       =       0.3333333333333333 [-]
	 SCS Opposite-Spin Scale   =       1.2000000000000000 [-]
	 SCS Same-Spin Energy      =      -0.1684332535392271 [Eh]
	 SCS Opposite-Spin Energy  =      -1.8069617578971795 [Eh]
	 SCS Correlation Energy    =      -1.9753950114364065 [Eh]
	 SCS Total Energy          =    -531.4987304329625886 [Eh]
	-----------------------------------------------------------

  Dipole Moment: [D]
     X:     0.8542      Y:    -2.1594      Z:    -1.5777     Total:     2.8074

*** Psi4 exiting successfully. Buy a developer a beer!
