                               Psi4 1.3.2 release

  ==> Input File <==

--------------------------------------------------------------------------
#psi4
#
memory 32 gb

molecule  {
0 1
  O        0.2778030     1.6259200     0.3386670
  O        2.1914470    -1.4110830     0.2143760
  O       -2.8041000    -0.0533200    -1.0004000
  O        2.6383338     0.7053207    -0.5115367
  O       -2.2475040    -0.2263980     1.1904210
  C        0.4723530     0.2278750     0.4110270
  C       -0.5274950    -0.4947260    -0.4920330
  C        1.8865440    -0.1140510    -0.0062910
  C       -1.9249390    -0.2389030     0.0159280
  H        0.3131310    -0.0976200     1.4451750
  H       -0.3508850    -1.5764080    -0.4792290
  H       -0.4317560    -0.1356430    -1.5200150
  H        1.0272260     1.9763200    -0.1823570
  H        3.1099360    -1.5361820    -0.1045700
  H       -3.6753880     0.0844680    -0.5728280
units angstrom
no_reorient  #important for SAPT in psi4, default
symmetry c1  #important for SAPT in psi4, default
}

set PROPERTIES_ORIGIN ["COM"]
properties('MP2/aug-cc-pvtz', properties = ['dipole'])
--------------------------------------------------------------------------

    Molecular point group: c1
  Charge       = 0
  Multiplicity = 1
  Basis Set: AUG-CC-PVTZ
    Blend: AUG-CC-PVTZ
  Basis Set: (AUG-CC-PVTZ AUX)
    Blend: AUG-CC-PVTZ-JKFIT

    Orbital Energies [Eh]
    ---------------------

    Doubly Occupied:

       1A    -20.646585     2A    -20.625427     3A    -20.582383
       4A    -20.574355     5A    -20.558949     6A    -11.416245
       7A    -11.401577     8A    -11.322610     9A    -11.269312
      10A     -1.491388    11A     -1.469268    12A     -1.399112
      13A     -1.372654    14A     -1.365128    15A     -1.089231
      16A     -0.970999    17A     -0.846321    18A     -0.810614
      19A     -0.759071    20A     -0.737018    21A     -0.713690
      22A     -0.702484    23A     -0.672273    24A     -0.652185
      25A     -0.647971    26A     -0.627441    27A     -0.599809
      28A     -0.589931    29A     -0.557972    30A     -0.546789
      31A     -0.512066    32A     -0.491142    33A     -0.483754
      34A     -0.470047    35A     -0.461384

  @DF-RHF Final Energy:  -529.52326154725961

   => Energetics <=

    Nuclear Repulsion Energy =            464.4824496785178667
    One-Electron Energy =               -1649.1370530179510752
    Two-Electron Energy =                 655.1313417921735436
    Total Energy =                       -529.5232615472596081
  Basis Set: (AUG-CC-PVTZ AUX)
    Blend: AUG-CC-PVTZ-RI
    Molecular point group: c1

    Geometry (in Angstrom), charge = 0, multiplicity = 1:

       Center              X                  Y                   Z               Mass
    ------------   -----------------  -----------------  -----------------  -----------------
         O            0.279555318637     1.614645709063     0.328057180455    15.994914619570
         O            2.193199318637    -1.422357290937     0.203766180455    15.994914619570
         O           -2.802347681363    -0.064594290937    -1.011009819545    15.994914619570
         O            2.640086118637     0.694046409063    -0.522146519545    15.994914619570
         O           -2.245751681363    -0.237672290937     1.179811180455    15.994914619570
         C            0.474105318637     0.216600709063     0.400417180455    12.000000000000
         C           -0.525742681363    -0.506000290937    -0.502642819545    12.000000000000
         C            1.888296318637    -0.125325290937    -0.016900819545    12.000000000000
         C           -1.923186681363    -0.250177290937     0.005318180455    12.000000000000
         H            0.314883318637    -0.108894290937     1.434565180455     1.007825032230
         H           -0.349132681363    -1.587682290937    -0.489838819545     1.007825032230
         H           -0.430003681363    -0.146917290937    -1.530624819545     1.007825032230
         H            1.028978318637     1.965045709063    -0.192966819545     1.007825032230
         H            3.111688318637    -1.547456290937    -0.115179819545     1.007825032230
         H           -3.673635681363     0.073193709063    -0.583437819545     1.007825032230

  Basis Set: AUG-CC-PVTZ
    Blend: AUG-CC-PVTZ
  Basis Set: (AUG-CC-PVTZ AUX)
    Blend: AUG-CC-PVTZ-JKFIT
	 Reference Energy          =    -529.5232615472596081 [Eh]
	 Singles Energy            =      -0.0000000000000000 [Eh]
	 Same-Spin Energy          =      -0.5055193138021026 [Eh]
	 Opposite-Spin Energy      =      -1.5062923421286594 [Eh]
	 Correlation Energy        =      -2.0118116559307619 [Eh]
	 Total Energy              =    -531.5350732031903362 [Eh]

	 ================> DF-SCS-MP2 Energies <==================
	-----------------------------------------------------------
	 SCS Same-Spin Scale       =       0.3333333333333333 [-]
	 SCS Opposite-Spin Scale   =       1.2000000000000000 [-]
	 SCS Same-Spin Energy      =      -0.1685064379340342 [Eh]
	 SCS Opposite-Spin Energy  =      -1.8075508105543912 [Eh]
	 SCS Correlation Energy    =      -1.9760572484884253 [Eh]
	 SCS Total Energy          =    -531.4993187957480814 [Eh]
	-----------------------------------------------------------

  Dipole Moment: [D]
     X:     0.9112      Y:    -2.2225      Z:    -1.5938     Total:     2.8827

*** Psi4 exiting successfully. Buy a developer a beer!
