                               Psi4 1.3.2 release

  ==> Input File <==

--------------------------------------------------------------------------
#psi4
#
memory 32 gb

molecule  {
0 1
  O        0.2778030     1.6259200     0.3386670
  O        2.1914470    -1.4110830     0.2143760
  O       -2.8041000    -0.0533200    -1.0004000
  O        2.6534740     0.6903680    -0.5128080
  O       -2.2475040    -0.2263980     1.1904210
  C        0.4723530     0.2278750     0.4110270
  C       -0.5274950    -0.4947260    -0.4920330
  C        1.7597257    -0.1420703     0.0495268
  C       -1.9249390    -0.2389030     0.0159280
  H        0.3131310    -0.0976200     1.4451750
  H       -0.3508850    -1.5764080    -0.4792290
  H       -0.4317560    -0.1356430    -1.5200150
  H        1.0272260     1.9763200    -0.1823570
  H        3.1099360    -1.5361820    -0.1045700
  H       -3.6753880     0.0844680    -0.5728280
units angstrom
no_reorient  #important for SAPT in psi4, default
symmetry c1  #important for SAPT in psi4, default
}

set PROPERTIES_ORIGIN ["COM"]
properties('MP2/aug-cc-pvtz', properties = ['dipole'])
--------------------------------------------------------------------------

    Molecular point group: c1
  Charge       = 0
  Multiplicity = 1
  Basis Set: AUG-CC-PVTZ
    Blend: AUG-CC-PVTZ
  Basis Set: (AUG-CC-PVTZ AUX)
    Blend: AUG-CC-PVTZ-JKFIT

    Orbital Energies [Eh]
    ---------------------

    Doubly Occupied:

       1A    -20.648180     2A    -20.630908     3A    -20.582336
       4A    -20.565268     5A    -20.564782     6A    -11.428549
       7A    -11.408422     8A    -11.327744     9A    -11.280872
      10A     -1.477725    11A     -1.474702    12A     -1.396986
      13A     -1.371767    14A     -1.312367    15A     -1.116471
      16A     -1.004485    17A     -0.854011    18A     -0.822196
      19A     -0.774644    20A     -0.725707    21A     -0.718200
      22A     -0.707493    23A     -0.677403    24A     -0.650012
      25A     -0.646357    26A     -0.613526    27A     -0.600340
      28A     -0.585836    29A     -0.566790    30A     -0.551367
      31A     -0.495449    32A     -0.483195    33A     -0.475977
      34A     -0.472083    35A     -0.464386

  @DF-RHF Final Energy:  -529.48096672341580

   => Energetics <=

    Nuclear Repulsion Energy =            464.8918952418333674
    One-Electron Energy =               -1649.7926535440362841
    Two-Electron Energy =                 655.4197915787872262
    Total Energy =                       -529.4809667234158042
  Basis Set: (AUG-CC-PVTZ AUX)
    Blend: AUG-CC-PVTZ-RI
    Molecular point group: c1

    Geometry (in Angstrom), charge = 0, multiplicity = 1:

       Center              X                  Y                   Z               Mass
    ------------   -----------------  -----------------  -----------------  -----------------
         O            0.289103437195     1.618939040057     0.323211098654    15.994914619570
         O            2.202747437195    -1.418063959943     0.198920098654    15.994914619570
         O           -2.792799562805    -0.060300959943    -1.015855901346    15.994914619570
         O            2.664774437195     0.683387040057    -0.528263901346    15.994914619570
         O           -2.236203562805    -0.233378959943     1.174965098654    15.994914619570
         C            0.483653437195     0.220894040057     0.395571098654    12.000000000000
         C           -0.516194562805    -0.501706959943    -0.507488901346    12.000000000000
         C            1.771026137195    -0.149051259943     0.034070898654    12.000000000000
         C           -1.913638562805    -0.245883959943     0.000472098654    12.000000000000
         H            0.324431437195    -0.104600959943     1.429719098654     1.007825032230
         H           -0.339584562805    -1.583388959943    -0.494684901346     1.007825032230
         H           -0.420455562805    -0.142623959943    -1.535470901346     1.007825032230
         H            1.038526437195     1.969339040057    -0.197812901346     1.007825032230
         H            3.121236437195    -1.543162959943    -0.120025901346     1.007825032230
         H           -3.664087562805     0.077487040057    -0.588283901346     1.007825032230

  Basis Set: AUG-CC-PVTZ
    Blend: AUG-CC-PVTZ
  Basis Set: (AUG-CC-PVTZ AUX)
    Blend: AUG-CC-PVTZ-JKFIT
	 Reference Energy          =    -529.4809667234158042 [Eh]
	 Singles Energy            =      -0.0000000000000000 [Eh]
	 Same-Spin Energy          =      -0.5095248691141094 [Eh]
	 Opposite-Spin Energy      =      -1.5137132239652744 [Eh]
	 Correlation Energy        =      -2.0232380930793838 [Eh]
	 Total Energy              =    -531.5042048164951893 [Eh]

	 ================> DF-SCS-MP2 Energies <==================
	-----------------------------------------------------------
	 SCS Same-Spin Scale       =       0.3333333333333333 [-]
	 SCS Opposite-Spin Scale   =       1.2000000000000000 [-]
	 SCS Same-Spin Energy      =      -0.1698416230380365 [Eh]
	 SCS Opposite-Spin Energy  =      -1.8164558687583292 [Eh]
	 SCS Correlation Energy    =      -1.9862974917963656 [Eh]
	 SCS Total Energy          =    -531.4672642152121398 [Eh]
	-----------------------------------------------------------

  Dipole Moment: [D]
     X:     0.1250      Y:    -2.4096      Z:    -1.3565     Total:     2.7680

*** Psi4 exiting successfully. Buy a developer a beer!
