                               Psi4 1.3.2 release

  ==> Input File <==

--------------------------------------------------------------------------
#psi4
#
memory 32 gb

molecule  {
0 1
  O        0.2778030     1.6259200     0.3386670
  O        2.1914470    -1.4110830     0.2143760
  O       -2.8041000    -0.0533200    -1.0004000
  O        2.6534740     0.6903680    -0.5128080
  O       -2.2475040    -0.2263980     1.1904210
  C        0.4723530     0.2278750     0.4110270
  C       -0.5274950    -0.4947260    -0.4920330
  C        1.8908588    -0.1243857     0.0176347
  C       -1.9249390    -0.2389030     0.0159280
  H        0.3131310    -0.0976200     1.4451750
  H       -0.3508850    -1.5764080    -0.4792290
  H       -0.4317560    -0.1356430    -1.5200150
  H        1.0272260     1.9763200    -0.1823570
  H        3.1099360    -1.5361820    -0.1045700
  H       -3.6753880     0.0844680    -0.5728280
units angstrom
no_reorient  #important for SAPT in psi4, default
symmetry c1  #important for SAPT in psi4, default
}

set PROPERTIES_ORIGIN ["COM"]
properties('MP2/aug-cc-pvtz', properties = ['dipole'])
--------------------------------------------------------------------------

    Molecular point group: c1
  Charge       = 0
  Multiplicity = 1
  Basis Set: AUG-CC-PVTZ
    Blend: AUG-CC-PVTZ
  Basis Set: (AUG-CC-PVTZ AUX)
    Blend: AUG-CC-PVTZ-JKFIT

    Orbital Energies [Eh]
    ---------------------

    Doubly Occupied:

       1A    -20.649059     2A    -20.625811     3A    -20.578664
       4A    -20.575158     5A    -20.559355     6A    -11.416931
       7A    -11.402084     8A    -11.323772     9A    -11.270119
      10A     -1.494851    11A     -1.469666    12A     -1.395800
      13A     -1.369344    14A     -1.364816    15A     -1.089862
      16A     -0.972861    17A     -0.849550    18A     -0.811841
      19A     -0.759388    20A     -0.736332    21A     -0.714045
      22A     -0.702876    23A     -0.672537    24A     -0.653740
      25A     -0.647818    26A     -0.626181    27A     -0.600175
      28A     -0.590273    29A     -0.558653    30A     -0.545321
      31A     -0.506615    32A     -0.491125    33A     -0.482599
      34A     -0.470742    35A     -0.462085

  @DF-RHF Final Energy:  -529.52205882105295

   => Energetics <=

    Nuclear Repulsion Energy =            464.2350658651176332
    One-Electron Energy =               -1648.6341527850447619
    Two-Electron Energy =                 654.8770280988742343
    Total Energy =                       -529.5220588210529513
  Basis Set: (AUG-CC-PVTZ AUX)
    Blend: AUG-CC-PVTZ-RI
    Molecular point group: c1

    Geometry (in Angstrom), charge = 0, multiplicity = 1:

       Center              X                  Y                   Z               Mass
    ------------   -----------------  -----------------  -----------------  -----------------
         O            0.277362060427     1.617355598869     0.326066648946    15.994914619570
         O            2.191006060427    -1.419647401131     0.201775648946    15.994914619570
         O           -2.804540939573    -0.061884401131    -1.013000351054    15.994914619570
         O            2.653033060427     0.681803598869    -0.525408351054    15.994914619570
         O           -2.247944939573    -0.234962401131     1.177820648946    15.994914619570
         C            0.471912060427     0.219310598869     0.398426648946    12.000000000000
         C           -0.527935939573    -0.503290401131    -0.504633351054    12.000000000000
         C            1.890417860427    -0.132950101131     0.005034348946    12.000000000000
         C           -1.925379939573    -0.247467401131     0.003327648946    12.000000000000
         H            0.312690060427    -0.106184401131     1.432574648946     1.007825032230
         H           -0.351325939573    -1.584972401131    -0.491829351054     1.007825032230
         H           -0.432196939573    -0.144207401131    -1.532615351054     1.007825032230
         H            1.026785060427     1.967755598869    -0.194957351054     1.007825032230
         H            3.109495060427    -1.544746401131    -0.117170351054     1.007825032230
         H           -3.675828939573     0.075903598869    -0.585428351054     1.007825032230

  Basis Set: AUG-CC-PVTZ
    Blend: AUG-CC-PVTZ
  Basis Set: (AUG-CC-PVTZ AUX)
    Blend: AUG-CC-PVTZ-JKFIT
	 Reference Energy          =    -529.5220588210529513 [Eh]
	 Singles Energy            =      -0.0000000000000000 [Eh]
	 Same-Spin Energy          =      -0.5056594961494650 [Eh]
	 Opposite-Spin Energy      =      -1.5065177226614304 [Eh]
	 Correlation Energy        =      -2.0121772188108955 [Eh]
	 Total Energy              =    -531.5342360398637993 [Eh]

	 ================> DF-SCS-MP2 Energies <==================
	-----------------------------------------------------------
	 SCS Same-Spin Scale       =       0.3333333333333333 [-]
	 SCS Opposite-Spin Scale   =       1.2000000000000000 [-]
	 SCS Same-Spin Energy      =      -0.1685531653831550 [Eh]
	 SCS Opposite-Spin Energy  =      -1.8078212671937164 [Eh]
	 SCS Correlation Energy    =      -1.9763744325768715 [Eh]
	 SCS Total Energy          =    -531.4984332536298552 [Eh]
	-----------------------------------------------------------

  Dipole Moment: [D]
     X:     0.8477      Y:    -2.3013      Z:    -1.5330     Total:     2.8922

*** Psi4 exiting successfully. Buy a developer a beer!
