                               Psi4 1.3.2 release

  ==> Input File <==

--------------------------------------------------------------------------
#psi4
#
memory 32 gb

molecule  {
0 1
  O        0.2778030     1.6259200     0.3386670
  O        2.1914470    -1.4110830     0.2143760
  O       -2.8041000    -0.0533200    -1.0004000
  O        2.6534740     0.6903680    -0.5128080
  O       -2.2475040    -0.2263980     1.1904210
  C        0.4723530     0.2278750     0.4110270
  C       -0.5274950    -0.4947260    -0.4920330
  C        1.9091204    -0.2100892     0.0100482
  C       -1.9249390    -0.2389030     0.0159280
  H        0.3131310    -0.0976200     1.4451750
  H       -0.3508850    -1.5764080    -0.4792290
  H       -0.4317560    -0.1356430    -1.5200150
  H        1.0272260     1.9763200    -0.1823570
  H        3.1099360    -1.5361820    -0.1045700
  H       -3.6753880     0.0844680    -0.5728280
units angstrom
no_reorient  #important for SAPT in psi4, default
symmetry c1  #important for SAPT in psi4, default
}

set PROPERTIES_ORIGIN ["COM"]
properties('MP2/aug-cc-pvtz', properties = ['dipole'])
--------------------------------------------------------------------------

    Molecular point group: c1
  Charge       = 0
  Multiplicity = 1
  Basis Set: AUG-CC-PVTZ
    Blend: AUG-CC-PVTZ
  Basis Set: (AUG-CC-PVTZ AUX)
    Blend: AUG-CC-PVTZ-JKFIT

    Orbital Energies [Eh]
    ---------------------

    Doubly Occupied:

       1A    -20.672835     2A    -20.624274     3A    -20.572135
       4A    -20.564289     5A    -20.557682     6A    -11.417655
       7A    -11.400079     8A    -11.322388     9A    -11.267488
      10A     -1.540739    11A     -1.468094    12A     -1.386618
      13A     -1.364706    14A     -1.347352    15A     -1.086281
      16A     -0.971544    17A     -0.870692    18A     -0.812268
      19A     -0.765447    20A     -0.744340    21A     -0.712608
      22A     -0.704690    23A     -0.676599    24A     -0.668338
      25A     -0.645492    26A     -0.622010    27A     -0.596764
      28A     -0.589448    29A     -0.557310    30A     -0.533257
      31A     -0.491335    32A     -0.488257    33A     -0.471850
      34A     -0.467466    35A     -0.457360

  @DF-RHF Final Energy:  -529.50782654596628

   => Energetics <=

    Nuclear Repulsion Energy =            464.0959865125430497
    One-Electron Energy =               -1648.3282518529149456
    Two-Electron Energy =                 654.7244387944056143
    Total Energy =                       -529.5078265459662816
  Basis Set: (AUG-CC-PVTZ AUX)
    Blend: AUG-CC-PVTZ-RI
    Molecular point group: c1

    Geometry (in Angstrom), charge = 0, multiplicity = 1:

       Center              X                  Y                   Z               Mass
    ------------   -----------------  -----------------  -----------------  -----------------
         O            0.275726955896     1.625029306605     0.326745927899    15.994914619570
         O            2.189370955896    -1.411973693395     0.202454927899    15.994914619570
         O           -2.806176044104    -0.054210693395    -1.012321072101    15.994914619570
         O            2.651397955896     0.689477306605    -0.524729072101    15.994914619570
         O           -2.249580044104    -0.227288693395     1.178499927899    15.994914619570
         C            0.470276955896     0.226984306605     0.399105927899    12.000000000000
         C           -0.529571044104    -0.495616693395    -0.503954072101    12.000000000000
         C            1.907044355896    -0.210979893395    -0.001872872101    12.000000000000
         C           -1.927015044104    -0.239793693395     0.004006927899    12.000000000000
         H            0.311054955896    -0.098510693395     1.433253927899     1.007825032230
         H           -0.352961044104    -1.577298693395    -0.491150072101     1.007825032230
         H           -0.433832044104    -0.136533693395    -1.531936072101     1.007825032230
         H            1.025149955896     1.975429306605    -0.194278072101     1.007825032230
         H            3.107859955896    -1.537072693395    -0.116491072101     1.007825032230
         H           -3.677464044104     0.083577306605    -0.584749072101     1.007825032230

  Basis Set: AUG-CC-PVTZ
    Blend: AUG-CC-PVTZ
  Basis Set: (AUG-CC-PVTZ AUX)
    Blend: AUG-CC-PVTZ-JKFIT
	 Reference Energy          =    -529.5078265459662816 [Eh]
	 Singles Energy            =      -0.0000000000000000 [Eh]
	 Same-Spin Energy          =      -0.5061513533049202 [Eh]
	 Opposite-Spin Energy      =      -1.5067813738474463 [Eh]
	 Correlation Energy        =      -2.0129327271523665 [Eh]
	 Total Energy              =    -531.5207592731186423 [Eh]

	 ================> DF-SCS-MP2 Energies <==================
	-----------------------------------------------------------
	 SCS Same-Spin Scale       =       0.3333333333333333 [-]
	 SCS Opposite-Spin Scale   =       1.2000000000000000 [-]
	 SCS Same-Spin Energy      =      -0.1687171177683067 [Eh]
	 SCS Opposite-Spin Energy  =      -1.8081376486169354 [Eh]
	 SCS Correlation Energy    =      -1.9768547663852420 [Eh]
	 SCS Total Energy          =    -531.4846813123515403 [Eh]
	-----------------------------------------------------------

  Dipole Moment: [D]
     X:     1.0148      Y:    -2.9264      Z:    -1.4130     Total:     3.4044

*** Psi4 exiting successfully. Buy a developer a beer!
