                               Psi4 1.3.2 release

  ==> Input File <==

--------------------------------------------------------------------------
#psi4
#
memory 32 gb

molecule  {
0 1
  O        0.2778030     1.6259200     0.3386670
  O        2.1914470    -1.4110830     0.2143760
  O       -2.8041000    -0.0533200    -1.0004000
  O        2.6534740     0.6903680    -0.5128080
  O       -2.2475040    -0.2263980     1.1904210
  C        0.4723530     0.2278750     0.4110270
  C       -0.5274950    -0.4947260    -0.4920330
  C        1.8649921    -0.0717025    -0.1006502
  C       -1.9249390    -0.2389030     0.0159280
  H        0.3131310    -0.0976200     1.4451750
  H       -0.3508850    -1.5764080    -0.4792290
  H       -0.4317560    -0.1356430    -1.5200150
  H        1.0272260     1.9763200    -0.1823570
  H        3.1099360    -1.5361820    -0.1045700
  H       -3.6753880     0.0844680    -0.5728280
units angstrom
no_reorient  #important for SAPT in psi4, default
symmetry c1  #important for SAPT in psi4, default
}

set PROPERTIES_ORIGIN ["COM"]
properties('MP2/aug-cc-pvtz', properties = ['dipole'])
--------------------------------------------------------------------------

    Molecular point group: c1
  Charge       = 0
  Multiplicity = 1
  Basis Set: AUG-CC-PVTZ
    Blend: AUG-CC-PVTZ
  Basis Set: (AUG-CC-PVTZ AUX)
    Blend: AUG-CC-PVTZ-JKFIT

    Orbital Energies [Eh]
    ---------------------

    Doubly Occupied:

       1A    -20.626524     2A    -20.625786     3A    -20.595131
       4A    -20.577388     5A    -20.559550     6A    -11.413261
       7A    -11.401858     8A    -11.325051     9A    -11.268986
      10A     -1.494221    11A     -1.469721    12A     -1.394440
      13A     -1.382371    14A     -1.366166    15A     -1.090349
      16A     -0.966879    17A     -0.836139    18A     -0.808264
      19A     -0.756619    20A     -0.737848    21A     -0.714373
      22A     -0.703615    23A     -0.672907    24A     -0.648575
      25A     -0.645568    26A     -0.632527    27A     -0.599791
      28A     -0.589587    29A     -0.559267    30A     -0.555382
      31A     -0.522454    32A     -0.491590    33A     -0.486895
      34A     -0.471302    35A     -0.460599

  @DF-RHF Final Energy:  -529.51675776804802

   => Energetics <=

    Nuclear Repulsion Energy =            464.6575479875492078
    One-Electron Energy =               -1649.4466396911532229
    Two-Electron Energy =                 655.2723339355560483
    Total Energy =                       -529.5167577680480235
  Basis Set: (AUG-CC-PVTZ AUX)
    Blend: AUG-CC-PVTZ-RI
    Molecular point group: c1

    Geometry (in Angstrom), charge = 0, multiplicity = 1:

       Center              X                  Y                   Z               Mass
    ------------   -----------------  -----------------  -----------------  -----------------
         O            0.279678109315     1.612638458036     0.336657625418    15.994914619570
         O            2.193322109315    -1.424364541964     0.212366625418    15.994914619570
         O           -2.802224890685    -0.066601541964    -1.002409374582    15.994914619570
         O            2.655349109315     0.677086458036    -0.514817374582    15.994914619570
         O           -2.245628890685    -0.239679541964     1.188411625418    15.994914619570
         C            0.474228109315     0.214593458036     0.409017625418    12.000000000000
         C           -0.525619890685    -0.508007541964    -0.494042374582    12.000000000000
         C            1.866867209315    -0.084984041964    -0.102659574582    12.000000000000
         C           -1.923063890685    -0.252184541964     0.013918625418    12.000000000000
         H            0.315006109315    -0.110901541964     1.443165625418     1.007825032230
         H           -0.349009890685    -1.589689541964    -0.481238374582     1.007825032230
         H           -0.429880890685    -0.148924541964    -1.522024374582     1.007825032230
         H            1.029101109315     1.963038458036    -0.184366374582     1.007825032230
         H            3.111811109315    -1.549463541964    -0.106579374582     1.007825032230
         H           -3.673512890685     0.071186458036    -0.574837374582     1.007825032230

  Basis Set: AUG-CC-PVTZ
    Blend: AUG-CC-PVTZ
  Basis Set: (AUG-CC-PVTZ AUX)
    Blend: AUG-CC-PVTZ-JKFIT
	 Reference Energy          =    -529.5167577680480235 [Eh]
	 Singles Energy            =      -0.0000000000000000 [Eh]
	 Same-Spin Energy          =      -0.5049980088071223 [Eh]
	 Opposite-Spin Energy      =      -1.5059668408613720 [Eh]
	 Correlation Energy        =      -2.0109648496684942 [Eh]
	 Total Energy              =    -531.5277226177165630 [Eh]

	 ================> DF-SCS-MP2 Energies <==================
	-----------------------------------------------------------
	 SCS Same-Spin Scale       =       0.3333333333333333 [-]
	 SCS Opposite-Spin Scale   =       1.2000000000000000 [-]
	 SCS Same-Spin Energy      =      -0.1683326696023741 [Eh]
	 SCS Opposite-Spin Energy  =      -1.8071602090336463 [Eh]
	 SCS Correlation Energy    =      -1.9754928786360204 [Eh]
	 SCS Total Energy          =    -531.4922506466840559 [Eh]
	-----------------------------------------------------------

  Dipole Moment: [D]
     X:     0.8219      Y:    -1.6768      Z:    -1.8150     Total:     2.6041

*** Psi4 exiting successfully. Buy a developer a beer!
