                               Psi4 1.4a3.dev225

  ==> Input File <==

--------------------------------------------------------------------------
#psi4
#
memory 32 gb

molecule  {
0 1
  O        0.2776560     1.6256810     0.3396990
  O        2.1917380    -1.4109440     0.2140340
  O       -2.8039560    -0.0525170    -1.0004960
  O        2.6531900     0.6906990    -0.5129330
  O       -2.2475620    -0.2274030     1.1902310
  C        0.4723300     0.2276130     0.4112310
  C       -0.5274300    -0.4946180    -0.4922450
  C        1.8739784    -0.1271288     0.0019349
  C       -1.9248990    -0.2390210     0.0157560
  H        0.3131550    -0.0984550     1.4451980
  H       -0.3508110    -1.5763050    -0.4798880
  H       -0.4316230    -0.1350800    -1.5200620
  H        1.0266390     1.9763480    -0.1817870
  H        3.1101710    -1.5358420    -0.1051610
  H       -3.6752580     0.0850810    -0.5728850
units angstrom
no_reorient  #important for SAPT in psi4, default
symmetry c1  #important for SAPT in psi4, default
}

set PROPERTIES_ORIGIN ["COM"]
properties('MP2/aug-cc-pvtz', properties = ['dipole'])
--------------------------------------------------------------------------

    Molecular point group: c1
  Charge       = 0
  Multiplicity = 1
  Basis Set: AUG-CC-PVTZ
    Blend: AUG-CC-PVTZ
  Basis Set: (AUG-CC-PVTZ AUX)
    Blend: AUG-CC-PVTZ-JKFIT

    Orbital Energies [Eh]
    ---------------------

    Doubly Occupied:

       1A    -20.648206     2A    -20.626188     3A    -20.578203
       4A    -20.575915     5A    -20.559842     6A    -11.417684
       7A    -11.402522     8A    -11.324333     9A    -11.270762
      10A     -1.492390    11A     -1.470077    12A     -1.394993
      13A     -1.368313    14A     -1.364210    15A     -1.092009
      16A     -0.975085    17A     -0.849351    18A     -0.812558
      19A     -0.760496    20A     -0.735246    21A     -0.714450
      22A     -0.703153    23A     -0.672951    24A     -0.652623
      25A     -0.647500    26A     -0.625423    27A     -0.600382
      28A     -0.590504    29A     -0.559272    30A     -0.546236
      31A     -0.504795    32A     -0.491564    33A     -0.483581
      34A     -0.471441    35A     -0.462544

  @DF-RHF Final Energy:  -529.52128015042604

   => Energetics <=

    Nuclear Repulsion Energy =            464.3511035423292697
    One-Electron Energy =               -1648.8551646321834596
    Two-Electron Energy =                 654.9827809394280393
    Total Energy =                       -529.5212801504260369
  Basis Set: (AUG-CC-PVTZ AUX)
    Blend: AUG-CC-PVTZ-RI
    Molecular point group: c1

    Geometry (in Angstrom), charge = 0, multiplicity = 1:

       Center              X                  Y                   Z               Mass
    ------------   -----------------  -----------------  -----------------  -----------------
         O            0.278725530163     1.617376997294     0.328492917337    15.994914619570
         O            2.192807530163    -1.419248002706     0.202827917337    15.994914619570
         O           -2.802886469837    -0.060821002706    -1.011702082663    15.994914619570
         O            2.654259530163     0.682394997294    -0.524139082663    15.994914619570
         O           -2.246492469837    -0.235707002706     1.179024917337    15.994914619570
         C            0.473399530163     0.219308997294     0.400024917337    12.000000000000
         C           -0.526360469837    -0.502922002706    -0.503451082663    12.000000000000
         C            1.875047930163    -0.135432802706    -0.009271182663    12.000000000000
         C           -1.923829469837    -0.247325002706     0.004549917337    12.000000000000
         H            0.314224530163    -0.106759002706     1.433991917337     1.007825032230
         H           -0.349741469837    -1.584609002706    -0.491094082663     1.007825032230
         H           -0.430553469837    -0.143384002706    -1.531268082663     1.007825032230
         H            1.027708530163     1.968043997294    -0.192993082663     1.007825032230
         H            3.111240530163    -1.544146002706    -0.116367082663     1.007825032230
         H           -3.674188469837     0.076776997294    -0.584091082663     1.007825032230

  Basis Set: AUG-CC-PVTZ
    Blend: AUG-CC-PVTZ
  Basis Set: (AUG-CC-PVTZ AUX)
    Blend: AUG-CC-PVTZ-JKFIT
	 Reference Energy          =    -529.5212801504260369 [Eh]
	 Singles Energy            =      -0.0000000000000000 [Eh]
	 Same-Spin Energy          =      -0.5058724356262382 [Eh]
	 Opposite-Spin Energy      =      -1.5069132852979465 [Eh]
	 Correlation Energy        =      -2.0127857209241848 [Eh]
	 Total Energy              =    -531.5340658713502080 [Eh]

	 ================> DF-SCS-MP2 Energies <==================
	-----------------------------------------------------------
	 SCS Same-Spin Scale       =       0.3333333333333333 [-]
	 SCS Opposite-Spin Scale   =       1.2000000000000000 [-]
	 SCS Same-Spin Energy      =      -0.1686241452087461 [Eh]
	 SCS Opposite-Spin Energy  =      -1.8082959423575358 [Eh]
	 SCS Correlation Energy    =      -1.9769200875662818 [Eh]
	 SCS Total Energy          =    -531.4982002379923642 [Eh]
	-----------------------------------------------------------

  Dipole Moment: [D]
     X:     0.7822      Y:    -2.2906      Z:    -1.5416     Total:     2.8697

*** Psi4 exiting successfully. Buy a developer a beer!
