                               Psi4 1.3.2 release

  ==> Input File <==

--------------------------------------------------------------------------
#psi4
#
memory 32 gb

molecule  {
0 1
  O        0.2778030     1.6259200     0.3386670
  O        2.1914470    -1.4110830     0.2143760
  O       -2.8041000    -0.0533200    -1.0004000
  O        2.6534740     0.6903680    -0.5128080
  O       -2.2475040    -0.2263980     1.1904210
  C        0.4923170     0.2186183     0.3959361
  C       -0.5274950    -0.4947260    -0.4920330
  C        1.8865440    -0.1140510    -0.0062910
  C       -1.9249390    -0.2389030     0.0159280
  H        0.3131310    -0.0976200     1.4451750
  H       -0.3508850    -1.5764080    -0.4792290
  H       -0.4317560    -0.1356430    -1.5200150
  H        1.0272260     1.9763200    -0.1823570
  H        3.1099360    -1.5361820    -0.1045700
  H       -3.6753880     0.0844680    -0.5728280
units angstrom
no_reorient  #important for SAPT in psi4, default
symmetry c1  #important for SAPT in psi4, default
}

set PROPERTIES_ORIGIN ["COM"]
properties('MP2/aug-cc-pvtz', properties = ['dipole'])
--------------------------------------------------------------------------

    Molecular point group: c1
  Charge       = 0
  Multiplicity = 1
  Basis Set: AUG-CC-PVTZ
    Blend: AUG-CC-PVTZ
  Basis Set: (AUG-CC-PVTZ AUX)
    Blend: AUG-CC-PVTZ-JKFIT

    Orbital Energies [Eh]
    ---------------------

    Doubly Occupied:

       1A    -20.645149     2A    -20.626133     3A    -20.582283
       4A    -20.575272     5A    -20.559553     6A    -11.416214
       7A    -11.402564     8A    -11.323462     9A    -11.270680
      10A     -1.492188    11A     -1.469874    12A     -1.397251
      13A     -1.371325    14A     -1.365283    15A     -1.091379
      16A     -0.976312    17A     -0.846229    18A     -0.809662
      19A     -0.760349    20A     -0.736682    21A     -0.714117
      22A     -0.702850    23A     -0.672004    24A     -0.652227
      25A     -0.646324    26A     -0.626184    27A     -0.598756
      28A     -0.590629    29A     -0.556667    30A     -0.549688
      31A     -0.511397    32A     -0.492259    33A     -0.485512
      34A     -0.469607    35A     -0.462939

  @DF-RHF Final Energy:  -529.52215025450937

   => Energetics <=

    Nuclear Repulsion Energy =            464.4366360176742319
    One-Electron Energy =               -1649.0195675771528840
    Two-Electron Energy =                 655.0607813049693959
    Total Energy =                       -529.5221502545093699
  Basis Set: (AUG-CC-PVTZ AUX)
    Blend: AUG-CC-PVTZ-RI
    Molecular point group: c1

    Geometry (in Angstrom), charge = 0, multiplicity = 1:

       Center              X                  Y                   Z               Mass
    ------------   -----------------  -----------------  -----------------  -----------------
         O            0.275960864593     1.617259077059     0.329560111701    15.994914619570
         O            2.189604864593    -1.419743922941     0.205269111701    15.994914619570
         O           -2.805942135407    -0.061980922941    -1.009506888299    15.994914619570
         O            2.651631864593     0.681707077059    -0.521914888299    15.994914619570
         O           -2.249346135407    -0.235058922941     1.181314111701    15.994914619570
         C            0.490474864593     0.209957377059     0.386829211701    12.000000000000
         C           -0.529337135407    -0.503386922941    -0.501139888299    12.000000000000
         C            1.884701864593    -0.122711922941    -0.015397888299    12.000000000000
         C           -1.926781135407    -0.247563922941     0.006821111701    12.000000000000
         H            0.311288864593    -0.106280922941     1.436068111701     1.007825032230
         H           -0.352727135407    -1.585068922941    -0.488335888299     1.007825032230
         H           -0.433598135407    -0.144303922941    -1.529121888299     1.007825032230
         H            1.025383864593     1.967659077059    -0.191463888299     1.007825032230
         H            3.108093864593    -1.544842922941    -0.113676888299     1.007825032230
         H           -3.677230135407     0.075807077059    -0.581934888299     1.007825032230

  Basis Set: AUG-CC-PVTZ
    Blend: AUG-CC-PVTZ
  Basis Set: (AUG-CC-PVTZ AUX)
    Blend: AUG-CC-PVTZ-JKFIT
	 Reference Energy          =    -529.5221502545093699 [Eh]
	 Singles Energy            =      -0.0000000000000000 [Eh]
	 Same-Spin Energy          =      -0.5056472046762250 [Eh]
	 Opposite-Spin Energy      =      -1.5067063017440674 [Eh]
	 Correlation Energy        =      -2.0123535064202924 [Eh]
	 Total Energy              =    -531.5345037609296241 [Eh]

	 ================> DF-SCS-MP2 Energies <==================
	-----------------------------------------------------------
	 SCS Same-Spin Scale       =       0.3333333333333333 [-]
	 SCS Opposite-Spin Scale   =       1.2000000000000000 [-]
	 SCS Same-Spin Energy      =      -0.1685490682254083 [Eh]
	 SCS Opposite-Spin Energy  =      -1.8080475620928809 [Eh]
	 SCS Correlation Energy    =      -1.9765966303182891 [Eh]
	 SCS Total Energy          =    -531.4987468848277103 [Eh]
	-----------------------------------------------------------

  Dipole Moment: [D]
     X:     0.8394      Y:    -2.2043      Z:    -1.5966     Total:     2.8483

*** Psi4 exiting successfully. Buy a developer a beer!
