                               Psi4 1.3.2 release

  ==> Input File <==

--------------------------------------------------------------------------
#psi4
#
memory 32 gb

molecule  {
0 1
  O        0.2778030     1.6259200     0.3386670
  O        2.1914470    -1.4110830     0.2143760
  O       -2.8041000    -0.0533200    -1.0004000
  O        2.6534740     0.6903680    -0.5128080
  O       -2.2475040    -0.2263980     1.1904210
  C        0.4723530     0.2278750     0.4110270
  C       -0.5274950    -0.4947260    -0.4920330
  C        2.0121256     0.0176692    -0.0892310
  C       -1.9249390    -0.2389030     0.0159280
  H        0.3131310    -0.0976200     1.4451750
  H       -0.3508850    -1.5764080    -0.4792290
  H       -0.4317560    -0.1356430    -1.5200150
  H        1.0272260     1.9763200    -0.1823570
  H        3.1099360    -1.5361820    -0.1045700
  H       -3.6753880     0.0844680    -0.5728280
units angstrom
no_reorient  #important for SAPT in psi4, default
symmetry c1  #important for SAPT in psi4, default
}

set PROPERTIES_ORIGIN ["COM"]
properties('MP2/aug-cc-pvtz', properties = ['dipole'])
--------------------------------------------------------------------------

    Molecular point group: c1
  Charge       = 0
  Multiplicity = 1
  Basis Set: AUG-CC-PVTZ
    Blend: AUG-CC-PVTZ
  Basis Set: (AUG-CC-PVTZ AUX)
    Blend: AUG-CC-PVTZ-JKFIT

    Orbital Energies [Eh]
    ---------------------

    Doubly Occupied:

       1A    -20.621525     2A    -20.617913     3A    -20.605029
       4A    -20.572702     5A    -20.554305     6A    -11.396566
       7A    -11.395519     8A    -11.317084     9A    -11.260786
      10A     -1.604617    11A     -1.465152    12A     -1.382944
      13A     -1.379575    14A     -1.361369    15A     -1.072169
      16A     -0.935219    17A     -0.824491    18A     -0.798592
      19A     -0.783139    20A     -0.757179    21A     -0.719019
      22A     -0.709995    23A     -0.685771    24A     -0.663548
      25A     -0.646817    26A     -0.633659    27A     -0.599351
      28A     -0.587484    29A     -0.567758    30A     -0.554816
      31A     -0.531526    32A     -0.485079    33A     -0.466687
      34A     -0.464016    35A     -0.440730

  @DF-RHF Final Energy:  -529.44302571264097

   => Energetics <=

    Nuclear Repulsion Energy =            464.8622100250233302
    One-Electron Energy =               -1649.6862071669636407
    Two-Electron Energy =                 655.3809714292992794
    Total Energy =                       -529.4430257126409742
  Basis Set: (AUG-CC-PVTZ AUX)
    Blend: AUG-CC-PVTZ-RI
    Molecular point group: c1

    Geometry (in Angstrom), charge = 0, multiplicity = 1:

       Center              X                  Y                   Z               Mass
    ------------   -----------------  -----------------  -----------------  -----------------
         O            0.266504091018     1.604636307534     0.335635174721    15.994914619570
         O            2.180148091018    -1.432366692466     0.211344174721    15.994914619570
         O           -2.815398908982    -0.074603692466    -1.003431825279    15.994914619570
         O            2.642175091018     0.669084307534    -0.515839825279    15.994914619570
         O           -2.258802908982    -0.247681692466     1.187389174721    15.994914619570
         C            0.461054091018     0.206591307534     0.407995174721    12.000000000000
         C           -0.538793908982    -0.516009692466    -0.495064825279    12.000000000000
         C            2.000826691018    -0.003614492466    -0.092262825279    12.000000000000
         C           -1.936237908982    -0.260186692466     0.012896174721    12.000000000000
         H            0.301832091018    -0.118903692466     1.442143174721     1.007825032230
         H           -0.362183908982    -1.597691692466    -0.482260825279     1.007825032230
         H           -0.443054908982    -0.156926692466    -1.523046825279     1.007825032230
         H            1.015927091018     1.955036307534    -0.185388825279     1.007825032230
         H            3.098637091018    -1.557465692466    -0.107601825279     1.007825032230
         H           -3.686686908982     0.063184307534    -0.575859825279     1.007825032230

  Basis Set: AUG-CC-PVTZ
    Blend: AUG-CC-PVTZ
  Basis Set: (AUG-CC-PVTZ AUX)
    Blend: AUG-CC-PVTZ-JKFIT
	 Reference Energy          =    -529.4430257126409742 [Eh]
	 Singles Energy            =      -0.0000000000000000 [Eh]
	 Same-Spin Energy          =      -0.5022636061327531 [Eh]
	 Opposite-Spin Energy      =      -1.5009448304756146 [Eh]
	 Correlation Energy        =      -2.0032084366083676 [Eh]
	 Total Energy              =    -531.4462341492493351 [Eh]

	 ================> DF-SCS-MP2 Energies <==================
	-----------------------------------------------------------
	 SCS Same-Spin Scale       =       0.3333333333333333 [-]
	 SCS Opposite-Spin Scale   =       1.2000000000000000 [-]
	 SCS Same-Spin Energy      =      -0.1674212020442510 [Eh]
	 SCS Opposite-Spin Energy  =      -1.8011337965707375 [Eh]
	 SCS Correlation Energy    =      -1.9685549986149886 [Eh]
	 SCS Total Energy          =    -531.4115807112559651 [Eh]
	-----------------------------------------------------------

  Dipole Moment: [D]
     X:     1.5893      Y:    -0.9099      Z:    -2.1300     Total:     2.8090

*** Psi4 exiting successfully. Buy a developer a beer!
