                               Psi4 1.3.2 release

  ==> Input File <==

--------------------------------------------------------------------------
#psi4
#
memory 32 gb

molecule  {
0 1
  O        0.2778030     1.6259200     0.3386670
  O        2.1914470    -1.4110830     0.2143760
  O       -2.8041000    -0.0533200    -1.0004000
  O        2.6534740     0.6903680    -0.5128080
  O       -2.2475040    -0.2263980     1.1904210
  C        0.5544138     0.2400116     0.3576331
  C       -0.5274950    -0.4947260    -0.4920330
  C        1.8865440    -0.1140510    -0.0062910
  C       -1.9249390    -0.2389030     0.0159280
  H        0.3131310    -0.0976200     1.4451750
  H       -0.3508850    -1.5764080    -0.4792290
  H       -0.4317560    -0.1356430    -1.5200150
  H        1.0272260     1.9763200    -0.1823570
  H        3.1099360    -1.5361820    -0.1045700
  H       -3.6753880     0.0844680    -0.5728280
units angstrom
no_reorient  #important for SAPT in psi4, default
symmetry c1  #important for SAPT in psi4, default
}

set PROPERTIES_ORIGIN ["COM"]
properties('MP2/aug-cc-pvtz', properties = ['dipole'])
--------------------------------------------------------------------------

    Molecular point group: c1
  Charge       = 0
  Multiplicity = 1
  Basis Set: AUG-CC-PVTZ
    Blend: AUG-CC-PVTZ
  Basis Set: (AUG-CC-PVTZ AUX)
    Blend: AUG-CC-PVTZ-JKFIT

    Orbital Energies [Eh]
    ---------------------

    Doubly Occupied:

       1A    -20.645612     2A    -20.626564     3A    -20.581115
       4A    -20.579764     5A    -20.559559     6A    -11.414377
       7A    -11.403165     8A    -11.323853     9A    -11.272844
      10A     -1.494168    11A     -1.469995    12A     -1.402042
      13A     -1.374620    14A     -1.365935    15A     -1.089861
      16A     -0.987915    17A     -0.844571    18A     -0.807852
      19A     -0.767315    20A     -0.736772    21A     -0.714025
      22A     -0.704025    23A     -0.670669    24A     -0.652100
      25A     -0.645217    26A     -0.624000    27A     -0.595364
      28A     -0.591867    29A     -0.565706    30A     -0.548554
      31A     -0.511623    32A     -0.494011    33A     -0.486169
      34A     -0.464262    35A     -0.459293

  @DF-RHF Final Energy:  -529.51117546536034

   => Energetics <=

    Nuclear Repulsion Energy =            464.8097843244985370
    One-Electron Energy =               -1649.6923562596834927
    Two-Electron Energy =                 655.3713964698245036
    Total Energy =                       -529.5111754653603384
  Basis Set: (AUG-CC-PVTZ AUX)
    Blend: AUG-CC-PVTZ-RI
    Molecular point group: c1

    Geometry (in Angstrom), charge = 0, multiplicity = 1:

       Center              X                  Y                   Z               Mass
    ------------   -----------------  -----------------  -----------------  -----------------
         O            0.270400850189     1.615343566821     0.332989680241    15.994914619570
         O            2.184044850189    -1.421659433179     0.208698680241    15.994914619570
         O           -2.811502149811    -0.063896433179    -1.006077319759    15.994914619570
         O            2.646071850189     0.679791566821    -0.518485319759    15.994914619570
         O           -2.254906149811    -0.236974433179     1.184743680241    15.994914619570
         C            0.547011650189     0.229435166821     0.351955780241    12.000000000000
         C           -0.534897149811    -0.505302433179    -0.497710319759    12.000000000000
         C            1.879141850189    -0.124627433179    -0.011968319759    12.000000000000
         C           -1.932341149811    -0.249479433179     0.010250680241    12.000000000000
         H            0.305728850189    -0.108196433179     1.439497680241     1.007825032230
         H           -0.358287149811    -1.586984433179    -0.484906319759     1.007825032230
         H           -0.439158149811    -0.146219433179    -1.525692319759     1.007825032230
         H            1.019823850189     1.965743566821    -0.188034319759     1.007825032230
         H            3.102533850189    -1.546758433179    -0.110247319759     1.007825032230
         H           -3.682790149811     0.073891566821    -0.578505319759     1.007825032230

  Basis Set: AUG-CC-PVTZ
    Blend: AUG-CC-PVTZ
  Basis Set: (AUG-CC-PVTZ AUX)
    Blend: AUG-CC-PVTZ-JKFIT
	 Reference Energy          =    -529.5111754653603384 [Eh]
	 Singles Energy            =      -0.0000000000000000 [Eh]
	 Same-Spin Energy          =      -0.5063777590679706 [Eh]
	 Opposite-Spin Energy      =      -1.5078242308859009 [Eh]
	 Correlation Energy        =      -2.0142019899538717 [Eh]
	 Total Energy              =    -531.5253774553142421 [Eh]

	 ================> DF-SCS-MP2 Energies <==================
	-----------------------------------------------------------
	 SCS Same-Spin Scale       =       0.3333333333333333 [-]
	 SCS Opposite-Spin Scale   =       1.2000000000000000 [-]
	 SCS Same-Spin Energy      =      -0.1687925863559902 [Eh]
	 SCS Opposite-Spin Energy  =      -1.8093890770630809 [Eh]
	 SCS Correlation Energy    =      -1.9781816634190712 [Eh]
	 SCS Total Energy          =    -531.4893571287793748 [Eh]
	-----------------------------------------------------------

  Dipole Moment: [D]
     X:     0.7929      Y:    -2.1099      Z:    -1.5997     Total:     2.7640

*** Psi4 exiting successfully. Buy a developer a beer!
