                               Psi4 1.3.2 release

  ==> Input File <==

--------------------------------------------------------------------------
#psi4
#
memory 32 gb

molecule  {
0 1
  O        0.2778030     1.6259200     0.3386670
  O        2.1914470    -1.4110830     0.2143760
  O       -2.8041000    -0.0533200    -1.0004000
  O        2.7116538     0.6281536    -0.5163471
  O       -2.2475040    -0.2263980     1.1904210
  C        0.4723530     0.2278750     0.4110270
  C       -0.5274950    -0.4947260    -0.4920330
  C        1.8865440    -0.1140510    -0.0062910
  C       -1.9249390    -0.2389030     0.0159280
  H        0.3131310    -0.0976200     1.4451750
  H       -0.3508850    -1.5764080    -0.4792290
  H       -0.4317560    -0.1356430    -1.5200150
  H        1.0272260     1.9763200    -0.1823570
  H        3.1099360    -1.5361820    -0.1045700
  H       -3.6753880     0.0844680    -0.5728280
units angstrom
no_reorient  #important for SAPT in psi4, default
symmetry c1  #important for SAPT in psi4, default
}

set PROPERTIES_ORIGIN ["COM"]
properties('MP2/aug-cc-pvtz', properties = ['dipole'])
--------------------------------------------------------------------------

    Molecular point group: c1
  Charge       = 0
  Multiplicity = 1
  Basis Set: AUG-CC-PVTZ
    Blend: AUG-CC-PVTZ
  Basis Set: (AUG-CC-PVTZ AUX)
    Blend: AUG-CC-PVTZ-JKFIT

    Orbital Energies [Eh]
    ---------------------

    Doubly Occupied:

       1A    -20.637446     2A    -20.627078     3A    -20.579906
       4A    -20.579874     5A    -20.560894     6A    -11.414884
       7A    -11.403608     8A    -11.328306     9A    -11.271770
      10A     -1.490426    11A     -1.471026    12A     -1.394870
      13A     -1.373065    14A     -1.367115    15A     -1.092250
      16A     -0.973252    17A     -0.845906    18A     -0.812429
      19A     -0.758318    20A     -0.732892    21A     -0.715391
      22A     -0.703885    23A     -0.673812    24A     -0.650878
      25A     -0.647939    26A     -0.628056    27A     -0.602099
      28A     -0.591204    29A     -0.560638    30A     -0.550430
      31A     -0.507081    32A     -0.492070    33A     -0.484283
      34A     -0.473868    35A     -0.463533

  @DF-RHF Final Energy:  -529.52263274033112

   => Energetics <=

    Nuclear Repulsion Energy =            463.8118434777821903
    One-Electron Energy =               -1647.7479895134408707
    Two-Electron Energy =                 654.4135132953274478
    Total Energy =                       -529.5226327403311188
  Basis Set: (AUG-CC-PVTZ AUX)
    Blend: AUG-CC-PVTZ-RI
    Molecular point group: c1

    Geometry (in Angstrom), charge = 0, multiplicity = 1:

       Center              X                  Y                   Z               Mass
    ------------   -----------------  -----------------  -----------------  -----------------
         O            0.270804879819     1.623855283358     0.328631281804    15.994914619570
         O            2.184448879819    -1.413147716642     0.204340281804    15.994914619570
         O           -2.811098120181    -0.055384716642    -1.010435718196    15.994914619570
         O            2.704655679819     0.626088883358    -0.526382818196    15.994914619570
         O           -2.254502120181    -0.228462716642     1.180385281804    15.994914619570
         C            0.465354879819     0.225810283358     0.400991281804    12.000000000000
         C           -0.534493120181    -0.496790716642    -0.502068718196    12.000000000000
         C            1.879545879819    -0.116115716642    -0.016326718196    12.000000000000
         C           -1.931937120181    -0.240967716642     0.005892281804    12.000000000000
         H            0.306132879819    -0.099684716642     1.435139281804     1.007825032230
         H           -0.357883120181    -1.578472716642    -0.489264718196     1.007825032230
         H           -0.438754120181    -0.137707716642    -1.530050718196     1.007825032230
         H            1.020227879819     1.974255283358    -0.192392718196     1.007825032230
         H            3.102937879819    -1.538246716642    -0.114605718196     1.007825032230
         H           -3.682386120181     0.082403283358    -0.582863718196     1.007825032230

  Basis Set: AUG-CC-PVTZ
    Blend: AUG-CC-PVTZ
  Basis Set: (AUG-CC-PVTZ AUX)
    Blend: AUG-CC-PVTZ-JKFIT
	 Reference Energy          =    -529.5226327403311188 [Eh]
	 Singles Energy            =      -0.0000000000000000 [Eh]
	 Same-Spin Energy          =      -0.5051960793562382 [Eh]
	 Opposite-Spin Energy      =      -1.5058973967924398 [Eh]
	 Correlation Energy        =      -2.0110934761486781 [Eh]
	 Total Energy              =    -531.5337262164797494 [Eh]

	 ================> DF-SCS-MP2 Energies <==================
	-----------------------------------------------------------
	 SCS Same-Spin Scale       =       0.3333333333333333 [-]
	 SCS Opposite-Spin Scale   =       1.2000000000000000 [-]
	 SCS Same-Spin Energy      =      -0.1683986931187461 [Eh]
	 SCS Opposite-Spin Energy  =      -1.8070768761509277 [Eh]
	 SCS Correlation Energy    =      -1.9754755692696737 [Eh]
	 SCS Total Energy          =    -531.4981083096007524 [Eh]
	-----------------------------------------------------------

  Dipole Moment: [D]
     X:     0.6106      Y:    -2.0161      Z:    -1.5655     Total:     2.6245

*** Psi4 exiting successfully. Buy a developer a beer!
