                               Psi4 1.3.2 release

  ==> Input File <==

--------------------------------------------------------------------------
#psi4
#
memory 32 gb

molecule  {
0 1
  O        0.1395082     1.6012487     0.3850584
  O        2.1914470    -1.4110830     0.2143760
  O       -2.8041000    -0.0533200    -1.0004000
  O        2.6534740     0.6903680    -0.5128080
  O       -2.2475040    -0.2263980     1.1904210
  C        0.4723530     0.2278750     0.4110270
  C       -0.5274950    -0.4947260    -0.4920330
  C        1.8865440    -0.1140510    -0.0062910
  C       -1.9249390    -0.2389030     0.0159280
  H        0.3131310    -0.0976200     1.4451750
  H       -0.3508850    -1.5764080    -0.4792290
  H       -0.4317560    -0.1356430    -1.5200150
  H        1.0272260     1.9763200    -0.1823570
  H        3.1099360    -1.5361820    -0.1045700
  H       -3.6753880     0.0844680    -0.5728280
units angstrom
no_reorient  #important for SAPT in psi4, default
symmetry c1  #important for SAPT in psi4, default
}

set PROPERTIES_ORIGIN ["COM"]
properties('MP2/aug-cc-pvtz', properties = ['dipole'])
--------------------------------------------------------------------------

    Molecular point group: c1
  Charge       = 0
  Multiplicity = 1
  Basis Set: AUG-CC-PVTZ
    Blend: AUG-CC-PVTZ
  Basis Set: (AUG-CC-PVTZ AUX)
    Blend: AUG-CC-PVTZ-JKFIT

    Orbital Energies [Eh]
    ---------------------

    Doubly Occupied:

       1A    -20.648113     2A    -20.623821     3A    -20.588029
       4A    -20.586633     5A    -20.556648     6A    -11.420630
       7A    -11.399746     8A    -11.321125     9A    -11.267255
      10A     -1.494032    11A     -1.467479    12A     -1.394895
      13A     -1.366623    14A     -1.358645    15A     -1.083357
      16A     -0.970723    17A     -0.843160    18A     -0.803802
      19A     -0.755897    20A     -0.738117    21A     -0.711108
      22A     -0.698368    23A     -0.671703    24A     -0.652901
      25A     -0.637578    26A     -0.622606    27A     -0.594225
      28A     -0.588378    29A     -0.558222    30A     -0.541874
      31A     -0.515484    32A     -0.491006    33A     -0.483857
      34A     -0.465440    35A     -0.460515

  @DF-RHF Final Energy:  -529.49742812263048

   => Energetics <=

    Nuclear Repulsion Energy =            464.0558252286325569
    One-Electron Energy =               -1648.3425143952661074
    Two-Electron Energy =                 654.7892610440030694
    Total Energy =                       -529.4974281226304811
  Basis Set: (AUG-CC-PVTZ AUX)
    Blend: AUG-CC-PVTZ-RI
    Molecular point group: c1

    Geometry (in Angstrom), charge = 0, multiplicity = 1:

       Center              X                  Y                   Z               Mass
    ------------   -----------------  -----------------  -----------------  -----------------
         O            0.155958510897     1.594703369616     0.369063683094    15.994914619570
         O            2.207897310897    -1.417628330384     0.198381283094    15.994914619570
         O           -2.787649689103    -0.059865330384    -1.016394716906    15.994914619570
         O            2.669924310897     0.683822669616    -0.528802716906    15.994914619570
         O           -2.231053689103    -0.232943330384     1.174426283094    15.994914619570
         C            0.488803310897     0.221329669616     0.395032283094    12.000000000000
         C           -0.511044689103    -0.501271330384    -0.508027716906    12.000000000000
         C            1.902994310897    -0.120596330384    -0.022285716906    12.000000000000
         C           -1.908488689103    -0.245448330384    -0.000066716906    12.000000000000
         H            0.329581310897    -0.104165330384     1.429180283094     1.007825032230
         H           -0.334434689103    -1.582953330384    -0.495223716906     1.007825032230
         H           -0.415305689103    -0.142188330384    -1.536009716906     1.007825032230
         H            1.043676310897     1.969774669616    -0.198351716906     1.007825032230
         H            3.126386310897    -1.542727330384    -0.120564716906     1.007825032230
         H           -3.658937689103     0.077922669616    -0.588822716906     1.007825032230

  Basis Set: AUG-CC-PVTZ
    Blend: AUG-CC-PVTZ
  Basis Set: (AUG-CC-PVTZ AUX)
    Blend: AUG-CC-PVTZ-JKFIT
	 Reference Energy          =    -529.4974281226304811 [Eh]
	 Singles Energy            =      -0.0000000000000000 [Eh]
	 Same-Spin Energy          =      -0.5079040162493562 [Eh]
	 Opposite-Spin Energy      =      -1.5120374554469769 [Eh]
	 Correlation Energy        =      -2.0199414716963329 [Eh]
	 Total Energy              =    -531.5173695943268513 [Eh]

	 ================> DF-SCS-MP2 Energies <==================
	-----------------------------------------------------------
	 SCS Same-Spin Scale       =       0.3333333333333333 [-]
	 SCS Opposite-Spin Scale   =       1.2000000000000000 [-]
	 SCS Same-Spin Energy      =      -0.1693013387497854 [Eh]
	 SCS Opposite-Spin Energy  =      -1.8144449465363721 [Eh]
	 SCS Correlation Energy    =      -1.9837462852861576 [Eh]
	 SCS Total Energy          =    -531.4811744079166829 [Eh]
	-----------------------------------------------------------

  Dipole Moment: [D]
     X:     1.1443      Y:    -2.1249      Z:    -1.6191     Total:     2.9062

*** Psi4 exiting successfully. Buy a developer a beer!
