                               Psi4 1.4a3.dev225

  ==> Input File <==

--------------------------------------------------------------------------
#psi4
#
memory 32 gb

molecule  {
0 1
  O        0.2776560     1.6256810     0.3396990
  O        2.1917380    -1.4109440     0.2140340
  O       -2.8039560    -0.0525170    -1.0004960
  O        2.6531900     0.6906990    -0.5129330
  O       -2.2475620    -0.2274030     1.1902310
  C        0.4723300     0.2276130     0.4112310
  C       -0.5274300    -0.4946180    -0.4922450
  C        1.8398158    -0.1026698     0.0074345
  C       -1.9248990    -0.2390210     0.0157560
  H        0.3131550    -0.0984550     1.4451980
  H       -0.3508110    -1.5763050    -0.4798880
  H       -0.4316230    -0.1350800    -1.5200620
  H        1.0266390     1.9763480    -0.1817870
  H        3.1101710    -1.5358420    -0.1051610
  H       -3.6752580     0.0850810    -0.5728850
units angstrom
no_reorient  #important for SAPT in psi4, default
symmetry c1  #important for SAPT in psi4, default
}

set PROPERTIES_ORIGIN ["COM"]
properties('MP2/aug-cc-pvtz', properties = ['dipole'])
--------------------------------------------------------------------------

    Molecular point group: c1
  Charge       = 0
  Multiplicity = 1
  Basis Set: AUG-CC-PVTZ
    Blend: AUG-CC-PVTZ
  Basis Set: (AUG-CC-PVTZ AUX)
    Blend: AUG-CC-PVTZ-JKFIT

    Orbital Energies [Eh]
    ---------------------

    Doubly Occupied:

       1A    -20.640168     2A    -20.627746     3A    -20.580220
       4A    -20.578470     5A    -20.561632     6A    -11.420183
       7A    -11.404489     8A    -11.325930     9A    -11.273768
      10A     -1.478285    11A     -1.471607    12A     -1.394697
      13A     -1.368774    14A     -1.361030    15A     -1.098328
      16A     -0.983607    17A     -0.845491    18A     -0.813635
      19A     -0.762018    20A     -0.730131    21A     -0.715863
      22A     -0.704726    23A     -0.674211    24A     -0.648233
      25A     -0.644911    26A     -0.622987    27A     -0.601545
      28A     -0.590656    29A     -0.561188    30A     -0.550399
      31A     -0.502210    32A     -0.493115    33A     -0.486263
      34A     -0.474313    35A     -0.465013

  @DF-RHF Final Energy:  -529.51618578279658

   => Energetics <=

    Nuclear Repulsion Energy =            464.5532728770861581
    One-Electron Energy =               -1649.2272314351773730
    Two-Electron Energy =                 655.1577727752946885
    Total Energy =                       -529.5161857827965832
  Basis Set: (AUG-CC-PVTZ AUX)
    Blend: AUG-CC-PVTZ-RI
    Molecular point group: c1

    Geometry (in Angstrom), charge = 0, multiplicity = 1:

       Center              X                  Y                   Z               Mass
    ------------   -----------------  -----------------  -----------------  -----------------
         O            0.281784376160     1.615186990847     0.328000494938    15.994914619570
         O            2.195866376160    -1.421438009153     0.202335494938    15.994914619570
         O           -2.799827623840    -0.063011009153    -1.012194505062    15.994914619570
         O            2.657318376160     0.680204990847    -0.524631505062    15.994914619570
         O           -2.243433623840    -0.237897009153     1.178532494938    15.994914619570
         C            0.476458376160     0.217118990847     0.399532494938    12.000000000000
         C           -0.523301623840    -0.505112009153    -0.503943505062    12.000000000000
         C            1.843944176160    -0.113163809153    -0.004264005062    12.000000000000
         C           -1.920770623840    -0.249515009153     0.004057494938    12.000000000000
         H            0.317283376160    -0.108949009153     1.433499494938     1.007825032230
         H           -0.346682623840    -1.586799009153    -0.491586505062     1.007825032230
         H           -0.427494623840    -0.145574009153    -1.531760505062     1.007825032230
         H            1.030767376160     1.965853990847    -0.193485505062     1.007825032230
         H            3.114299376160    -1.546336009153    -0.116859505062     1.007825032230
         H           -3.671129623840     0.074586990847    -0.584583505062     1.007825032230

  Basis Set: AUG-CC-PVTZ
    Blend: AUG-CC-PVTZ
  Basis Set: (AUG-CC-PVTZ AUX)
    Blend: AUG-CC-PVTZ-JKFIT
	 Reference Energy          =    -529.5161857827965832 [Eh]
	 Singles Energy            =      -0.0000000000000000 [Eh]
	 Same-Spin Energy          =      -0.5065153179230797 [Eh]
	 Opposite-Spin Energy      =      -1.5083619621648647 [Eh]
	 Correlation Energy        =      -2.0148772800879442 [Eh]
	 Total Energy              =    -531.5310630628845274 [Eh]

	 ================> DF-SCS-MP2 Energies <==================
	-----------------------------------------------------------
	 SCS Same-Spin Scale       =       0.3333333333333333 [-]
	 SCS Opposite-Spin Scale   =       1.2000000000000000 [-]
	 SCS Same-Spin Energy      =      -0.1688384393076932 [Eh]
	 SCS Opposite-Spin Energy  =      -1.8100343545978377 [Eh]
	 SCS Correlation Energy    =      -1.9788727939055308 [Eh]
	 SCS Total Energy          =    -531.4950585767021494 [Eh]
	-----------------------------------------------------------

  Dipole Moment: [D]
     X:     0.5642      Y:    -2.1070      Z:    -1.5433     Total:     2.6720

*** Psi4 exiting successfully. Buy a developer a beer!
