                               Psi4 1.3.2 release

  ==> Input File <==

--------------------------------------------------------------------------
#psi4
#
memory 32 gb

molecule  {
0 1
  O        0.2778030     1.6259200     0.3386670
  O        2.1914470    -1.4110830     0.2143760
  O       -2.8041000    -0.0533200    -1.0004000
  O        2.6534740     0.6903680    -0.5128080
  O       -2.2475040    -0.2263980     1.1904210
  C        0.4929728     0.2302723     0.3977014
  C       -0.5274950    -0.4947260    -0.4920330
  C        1.8865440    -0.1140510    -0.0062910
  C       -1.9249390    -0.2389030     0.0159280
  H        0.3131310    -0.0976200     1.4451750
  H       -0.3508850    -1.5764080    -0.4792290
  H       -0.4317560    -0.1356430    -1.5200150
  H        1.0272260     1.9763200    -0.1823570
  H        3.1099360    -1.5361820    -0.1045700
  H       -3.6753880     0.0844680    -0.5728280
units angstrom
no_reorient  #important for SAPT in psi4, default
symmetry c1  #important for SAPT in psi4, default
}

set PROPERTIES_ORIGIN ["COM"]
properties('MP2/aug-cc-pvtz', properties = ['dipole'])
--------------------------------------------------------------------------

    Molecular point group: c1
  Charge       = 0
  Multiplicity = 1
  Basis Set: AUG-CC-PVTZ
    Blend: AUG-CC-PVTZ
  Basis Set: (AUG-CC-PVTZ AUX)
    Blend: AUG-CC-PVTZ-JKFIT

    Orbital Energies [Eh]
    ---------------------

    Doubly Occupied:

       1A    -20.645138     2A    -20.625908     3A    -20.581902
       4A    -20.576459     5A    -20.559321     6A    -11.415884
       7A    -11.402215     8A    -11.323601     9A    -11.270364
      10A     -1.491986    11A     -1.469651    12A     -1.398965
      13A     -1.373504    14A     -1.365600    15A     -1.089545
      16A     -0.975372    17A     -0.845869    18A     -0.809986
      19A     -0.761262    20A     -0.736453    21A     -0.713961
      22A     -0.702849    23A     -0.671898    24A     -0.651900
      25A     -0.647211    26A     -0.626934    27A     -0.599063
      28A     -0.590602    29A     -0.558259    30A     -0.549686
      31A     -0.511319    32A     -0.491898    33A     -0.484944
      34A     -0.468637    35A     -0.462360

  @DF-RHF Final Energy:  -529.52257305947671

   => Energetics <=

    Nuclear Repulsion Energy =            464.4491197540938288
    One-Electron Energy =               -1649.0423742652742476
    Two-Electron Energy =                 655.0706814517037628
    Total Energy =                       -529.5225730594767128
  Basis Set: (AUG-CC-PVTZ AUX)
    Blend: AUG-CC-PVTZ-RI
    Molecular point group: c1

    Geometry (in Angstrom), charge = 0, multiplicity = 1:

       Center              X                  Y                   Z               Mass
    ------------   -----------------  -----------------  -----------------  -----------------
         O            0.275902145667     1.616215602873     0.329402050522    15.994914619570
         O            2.189546145667    -1.420787397127     0.205111050522    15.994914619570
         O           -2.806000854333    -0.063024397127    -1.009664949478    15.994914619570
         O            2.651573145667     0.680663602873    -0.522072949478    15.994914619570
         O           -2.249404854333    -0.236102397127     1.181156050522    15.994914619570
         C            0.491071945667     0.220567902873     0.388436450522    12.000000000000
         C           -0.529395854333    -0.504430397127    -0.501297949478    12.000000000000
         C            1.884643145667    -0.123755397127    -0.015555949478    12.000000000000
         C           -1.926839854333    -0.248607397127     0.006663050522    12.000000000000
         H            0.311230145667    -0.107324397127     1.435910050522     1.007825032230
         H           -0.352785854333    -1.586112397127    -0.488493949478     1.007825032230
         H           -0.433656854333    -0.145347397127    -1.529279949478     1.007825032230
         H            1.025325145667     1.966615602873    -0.191621949478     1.007825032230
         H            3.108035145667    -1.545886397127    -0.113834949478     1.007825032230
         H           -3.677288854333     0.074763602873    -0.582092949478     1.007825032230

  Basis Set: AUG-CC-PVTZ
    Blend: AUG-CC-PVTZ
  Basis Set: (AUG-CC-PVTZ AUX)
    Blend: AUG-CC-PVTZ-JKFIT
	 Reference Energy          =    -529.5225730594767128 [Eh]
	 Singles Energy            =      -0.0000000000000000 [Eh]
	 Same-Spin Energy          =      -0.5055908836499622 [Eh]
	 Opposite-Spin Energy      =      -1.5064418448626511 [Eh]
	 Correlation Energy        =      -2.0120327285126134 [Eh]
	 Total Energy              =    -531.5346057879893351 [Eh]

	 ================> DF-SCS-MP2 Energies <==================
	-----------------------------------------------------------
	 SCS Same-Spin Scale       =       0.3333333333333333 [-]
	 SCS Opposite-Spin Scale   =       1.2000000000000000 [-]
	 SCS Same-Spin Energy      =      -0.1685302945499874 [Eh]
	 SCS Opposite-Spin Energy  =      -1.8077302138351812 [Eh]
	 SCS Correlation Energy    =      -1.9762605083851685 [Eh]
	 SCS Total Energy          =    -531.4988335678618796 [Eh]
	-----------------------------------------------------------

  Dipole Moment: [D]
     X:     0.8437      Y:    -2.1666      Z:    -1.5910     Total:     2.8173

*** Psi4 exiting successfully. Buy a developer a beer!
