                               Psi4 1.3.2 release

  ==> Input File <==

--------------------------------------------------------------------------
#psi4
#
memory 32 gb

molecule  {
0 1
  O        0.2778030     1.6259200     0.3386670
  O        2.1914470    -1.4110830     0.2143760
  O       -2.8041000    -0.0533200    -1.0004000
  O        2.6534740     0.6903680    -0.5128080
  O       -2.2475040    -0.2263980     1.1904210
  C        0.4723530     0.2278750     0.4110270
  C       -0.5274950    -0.4947260    -0.4920330
  C        2.0734078    -0.1592313    -0.0614332
  C       -1.9249390    -0.2389030     0.0159280
  H        0.3131310    -0.0976200     1.4451750
  H       -0.3508850    -1.5764080    -0.4792290
  H       -0.4317560    -0.1356430    -1.5200150
  H        1.0272260     1.9763200    -0.1823570
  H        3.1099360    -1.5361820    -0.1045700
  H       -3.6753880     0.0844680    -0.5728280
units angstrom
no_reorient  #important for SAPT in psi4, default
symmetry c1  #important for SAPT in psi4, default
}

set PROPERTIES_ORIGIN ["COM"]
properties('MP2/aug-cc-pvtz', properties = ['dipole'])
--------------------------------------------------------------------------

    Molecular point group: c1
  Charge       = 0
  Multiplicity = 1
  Basis Set: AUG-CC-PVTZ
    Blend: AUG-CC-PVTZ
  Basis Set: (AUG-CC-PVTZ AUX)
    Blend: AUG-CC-PVTZ-JKFIT

    Orbital Energies [Eh]
    ---------------------

    Doubly Occupied:

       1A    -20.666169     2A    -20.617495     3A    -20.594446
       4A    -20.563627     5A    -20.549666     6A    -11.409689
       7A    -11.391375     8A    -11.304240     9A    -11.254760
      10A     -1.543521    11A     -1.463221    12A     -1.460865
      13A     -1.367109    14A     -1.356466    15A     -1.064384
      16A     -0.932138    17A     -0.848861    18A     -0.798445
      19A     -0.775717    20A     -0.747173    21A     -0.706815
      22A     -0.705388    23A     -0.682099    24A     -0.665882
      25A     -0.656719    26A     -0.624921    27A     -0.592970
      28A     -0.583498    29A     -0.556916    30A     -0.550764
      31A     -0.544742    32A     -0.480915    33A     -0.458545
      34A     -0.456015    35A     -0.424111

  @DF-RHF Final Energy:  -529.48403505178135

   => Energetics <=

    Nuclear Repulsion Energy =            463.6062982375643742
    One-Electron Energy =               -1647.3813338278862375
    Two-Electron Energy =                 654.2910005385404020
    Total Energy =                       -529.4840350517813476
  Basis Set: (AUG-CC-PVTZ AUX)
    Blend: AUG-CC-PVTZ-RI
    Molecular point group: c1

    Geometry (in Angstrom), charge = 0, multiplicity = 1:

       Center              X                  Y                   Z               Mass
    ------------   -----------------  -----------------  -----------------  -----------------
         O            0.261017014152     1.620475599223     0.333146219277    15.994914619570
         O            2.174661014152    -1.416527400777     0.208855219277    15.994914619570
         O           -2.820885985848    -0.058764400777    -1.005920780723    15.994914619570
         O            2.636688014152     0.684923599223    -0.518328780723    15.994914619570
         O           -2.264289985848    -0.231842400777     1.184900219277    15.994914619570
         C            0.455567014152     0.222430599223     0.405506219277    12.000000000000
         C           -0.544280985848    -0.500170400777    -0.497553780723    12.000000000000
         C            2.056621814152    -0.164675700777    -0.066953980723    12.000000000000
         C           -1.941724985848    -0.244347400777     0.010407219277    12.000000000000
         H            0.296345014152    -0.103064400777     1.439654219277     1.007825032230
         H           -0.367670985848    -1.581852400777    -0.484749780723     1.007825032230
         H           -0.448541985848    -0.141087400777    -1.525535780723     1.007825032230
         H            1.010440014152     1.970875599223    -0.187877780723     1.007825032230
         H            3.093150014152    -1.541626400777    -0.110090780723     1.007825032230
         H           -3.692173985848     0.079023599223    -0.578348780723     1.007825032230

  Basis Set: AUG-CC-PVTZ
    Blend: AUG-CC-PVTZ
  Basis Set: (AUG-CC-PVTZ AUX)
    Blend: AUG-CC-PVTZ-JKFIT
	 Reference Energy          =    -529.4840350517813476 [Eh]
	 Singles Energy            =      -0.0000000000000000 [Eh]
	 Same-Spin Energy          =      -0.5043143704547559 [Eh]
	 Opposite-Spin Energy      =      -1.5035162850701831 [Eh]
	 Correlation Energy        =      -2.0078306555249390 [Eh]
	 Total Energy              =    -531.4918657073062604 [Eh]

	 ================> DF-SCS-MP2 Energies <==================
	-----------------------------------------------------------
	 SCS Same-Spin Scale       =       0.3333333333333333 [-]
	 SCS Opposite-Spin Scale   =       1.2000000000000000 [-]
	 SCS Same-Spin Energy      =      -0.1681047901515853 [Eh]
	 SCS Opposite-Spin Energy  =      -1.8042195420842195 [Eh]
	 SCS Correlation Energy    =      -1.9723243322358048 [Eh]
	 SCS Total Energy          =    -531.4563593840171052 [Eh]
	-----------------------------------------------------------

  Dipole Moment: [D]
     X:     2.1044      Y:    -2.4233      Z:    -1.8238     Total:     3.6915

*** Psi4 exiting successfully. Buy a developer a beer!
