                               Psi4 1.3.2 release

  ==> Input File <==

--------------------------------------------------------------------------
#psi4
#
memory 32 gb

molecule  {
0 1
  O        0.2778030     1.6259200     0.3386670
  O        2.1914470    -1.4110830     0.2143760
  O       -2.8041000    -0.0533200    -1.0004000
  O        2.6534740     0.6903680    -0.5128080
  O       -2.2475040    -0.2263980     1.1904210
  C        0.4723530     0.2278750     0.4110270
  C       -0.5274950    -0.4947260    -0.4920330
  C        1.9080433    -0.1107567    -0.0153751
  C       -1.9249390    -0.2389030     0.0159280
  H        0.3131310    -0.0976200     1.4451750
  H       -0.3508850    -1.5764080    -0.4792290
  H       -0.4317560    -0.1356430    -1.5200150
  H        1.0272260     1.9763200    -0.1823570
  H        3.1099360    -1.5361820    -0.1045700
  H       -3.6753880     0.0844680    -0.5728280
units angstrom
no_reorient  #important for SAPT in psi4, default
symmetry c1  #important for SAPT in psi4, default
}

set PROPERTIES_ORIGIN ["COM"]
properties('MP2/aug-cc-pvtz', properties = ['dipole'])
--------------------------------------------------------------------------

    Molecular point group: c1
  Charge       = 0
  Multiplicity = 1
  Basis Set: AUG-CC-PVTZ
    Blend: AUG-CC-PVTZ
  Basis Set: (AUG-CC-PVTZ AUX)
    Blend: AUG-CC-PVTZ-JKFIT

    Orbital Energies [Eh]
    ---------------------

    Doubly Occupied:

       1A    -20.644451     2A    -20.624914     3A    -20.584461
       4A    -20.574382     5A    -20.558357     6A    -11.413765
       7A    -11.400915     8A    -11.322519     9A    -11.268099
      10A     -1.495500    11A     -1.468735    12A     -1.403479
      13A     -1.376376    14A     -1.364854    15A     -1.086337
      16A     -0.965739    17A     -0.844839    18A     -0.809273
      19A     -0.757743    20A     -0.738715    21A     -0.713224
      22A     -0.702099    23A     -0.671995    24A     -0.653583
      25A     -0.649185    26A     -0.629286    27A     -0.599669
      28A     -0.589637    29A     -0.557270    30A     -0.548345
      31A     -0.517312    32A     -0.490254    33A     -0.482435
      34A     -0.469384    35A     -0.460178

  @DF-RHF Final Energy:  -529.52457962090750

   => Energetics <=

    Nuclear Repulsion Energy =            464.2672021314737094
    One-Electron Energy =               -1648.7089378846776526
    Two-Electron Energy =                 654.9171561322963271
    Total Energy =                       -529.5245796209075024
  Basis Set: (AUG-CC-PVTZ AUX)
    Blend: AUG-CC-PVTZ-RI
    Molecular point group: c1

    Geometry (in Angstrom), charge = 0, multiplicity = 1:

       Center              X                  Y                   Z               Mass
    ------------   -----------------  -----------------  -----------------  -----------------
         O            0.275823397121     1.616135287415     0.329022275701    15.994914619570
         O            2.189467397121    -1.420867712585     0.204731275701    15.994914619570
         O           -2.806079602879    -0.063104712585    -1.010044724299    15.994914619570
         O            2.651494397121     0.680583287415    -0.522452724299    15.994914619570
         O           -2.249483602879    -0.236182712585     1.180776275701    15.994914619570
         C            0.470373397121     0.218090287415     0.401382275701    12.000000000000
         C           -0.529474602879    -0.504510712585    -0.501677724299    12.000000000000
         C            1.906063697121    -0.120541412585    -0.025019824299    12.000000000000
         C           -1.926918602879    -0.248687712585     0.006283275701    12.000000000000
         H            0.311151397121    -0.107404712585     1.435530275701     1.007825032230
         H           -0.352864602879    -1.586192712585    -0.488873724299     1.007825032230
         H           -0.433735602879    -0.145427712585    -1.529659724299     1.007825032230
         H            1.025246397121     1.966535287415    -0.192001724299     1.007825032230
         H            3.107956397121    -1.545966712585    -0.114214724299     1.007825032230
         H           -3.677367602879     0.074683287415    -0.582472724299     1.007825032230

  Basis Set: AUG-CC-PVTZ
    Blend: AUG-CC-PVTZ
  Basis Set: (AUG-CC-PVTZ AUX)
    Blend: AUG-CC-PVTZ-JKFIT
	 Reference Energy          =    -529.5245796209075024 [Eh]
	 Singles Energy            =      -0.0000000000000000 [Eh]
	 Same-Spin Energy          =      -0.5049524639787306 [Eh]
	 Opposite-Spin Energy      =      -1.5052694323544817 [Eh]
	 Correlation Energy        =      -2.0102218963332126 [Eh]
	 Total Energy              =    -531.5348015172406804 [Eh]

	 ================> DF-SCS-MP2 Energies <==================
	-----------------------------------------------------------
	 SCS Same-Spin Scale       =       0.3333333333333333 [-]
	 SCS Opposite-Spin Scale   =       1.2000000000000000 [-]
	 SCS Same-Spin Energy      =      -0.1683174879929102 [Eh]
	 SCS Opposite-Spin Energy  =      -1.8063233188253780 [Eh]
	 SCS Correlation Energy    =      -1.9746408068182881 [Eh]
	 SCS Total Energy          =    -531.4992204277258452 [Eh]
	-----------------------------------------------------------

  Dipole Moment: [D]
     X:     0.9788      Y:    -2.1449      Z:    -1.6291     Total:     2.8657

*** Psi4 exiting successfully. Buy a developer a beer!
