                               Psi4 1.3.2 release

  ==> Input File <==

--------------------------------------------------------------------------
#psi4
#
memory 32 gb

molecule  {
0 1
  O        0.2778030     1.6259200     0.3386670
  O        2.1914470    -1.4110830     0.2143760
  O       -2.8041000    -0.0533200    -1.0004000
  O        2.6534740     0.6903680    -0.5128080
  O       -2.2475040    -0.2263980     1.1904210
  C        0.4723530     0.2278750     0.4110270
  C       -0.5274950    -0.4947260    -0.4920330
  C        1.8516640    -0.0499677    -0.1469233
  C       -1.9249390    -0.2389030     0.0159280
  H        0.3131310    -0.0976200     1.4451750
  H       -0.3508850    -1.5764080    -0.4792290
  H       -0.4317560    -0.1356430    -1.5200150
  H        1.0272260     1.9763200    -0.1823570
  H        3.1099360    -1.5361820    -0.1045700
  H       -3.6753880     0.0844680    -0.5728280
units angstrom
no_reorient  #important for SAPT in psi4, default
symmetry c1  #important for SAPT in psi4, default
}

set PROPERTIES_ORIGIN ["COM"]
properties('MP2/aug-cc-pvtz', properties = ['dipole'])
--------------------------------------------------------------------------

    Molecular point group: c1
  Charge       = 0
  Multiplicity = 1
  Basis Set: AUG-CC-PVTZ
    Blend: AUG-CC-PVTZ
  Basis Set: (AUG-CC-PVTZ AUX)
    Blend: AUG-CC-PVTZ-JKFIT

    Orbital Energies [Eh]
    ---------------------

    Doubly Occupied:

       1A    -20.625935     2A    -20.616695     3A    -20.601874
       4A    -20.578642     5A    -20.559807     6A    -11.412850
       7A    -11.401949     8A    -11.326591     9A    -11.268837
      10A     -1.504574    11A     -1.469927    12A     -1.388577
      13A     -1.380669    14A     -1.366461    15A     -1.090979
      16A     -0.965267    17A     -0.833145    18A     -0.807897
      19A     -0.756034    20A     -0.738544    21A     -0.714712
      22A     -0.704640    23A     -0.673220    24A     -0.647295
      25A     -0.645239    26A     -0.634676    27A     -0.599582
      28A     -0.589289    29A     -0.560867    30A     -0.558089
      31A     -0.522877    32A     -0.491123    33A     -0.486914
      34A     -0.471650    35A     -0.459747

  @DF-RHF Final Energy:  -529.50649804276009

   => Energetics <=

    Nuclear Repulsion Energy =            464.7701232570428260
    One-Electron Energy =               -1649.6428975215333139
    Two-Electron Energy =                 655.3662762217304589
    Total Energy =                       -529.5064980427600858
  Basis Set: (AUG-CC-PVTZ AUX)
    Blend: AUG-CC-PVTZ-RI
    Molecular point group: c1

    Geometry (in Angstrom), charge = 0, multiplicity = 1:

       Center              X                  Y                   Z               Mass
    ------------   -----------------  -----------------  -----------------  -----------------
         O            0.280871478828     1.610692370620     0.340800819634    15.994914619570
         O            2.194515478828    -1.426310629380     0.216509819634    15.994914619570
         O           -2.801031521172    -0.068547629380    -0.998266180366    15.994914619570
         O            2.656542478828     0.675140370620    -0.510674180366    15.994914619570
         O           -2.244435521172    -0.241625629380     1.192554819634    15.994914619570
         C            0.475421478828     0.212647370620     0.413160819634    12.000000000000
         C           -0.524426521172    -0.509953629380    -0.489899180366    12.000000000000
         C            1.854732478828    -0.065195329380    -0.144789480366    12.000000000000
         C           -1.921870521172    -0.254130629380     0.018061819634    12.000000000000
         H            0.316199478828    -0.112847629380     1.447308819634     1.007825032230
         H           -0.347816521172    -1.591635629380    -0.477095180366     1.007825032230
         H           -0.428687521172    -0.150870629380    -1.517881180366     1.007825032230
         H            1.030294478828     1.961092370620    -0.180223180366     1.007825032230
         H            3.113004478828    -1.551409629380    -0.102436180366     1.007825032230
         H           -3.672319521172     0.069240370620    -0.570694180366     1.007825032230

  Basis Set: AUG-CC-PVTZ
    Blend: AUG-CC-PVTZ
  Basis Set: (AUG-CC-PVTZ AUX)
    Blend: AUG-CC-PVTZ-JKFIT
	 Reference Energy          =    -529.5064980427600858 [Eh]
	 Singles Energy            =      -0.0000000000000000 [Eh]
	 Same-Spin Energy          =      -0.5050543311597112 [Eh]
	 Opposite-Spin Energy      =      -1.5065392096462533 [Eh]
	 Correlation Energy        =      -2.0115935408059644 [Eh]
	 Total Energy              =    -531.5180915835660471 [Eh]

	 ================> DF-SCS-MP2 Energies <==================
	-----------------------------------------------------------
	 SCS Same-Spin Scale       =       0.3333333333333333 [-]
	 SCS Opposite-Spin Scale   =       1.2000000000000000 [-]
	 SCS Same-Spin Energy      =      -0.1683514437199037 [Eh]
	 SCS Opposite-Spin Energy  =      -1.8078470515755038 [Eh]
	 SCS Correlation Energy    =      -1.9761984952954075 [Eh]
	 SCS Total Energy          =    -531.4826965380555066 [Eh]
	-----------------------------------------------------------

  Dipole Moment: [D]
     X:     0.7855      Y:    -1.4088      Z:    -1.9321     Total:     2.5169

*** Psi4 exiting successfully. Buy a developer a beer!
