                               Psi4 1.3.2 release

  ==> Input File <==

--------------------------------------------------------------------------
#psi4
#
memory 32 gb

molecule  {
0 1
  O        0.2778030     1.6259200     0.3386670
  O        2.1914470    -1.4110830     0.2143760
  O       -2.8041000    -0.0533200    -1.0004000
  O        2.6534740     0.6903680    -0.5128080
  O       -2.2475040    -0.2263980     1.1904210
  C        0.5873590     0.1691340     0.3165188
  C       -0.5274950    -0.4947260    -0.4920330
  C        1.8865440    -0.1140510    -0.0062910
  C       -1.9249390    -0.2389030     0.0159280
  H        0.3131310    -0.0976200     1.4451750
  H       -0.3508850    -1.5764080    -0.4792290
  H       -0.4317560    -0.1356430    -1.5200150
  H        1.0272260     1.9763200    -0.1823570
  H        3.1099360    -1.5361820    -0.1045700
  H       -3.6753880     0.0844680    -0.5728280
units angstrom
no_reorient  #important for SAPT in psi4, default
symmetry c1  #important for SAPT in psi4, default
}

set PROPERTIES_ORIGIN ["COM"]
properties('MP2/aug-cc-pvtz', properties = ['dipole'])
--------------------------------------------------------------------------

    Molecular point group: c1
  Charge       = 0
  Multiplicity = 1
  Basis Set: AUG-CC-PVTZ
    Blend: AUG-CC-PVTZ
  Basis Set: (AUG-CC-PVTZ AUX)
    Blend: AUG-CC-PVTZ-JKFIT

    Orbital Energies [Eh]
    ---------------------

    Doubly Occupied:

       1A    -20.645188     2A    -20.628640     3A    -20.582589
       4A    -20.574360     5A    -20.561456     6A    -11.413689
       7A    -11.406312     8A    -11.323838     9A    -11.276990
      10A     -1.496651    11A     -1.471886    12A     -1.395911
      13A     -1.368791    14A     -1.354317    15A     -1.103652
      16A     -1.002860    17A     -0.847761    18A     -0.804787
      19A     -0.762386    20A     -0.738202    21A     -0.715347
      22A     -0.707178    23A     -0.671233    24A     -0.654510
      25A     -0.641193    26A     -0.617288    27A     -0.594111
      28A     -0.592630    29A     -0.559238    30A     -0.540731
      31A     -0.511053    32A     -0.498030    33A     -0.488153
      34A     -0.467011    35A     -0.461736

  @DF-RHF Final Energy:  -529.49008909244230

   => Energetics <=

    Nuclear Repulsion Energy =            465.0270228072839132
    One-Electron Energy =               -1650.0748138351375474
    Two-Electron Energy =                 655.5577019354113872
    Total Energy =                       -529.4900890924423038
  Basis Set: (AUG-CC-PVTZ AUX)
    Blend: AUG-CC-PVTZ-RI
    Molecular point group: c1

    Geometry (in Angstrom), charge = 0, multiplicity = 1:

       Center              X                  Y                   Z               Mass
    ------------   -----------------  -----------------  -----------------  -----------------
         O            0.267451007580     1.621689795241     0.336670966559    15.994914619570
         O            2.181095007580    -1.415313204759     0.212379966559    15.994914619570
         O           -2.814451992420    -0.057550204759    -1.002396033441    15.994914619570
         O            2.643122007580     0.686137795241    -0.514804033441    15.994914619570
         O           -2.257855992420    -0.230628204759     1.188424966559    15.994914619570
         C            0.577007007580     0.164903795241     0.314522766559    12.000000000000
         C           -0.537846992420    -0.498956204759    -0.494029033441    12.000000000000
         C            1.876192007580    -0.118281204759    -0.008287033441    12.000000000000
         C           -1.935290992420    -0.243133204759     0.013931966559    12.000000000000
         H            0.302779007580    -0.101850204759     1.443178966559     1.007825032230
         H           -0.361236992420    -1.580638204759    -0.481225033441     1.007825032230
         H           -0.442107992420    -0.139873204759    -1.522011033441     1.007825032230
         H            1.016874007580     1.972089795241    -0.184353033441     1.007825032230
         H            3.099584007580    -1.540412204759    -0.106566033441     1.007825032230
         H           -3.685739992420     0.080237795241    -0.574824033441     1.007825032230

  Basis Set: AUG-CC-PVTZ
    Blend: AUG-CC-PVTZ
  Basis Set: (AUG-CC-PVTZ AUX)
    Blend: AUG-CC-PVTZ-JKFIT
	 Reference Energy          =    -529.4900890924423038 [Eh]
	 Singles Energy            =      -0.0000000000000000 [Eh]
	 Same-Spin Energy          =      -0.5077502039695134 [Eh]
	 Opposite-Spin Energy      =      -1.5112910493855698 [Eh]
	 Correlation Energy        =      -2.0190412533550832 [Eh]
	 Total Energy              =    -531.5091303457974163 [Eh]

	 ================> DF-SCS-MP2 Energies <==================
	-----------------------------------------------------------
	 SCS Same-Spin Scale       =       0.3333333333333333 [-]
	 SCS Opposite-Spin Scale   =       1.2000000000000000 [-]
	 SCS Same-Spin Energy      =      -0.1692500679898378 [Eh]
	 SCS Opposite-Spin Energy  =      -1.8135492592626836 [Eh]
	 SCS Correlation Energy    =      -1.9827993272525215 [Eh]
	 SCS Total Energy          =    -531.4728884196948684 [Eh]
	-----------------------------------------------------------

  Dipole Moment: [D]
     X:     0.7040      Y:    -2.2958      Z:    -1.6323     Total:     2.9036

*** Psi4 exiting successfully. Buy a developer a beer!
