                               Psi4 1.3.2 release

  ==> Input File <==

--------------------------------------------------------------------------
#psi4
#
memory 32 gb

molecule  {
0 1
  O        0.2778030     1.6259200     0.3386670
  O        2.2341044    -1.4033482     0.1958631
  O       -2.8041000    -0.0533200    -1.0004000
  O        2.6534740     0.6903680    -0.5128080
  O       -2.2475040    -0.2263980     1.1904210
  C        0.4723530     0.2278750     0.4110270
  C       -0.5274950    -0.4947260    -0.4920330
  C        1.8865440    -0.1140510    -0.0062910
  C       -1.9249390    -0.2389030     0.0159280
  H        0.3131310    -0.0976200     1.4451750
  H       -0.3508850    -1.5764080    -0.4792290
  H       -0.4317560    -0.1356430    -1.5200150
  H        1.0272260     1.9763200    -0.1823570
  H        3.1099360    -1.5361820    -0.1045700
  H       -3.6753880     0.0844680    -0.5728280
units angstrom
no_reorient  #important for SAPT in psi4, default
symmetry c1  #important for SAPT in psi4, default
}

set PROPERTIES_ORIGIN ["COM"]
properties('MP2/aug-cc-pvtz', properties = ['dipole'])
--------------------------------------------------------------------------

    Molecular point group: c1
  Charge       = 0
  Multiplicity = 1
  Basis Set: AUG-CC-PVTZ
    Blend: AUG-CC-PVTZ
  Basis Set: (AUG-CC-PVTZ AUX)
    Blend: AUG-CC-PVTZ-JKFIT

    Orbital Energies [Eh]
    ---------------------

    Doubly Occupied:

       1A    -20.638454     2A    -20.626358     3A    -20.579899
       4A    -20.576983     5A    -20.560039     6A    -11.416186
       7A    -11.402725     8A    -11.326124     9A    -11.270865
      10A     -1.495574    11A     -1.470266    12A     -1.399505
      13A     -1.373354    14A     -1.366204    15A     -1.091489
      16A     -0.974744    17A     -0.854241    18A     -0.813637
      19A     -0.763537    20A     -0.735459    21A     -0.714762
      22A     -0.703736    23A     -0.673655    24A     -0.652243
      25A     -0.648114    26A     -0.626747    27A     -0.600996
      28A     -0.590848    29A     -0.559654    30A     -0.548707
      31A     -0.509505    32A     -0.491864    33A     -0.484276
      34A     -0.472072    35A     -0.462744

  @DF-RHF Final Energy:  -529.52464779014156

   => Energetics <=

    Nuclear Repulsion Energy =            464.2088303361724684
    One-Electron Energy =               -1648.5158254865959861
    Two-Electron Energy =                 654.7823473602819604
    Total Energy =                       -529.5246477901415574
  Basis Set: (AUG-CC-PVTZ AUX)
    Blend: AUG-CC-PVTZ-RI
    Molecular point group: c1

    Geometry (in Angstrom), charge = 0, multiplicity = 1:

       Center              X                  Y                   Z               Mass
    ------------   -----------------  -----------------  -----------------  -----------------
         O            0.272657414073     1.615507135581     0.330418342917    15.994914619570
         O            2.228958814073    -1.413761064419     0.187614442917    15.994914619570
         O           -2.809245585927    -0.063732864419    -1.008648657083    15.994914619570
         O            2.648328414073     0.679955135581    -0.521056657083    15.994914619570
         O           -2.252649585927    -0.236810864419     1.182172342917    15.994914619570
         C            0.467207414073     0.217462135581     0.402778342917    12.000000000000
         C           -0.532640585927    -0.505138864419    -0.500281657083    12.000000000000
         C            1.881398414073    -0.124463864419    -0.014539657083    12.000000000000
         C           -1.930084585927    -0.249315864419     0.007679342917    12.000000000000
         H            0.307985414073    -0.108032864419     1.436926342917     1.007825032230
         H           -0.356030585927    -1.586820864419    -0.487477657083     1.007825032230
         H           -0.436901585927    -0.146055864419    -1.528263657083     1.007825032230
         H            1.022080414073     1.965907135581    -0.190605657083     1.007825032230
         H            3.104790414073    -1.546594864419    -0.112818657083     1.007825032230
         H           -3.680533585927     0.074055135581    -0.581076657083     1.007825032230

  Basis Set: AUG-CC-PVTZ
    Blend: AUG-CC-PVTZ
  Basis Set: (AUG-CC-PVTZ AUX)
    Blend: AUG-CC-PVTZ-JKFIT
	 Reference Energy          =    -529.5246477901415574 [Eh]
	 Singles Energy            =      -0.0000000000000000 [Eh]
	 Same-Spin Energy          =      -0.5046147831837402 [Eh]
	 Opposite-Spin Energy      =      -1.5044314568861501 [Eh]
	 Correlation Energy        =      -2.0090462400698903 [Eh]
	 Total Energy              =    -531.5336940302114499 [Eh]

	 ================> DF-SCS-MP2 Energies <==================
	-----------------------------------------------------------
	 SCS Same-Spin Scale       =       0.3333333333333333 [-]
	 SCS Opposite-Spin Scale   =       1.2000000000000000 [-]
	 SCS Same-Spin Energy      =      -0.1682049277279134 [Eh]
	 SCS Opposite-Spin Energy  =      -1.8053177482633800 [Eh]
	 SCS Correlation Energy    =      -1.9735226759912934 [Eh]
	 SCS Total Energy          =    -531.4981704661328195 [Eh]
	-----------------------------------------------------------

  Dipole Moment: [D]
     X:     0.7479      Y:    -2.1508      Z:    -1.5670     Total:     2.7642

*** Psi4 exiting successfully. Buy a developer a beer!
