                               Psi4 1.3.2 release

  ==> Input File <==

--------------------------------------------------------------------------
#psi4
#
memory 32 gb

molecule  {
0 1
  O        0.2778030     1.6259200     0.3386670
  O        2.1484182    -1.4172376     0.2326201
  O       -2.8041000    -0.0533200    -1.0004000
  O        2.6534740     0.6903680    -0.5128080
  O       -2.2475040    -0.2263980     1.1904210
  C        0.4723530     0.2278750     0.4110270
  C       -0.5274950    -0.4947260    -0.4920330
  C        1.8865440    -0.1140510    -0.0062910
  C       -1.9249390    -0.2389030     0.0159280
  H        0.3131310    -0.0976200     1.4451750
  H       -0.3508850    -1.5764080    -0.4792290
  H       -0.4317560    -0.1356430    -1.5200150
  H        1.0272260     1.9763200    -0.1823570
  H        3.1099360    -1.5361820    -0.1045700
  H       -3.6753880     0.0844680    -0.5728280
units angstrom
no_reorient  #important for SAPT in psi4, default
symmetry c1  #important for SAPT in psi4, default
}

set PROPERTIES_ORIGIN ["COM"]
properties('MP2/aug-cc-pvtz', properties = ['dipole'])
--------------------------------------------------------------------------

    Molecular point group: c1
  Charge       = 0
  Multiplicity = 1
  Basis Set: AUG-CC-PVTZ
    Blend: AUG-CC-PVTZ
  Basis Set: (AUG-CC-PVTZ AUX)
    Blend: AUG-CC-PVTZ-JKFIT

    Orbital Energies [Eh]
    ---------------------

    Doubly Occupied:

       1A    -20.650545     2A    -20.625184     3A    -20.583992
       4A    -20.574048     5A    -20.558672     6A    -11.415972
       7A    -11.401274     8A    -11.321454     9A    -11.268776
      10A     -1.487404    11A     -1.469002    12A     -1.396640
      13A     -1.372966    14A     -1.364937    15A     -1.088241
      16A     -0.968514    17A     -0.840138    18A     -0.808109
      19A     -0.755109    20A     -0.735518    21A     -0.713324
      22A     -0.701833    23A     -0.671377    24A     -0.651449
      25A     -0.647341    26A     -0.628266    27A     -0.599510
      28A     -0.589516    29A     -0.557393    30A     -0.546405
      31A     -0.512744    32A     -0.490749    33A     -0.483541
      34A     -0.469613    35A     -0.460907

  @DF-RHF Final Energy:  -529.51776538722345

   => Energetics <=

    Nuclear Repulsion Energy =            464.5012690729082578
    One-Electron Energy =               -1649.2171388238111831
    Two-Electron Energy =                 655.1981043636795903
    Total Energy =                       -529.5177653872234487
  Basis Set: (AUG-CC-PVTZ AUX)
    Blend: AUG-CC-PVTZ-RI
    Molecular point group: c1

    Geometry (in Angstrom), charge = 0, multiplicity = 1:

       Center              X                  Y                   Z               Mass
    ------------   -----------------  -----------------  -----------------  -----------------
         O            0.282883707726     1.617164778038     0.326031546959    15.994914619570
         O            2.153498907726    -1.425992821962     0.219984646959    15.994914619570
         O           -2.799019292274    -0.062075221962    -1.013035453041    15.994914619570
         O            2.658554707726     0.681612778038    -0.525443453041    15.994914619570
         O           -2.242423292274    -0.235153221962     1.177785546959    15.994914619570
         C            0.477433707726     0.219119778038     0.398391546959    12.000000000000
         C           -0.522414292274    -0.503481221962    -0.504668453041    12.000000000000
         C            1.891624707726    -0.122806221962    -0.018926453041    12.000000000000
         C           -1.919858292274    -0.247658221962     0.003292546959    12.000000000000
         H            0.318211707726    -0.106375221962     1.432539546959     1.007825032230
         H           -0.345804292274    -1.585163221962    -0.491864453041     1.007825032230
         H           -0.426675292274    -0.144398221962    -1.532650453041     1.007825032230
         H            1.032306707726     1.967564778038    -0.194992453041     1.007825032230
         H            3.115016707726    -1.544937221962    -0.117205453041     1.007825032230
         H           -3.670307292274     0.075712778038    -0.585463453041     1.007825032230

  Basis Set: AUG-CC-PVTZ
    Blend: AUG-CC-PVTZ
  Basis Set: (AUG-CC-PVTZ AUX)
    Blend: AUG-CC-PVTZ-JKFIT
	 Reference Energy          =    -529.5177653872234487 [Eh]
	 Singles Energy            =      -0.0000000000000000 [Eh]
	 Same-Spin Energy          =      -0.5063391207405992 [Eh]
	 Opposite-Spin Energy      =      -1.5081468399253450 [Eh]
	 Correlation Energy        =      -2.0144859606659442 [Eh]
	 Total Energy              =    -531.5322513478894280 [Eh]

	 ================> DF-SCS-MP2 Energies <==================
	-----------------------------------------------------------
	 SCS Same-Spin Scale       =       0.3333333333333333 [-]
	 SCS Opposite-Spin Scale   =       1.2000000000000000 [-]
	 SCS Same-Spin Energy      =      -0.1687797069135331 [Eh]
	 SCS Opposite-Spin Energy  =      -1.8097762079104140 [Eh]
	 SCS Correlation Energy    =      -1.9785559148239471 [Eh]
	 SCS Total Energy          =    -531.4963213020473631 [Eh]
	-----------------------------------------------------------

  Dipole Moment: [D]
     X:     0.9462      Y:    -2.2113      Z:    -1.6066     Total:     2.8924

*** Psi4 exiting successfully. Buy a developer a beer!
