                               Psi4 1.3.2 release

  ==> Input File <==

--------------------------------------------------------------------------
#psi4
#
memory 32 gb

molecule  {
0 1
  O        0.2778030     1.6259200     0.3386670
  O        2.2128254    -1.4074126     0.2051518
  O       -2.8041000    -0.0533200    -1.0004000
  O        2.6534740     0.6903680    -0.5128080
  O       -2.2475040    -0.2263980     1.1904210
  C        0.4723530     0.2278750     0.4110270
  C       -0.5274950    -0.4947260    -0.4920330
  C        1.8865440    -0.1140510    -0.0062910
  C       -1.9249390    -0.2389030     0.0159280
  H        0.3131310    -0.0976200     1.4451750
  H       -0.3508850    -1.5764080    -0.4792290
  H       -0.4317560    -0.1356430    -1.5200150
  H        1.0272260     1.9763200    -0.1823570
  H        3.1099360    -1.5361820    -0.1045700
  H       -3.6753880     0.0844680    -0.5728280
units angstrom
no_reorient  #important for SAPT in psi4, default
symmetry c1  #important for SAPT in psi4, default
}

set PROPERTIES_ORIGIN ["COM"]
properties('MP2/aug-cc-pvtz', properties = ['dipole'])
--------------------------------------------------------------------------

    Molecular point group: c1
  Charge       = 0
  Multiplicity = 1
  Basis Set: AUG-CC-PVTZ
    Blend: AUG-CC-PVTZ
  Basis Set: (AUG-CC-PVTZ AUX)
    Blend: AUG-CC-PVTZ-JKFIT

    Orbital Energies [Eh]
    ---------------------

    Doubly Occupied:

       1A    -20.641699     2A    -20.626061     3A    -20.580905
       4A    -20.576244     5A    -20.559692     6A    -11.416039
       7A    -11.402358     8A    -11.324936     9A    -11.270338
      10A     -1.493256    11A     -1.469946    12A     -1.398699
      13A     -1.373220    14A     -1.365882    15A     -1.090662
      16A     -0.973046    17A     -0.849995    18A     -0.812346
      19A     -0.761199    20A     -0.735955    21A     -0.714408
      22A     -0.703257    23A     -0.673131    24A     -0.652073
      25A     -0.648038    26A     -0.627195    27A     -0.600648
      28A     -0.590514    29A     -0.559082    30A     -0.548172
      31A     -0.510312    32A     -0.491607    33A     -0.484171
      34A     -0.471451    35A     -0.462300

  @DF-RHF Final Energy:  -529.52471919434288

   => Energetics <=

    Nuclear Repulsion Energy =            464.2657688611934645
    One-Electron Energy =               -1648.6632985365176864
    Two-Electron Energy =                 654.8728104809813431
    Total Energy =                       -529.5247191943428788
  Basis Set: (AUG-CC-PVTZ AUX)
    Blend: AUG-CC-PVTZ-RI
    Molecular point group: c1

    Geometry (in Angstrom), charge = 0, multiplicity = 1:

       Center              X                  Y                   Z               Mass
    ------------   -----------------  -----------------  -----------------  -----------------
         O            0.275196974733     1.615992204915     0.329309774981    15.994914619570
         O            2.210219374733    -1.417340395085     0.195794574981    15.994914619570
         O           -2.806706025267    -0.063247795085    -1.009757225019    15.994914619570
         O            2.650867974733     0.680440204915    -0.522165225019    15.994914619570
         O           -2.250110025267    -0.236325795085     1.181063774981    15.994914619570
         C            0.469746974733     0.217947204915     0.401669774981    12.000000000000
         C           -0.530101025267    -0.504653795085    -0.501390225019    12.000000000000
         C            1.883937974733    -0.123978795085    -0.015648225019    12.000000000000
         C           -1.927545025267    -0.248830795085     0.006570774981    12.000000000000
         H            0.310524974733    -0.107547795085     1.435817774981     1.007825032230
         H           -0.353491025267    -1.586335795085    -0.488586225019     1.007825032230
         H           -0.434362025267    -0.145570795085    -1.529372225019     1.007825032230
         H            1.024619974733     1.966392204915    -0.191714225019     1.007825032230
         H            3.107329974733    -1.546109795085    -0.113927225019     1.007825032230
         H           -3.677994025267     0.074540204915    -0.582185225019     1.007825032230

  Basis Set: AUG-CC-PVTZ
    Blend: AUG-CC-PVTZ
  Basis Set: (AUG-CC-PVTZ AUX)
    Blend: AUG-CC-PVTZ-JKFIT
	 Reference Energy          =    -529.5247191943428788 [Eh]
	 Singles Energy            =      -0.0000000000000000 [Eh]
	 Same-Spin Energy          =      -0.5050172499298877 [Eh]
	 Opposite-Spin Energy      =      -1.5052838356689118 [Eh]
	 Correlation Energy        =      -2.0103010855987993 [Eh]
	 Total Energy              =    -531.5350202799417048 [Eh]

	 ================> DF-SCS-MP2 Energies <==================
	-----------------------------------------------------------
	 SCS Same-Spin Scale       =       0.3333333333333333 [-]
	 SCS Opposite-Spin Scale   =       1.2000000000000000 [-]
	 SCS Same-Spin Energy      =      -0.1683390833099626 [Eh]
	 SCS Opposite-Spin Energy  =      -1.8063406028026940 [Eh]
	 SCS Correlation Energy    =      -1.9746796861126565 [Eh]
	 SCS Total Energy          =    -531.4993988804554874 [Eh]
	-----------------------------------------------------------

  Dipole Moment: [D]
     X:     0.7994      Y:    -2.1669      Z:    -1.5773     Total:     2.7969

*** Psi4 exiting successfully. Buy a developer a beer!
