                               Psi4 1.3.2 release

  ==> Input File <==

--------------------------------------------------------------------------
#psi4
#
memory 32 gb

molecule  {
0 1
  O        0.2778030     1.6259200     0.3386670
  O        2.1914470    -1.4110830     0.2143760
  O       -2.8041000    -0.0533200    -1.0004000
  O        2.6534740     0.6903680    -0.5128080
  O       -2.2475040    -0.2263980     1.1904210
  C        0.4585880     0.3267907     0.4059073
  C       -0.5274950    -0.4947260    -0.4920330
  C        1.8865440    -0.1140510    -0.0062910
  C       -1.9249390    -0.2389030     0.0159280
  H        0.3131310    -0.0976200     1.4451750
  H       -0.3508850    -1.5764080    -0.4792290
  H       -0.4317560    -0.1356430    -1.5200150
  H        1.0272260     1.9763200    -0.1823570
  H        3.1099360    -1.5361820    -0.1045700
  H       -3.6753880     0.0844680    -0.5728280
units angstrom
no_reorient  #important for SAPT in psi4, default
symmetry c1  #important for SAPT in psi4, default
}

set PROPERTIES_ORIGIN ["COM"]
properties('MP2/aug-cc-pvtz', properties = ['dipole'])
--------------------------------------------------------------------------

    Molecular point group: c1
  Charge       = 0
  Multiplicity = 1
  Basis Set: AUG-CC-PVTZ
    Blend: AUG-CC-PVTZ
  Basis Set: (AUG-CC-PVTZ AUX)
    Blend: AUG-CC-PVTZ-JKFIT

    Orbital Energies [Eh]
    ---------------------

    Doubly Occupied:

       1A    -20.644327     2A    -20.623914     3A    -20.586344
       4A    -20.578477     5A    -20.557515     6A    -11.412585
       7A    -11.399053     8A    -11.327262     9A    -11.265916
      10A     -1.489522    11A     -1.467930    12A     -1.432891
      13A     -1.381758    14A     -1.364563    15A     -1.077490
      16A     -0.960089    17A     -0.846607    18A     -0.814446
      19A     -0.768217    20A     -0.733759    21A     -0.713231
      22A     -0.704400    23A     -0.672700    24A     -0.658555
      25A     -0.648383    26A     -0.636444    27A     -0.609246
      28A     -0.591070    29A     -0.564872    30A     -0.544021
      31A     -0.510176    32A     -0.489141    33A     -0.473935
      34A     -0.463577    35A     -0.452756

  @DF-RHF Final Energy:  -529.51493162310476

   => Energetics <=

    Nuclear Repulsion Energy =            464.6793752157176982
    One-Electron Energy =               -1649.4582683893136164
    Two-Electron Energy =                 655.2639615504911035
    Total Energy =                       -529.5149316231047578
  Basis Set: (AUG-CC-PVTZ AUX)
    Blend: AUG-CC-PVTZ-RI
    Molecular point group: c1

    Geometry (in Angstrom), charge = 0, multiplicity = 1:

       Center              X                  Y                   Z               Mass
    ------------   -----------------  -----------------  -----------------  -----------------
         O            0.278980886975     1.607573552167     0.328667311820    15.994914619570
         O            2.192624886975    -1.429429447833     0.204376311820    15.994914619570
         O           -2.802922113025    -0.071666447833    -1.010399688180    15.994914619570
         O            2.654651886975     0.672021552167    -0.522807688180    15.994914619570
         O           -2.246326113025    -0.244744447833     1.180421311820    15.994914619570
         C            0.459765886975     0.308444252167     0.395907611820    12.000000000000
         C           -0.526317113025    -0.513072447833    -0.502032688180    12.000000000000
         C            1.887721886975    -0.132397447833    -0.016290688180    12.000000000000
         C           -1.923761113025    -0.257249447833     0.005928311820    12.000000000000
         H            0.314308886975    -0.115966447833     1.435175311820     1.007825032230
         H           -0.349707113025    -1.594754447833    -0.489228688180     1.007825032230
         H           -0.430578113025    -0.153989447833    -1.530014688180     1.007825032230
         H            1.028403886975     1.957973552167    -0.192356688180     1.007825032230
         H            3.111113886975    -1.554528447833    -0.114569688180     1.007825032230
         H           -3.674210113025     0.066121552167    -0.582827688180     1.007825032230

  Basis Set: AUG-CC-PVTZ
    Blend: AUG-CC-PVTZ
  Basis Set: (AUG-CC-PVTZ AUX)
    Blend: AUG-CC-PVTZ-JKFIT
	 Reference Energy          =    -529.5149316231047578 [Eh]
	 Singles Energy            =      -0.0000000000000000 [Eh]
	 Same-Spin Energy          =      -0.5055435946375694 [Eh]
	 Opposite-Spin Energy      =      -1.5048429531104350 [Eh]
	 Correlation Energy        =      -2.0103865477480043 [Eh]
	 Total Energy              =    -531.5253181708527563 [Eh]

	 ================> DF-SCS-MP2 Energies <==================
	-----------------------------------------------------------
	 SCS Same-Spin Scale       =       0.3333333333333333 [-]
	 SCS Opposite-Spin Scale   =       1.2000000000000000 [-]
	 SCS Same-Spin Energy      =      -0.1685145315458564 [Eh]
	 SCS Opposite-Spin Energy  =      -1.8058115437325220 [Eh]
	 SCS Correlation Energy    =      -1.9743260752783784 [Eh]
	 SCS Total Energy          =    -531.4892576983830850 [Eh]
	-----------------------------------------------------------

  Dipole Moment: [D]
     X:     0.8685      Y:    -1.8220      Z:    -1.5707     Total:     2.5576

*** Psi4 exiting successfully. Buy a developer a beer!
