                               Psi4 1.3.2 release

  ==> Input File <==

--------------------------------------------------------------------------
#psi4
#
memory 32 gb

molecule  {
0 1
  O        0.2778030     1.6259200     0.3386670
  O        2.1914470    -1.4110830     0.2143760
  O       -2.8041000    -0.0533200    -1.0004000
  O        2.6534740     0.6903680    -0.5128080
  O       -2.2475040    -0.2263980     1.1904210
  C        0.5119703     0.2091443     0.3805746
  C       -0.5274950    -0.4947260    -0.4920330
  C        1.8865440    -0.1140510    -0.0062910
  C       -1.9249390    -0.2389030     0.0159280
  H        0.3131310    -0.0976200     1.4451750
  H       -0.3508850    -1.5764080    -0.4792290
  H       -0.4317560    -0.1356430    -1.5200150
  H        1.0272260     1.9763200    -0.1823570
  H        3.1099360    -1.5361820    -0.1045700
  H       -3.6753880     0.0844680    -0.5728280
units angstrom
no_reorient  #important for SAPT in psi4, default
symmetry c1  #important for SAPT in psi4, default
}

set PROPERTIES_ORIGIN ["COM"]
properties('MP2/aug-cc-pvtz', properties = ['dipole'])
--------------------------------------------------------------------------

    Molecular point group: c1
  Charge       = 0
  Multiplicity = 1
  Basis Set: AUG-CC-PVTZ
    Blend: AUG-CC-PVTZ
  Basis Set: (AUG-CC-PVTZ AUX)
    Blend: AUG-CC-PVTZ-JKFIT

    Orbital Energies [Eh]
    ---------------------

    Doubly Occupied:

       1A    -20.645385     2A    -20.626548     3A    -20.582549
       4A    -20.575062     5A    -20.559820     6A    -11.416211
       7A    -11.403198     8A    -11.323309     9A    -11.271684
      10A     -1.493188    11A     -1.470174    12A     -1.396773
      13A     -1.369688    14A     -1.364548    15A     -1.093197
      16A     -0.981399    17A     -0.846316    18A     -0.808399
      19A     -0.761492    20A     -0.737126    21A     -0.714251
      22A     -0.703246    23A     -0.671560    24A     -0.652697
      25A     -0.644870    26A     -0.624502    27A     -0.597286
      28A     -0.591098    29A     -0.555519    30A     -0.550718
      31A     -0.511567    32A     -0.493496    33A     -0.486515
      34A     -0.468255    35A     -0.463870

  @DF-RHF Final Energy:  -529.51919020771425

   => Energetics <=

    Nuclear Repulsion Energy =            464.5442490961528961
    One-Electron Energy =               -1649.2158476760378107
    Two-Electron Energy =                 655.1524083721706120
    Total Energy =                       -529.5191902077142458
  Basis Set: (AUG-CC-PVTZ AUX)
    Blend: AUG-CC-PVTZ-RI
    Molecular point group: c1

    Geometry (in Angstrom), charge = 0, multiplicity = 1:

       Center              X                  Y                   Z               Mass
    ------------   -----------------  -----------------  -----------------  -----------------
         O            0.274201150227     1.618107358718     0.330935547493    15.994914619570
         O            2.187845150227    -1.418895641282     0.206644547493    15.994914619570
         O           -2.807701849773    -0.061132641282    -1.008131452507    15.994914619570
         O            2.649872150227     0.682555358718    -0.520539452507    15.994914619570
         O           -2.251105849773    -0.234210641282     1.182689547493    15.994914619570
         C            0.508368450227     0.201331658718     0.372843147493    12.000000000000
         C           -0.531096849773    -0.502538641282    -0.499764452507    12.000000000000
         C            1.882942150227    -0.121863641282    -0.014022452507    12.000000000000
         C           -1.928540849773    -0.246715641282     0.008196547493    12.000000000000
         H            0.309529150227    -0.105432641282     1.437443547493     1.007825032230
         H           -0.354486849773    -1.584220641282    -0.486960452507     1.007825032230
         H           -0.435357849773    -0.143455641282    -1.527746452507     1.007825032230
         H            1.023624150227     1.968507358718    -0.190088452507     1.007825032230
         H            3.106334150227    -1.543994641282    -0.112301452507     1.007825032230
         H           -3.678989849773     0.076655358718    -0.580559452507     1.007825032230

  Basis Set: AUG-CC-PVTZ
    Blend: AUG-CC-PVTZ
  Basis Set: (AUG-CC-PVTZ AUX)
    Blend: AUG-CC-PVTZ-JKFIT
	 Reference Energy          =    -529.5191902077142458 [Eh]
	 Singles Energy            =      -0.0000000000000000 [Eh]
	 Same-Spin Energy          =      -0.5059242349440380 [Eh]
	 Opposite-Spin Energy      =      -1.5073574689471059 [Eh]
	 Correlation Energy        =      -2.0132817038911437 [Eh]
	 Total Energy              =    -531.5324719116053984 [Eh]

	 ================> DF-SCS-MP2 Energies <==================
	-----------------------------------------------------------
	 SCS Same-Spin Scale       =       0.3333333333333333 [-]
	 SCS Opposite-Spin Scale   =       1.2000000000000000 [-]
	 SCS Same-Spin Energy      =      -0.1686414116480127 [Eh]
	 SCS Opposite-Spin Energy  =      -1.8088289627365270 [Eh]
	 SCS Correlation Energy    =      -1.9774703743845397 [Eh]
	 SCS Total Energy          =    -531.4966605820987979 [Eh]
	-----------------------------------------------------------

  Dipole Moment: [D]
     X:     0.8235      Y:    -2.2250      Z:    -1.6053     Total:     2.8646

*** Psi4 exiting successfully. Buy a developer a beer!
