                               Psi4 1.4a3.dev225

  ==> Input File <==

--------------------------------------------------------------------------
#psi4
#
memory 32 gb

molecule  {
0 1
  O        0.2776560     1.6256810     0.3396990
  O        2.1917380    -1.4109440     0.2140340
  O       -2.8039560    -0.0525170    -1.0004960
  O        2.6531900     0.6906990    -0.5129330
  O       -2.2475620    -0.2274030     1.1902310
  C        0.4723300     0.2276130     0.4112310
  C       -0.5274300    -0.4946180    -0.4922450
  C        1.9052185    -0.1184663    -0.0118778
  C       -1.9248990    -0.2390210     0.0157560
  H        0.3131550    -0.0984550     1.4451980
  H       -0.3508110    -1.5763050    -0.4798880
  H       -0.4316230    -0.1350800    -1.5200620
  H        1.0266390     1.9763480    -0.1817870
  H        3.1101710    -1.5358420    -0.1051610
  H       -3.6752580     0.0850810    -0.5728850
units angstrom
no_reorient  #important for SAPT in psi4, default
symmetry c1  #important for SAPT in psi4, default
}

set PROPERTIES_ORIGIN ["COM"]
properties('MP2/aug-cc-pvtz', properties = ['dipole'])
--------------------------------------------------------------------------

    Molecular point group: c1
  Charge       = 0
  Multiplicity = 1
  Basis Set: AUG-CC-PVTZ
    Blend: AUG-CC-PVTZ
  Basis Set: (AUG-CC-PVTZ AUX)
    Blend: AUG-CC-PVTZ-JKFIT

    Orbital Energies [Eh]
    ---------------------

    Doubly Occupied:

       1A    -20.646669     2A    -20.624984     3A    -20.582650
       4A    -20.574364     5A    -20.558440     6A    -11.414414
       7A    -11.401003     8A    -11.322642     9A    -11.268297
      10A     -1.496316    11A     -1.468810    12A     -1.401770
      13A     -1.374932    14A     -1.364854    15A     -1.086804
      16A     -0.966788    17A     -0.846570    18A     -0.809865
      19A     -0.758134    20A     -0.738512    21A     -0.713277
      22A     -0.702072    23A     -0.672063    24A     -0.654285
      25A     -0.649013    26A     -0.628604    27A     -0.599684
      28A     -0.589718    29A     -0.557417    30A     -0.547297
      31A     -0.514779    32A     -0.490309    33A     -0.482213
      34A     -0.469448    35A     -0.460330

  @DF-RHF Final Energy:  -529.52436832030025

   => Energetics <=

    Nuclear Repulsion Energy =            464.2546104221935934
    One-Electron Energy =               -1648.6833034722574212
    Two-Electron Energy =                 654.9043247297636299
    Total Energy =                       -529.5243683203002547
  Basis Set: (AUG-CC-PVTZ AUX)
    Blend: AUG-CC-PVTZ-RI
    Molecular point group: c1

    Geometry (in Angstrom), charge = 0, multiplicity = 1:

       Center              X                  Y                   Z               Mass
    ------------   -----------------  -----------------  -----------------  -----------------
         O            0.275928358554     1.616601375607     0.329729676896    15.994914619570
         O            2.190010358554    -1.420023624393     0.204064676896    15.994914619570
         O           -2.805683641446    -0.061596624393    -1.010465323104    15.994914619570
         O            2.651462358554     0.681619375607    -0.522902323104    15.994914619570
         O           -2.249289641446    -0.236482624393     1.180261676896    15.994914619570
         C            0.470602358554     0.218533375607     0.401261676896    12.000000000000
         C           -0.529157641446    -0.503697624393    -0.502214323104    12.000000000000
         C            1.903490858554    -0.127545924393    -0.021847123104    12.000000000000
         C           -1.926626641446    -0.248100624393     0.005786676896    12.000000000000
         H            0.311427358554    -0.107534624393     1.435228676896     1.007825032230
         H           -0.352538641446    -1.585384624393    -0.489857323104     1.007825032230
         H           -0.433350641446    -0.144159624393    -1.530031323104     1.007825032230
         H            1.024911358554     1.967268375607    -0.191756323104     1.007825032230
         H            3.108443358554    -1.544921624393    -0.115130323104     1.007825032230
         H           -3.676985641446     0.076001375607    -0.582854323104     1.007825032230

  Basis Set: AUG-CC-PVTZ
    Blend: AUG-CC-PVTZ
  Basis Set: (AUG-CC-PVTZ AUX)
    Blend: AUG-CC-PVTZ-JKFIT
	 Reference Energy          =    -529.5243683203002547 [Eh]
	 Singles Energy            =      -0.0000000000000000 [Eh]
	 Same-Spin Energy          =      -0.5050990518897842 [Eh]
	 Opposite-Spin Energy      =      -1.5054894847868567 [Eh]
	 Correlation Energy        =      -2.0105885366766412 [Eh]
	 Total Energy              =    -531.5349568569769190 [Eh]

	 ================> DF-SCS-MP2 Energies <==================
	-----------------------------------------------------------
	 SCS Same-Spin Scale       =       0.3333333333333333 [-]
	 SCS Opposite-Spin Scale   =       1.2000000000000000 [-]
	 SCS Same-Spin Energy      =      -0.1683663506299281 [Eh]
	 SCS Opposite-Spin Energy  =      -1.8065873817442279 [Eh]
	 SCS Correlation Energy    =      -1.9749537323741559 [Eh]
	 SCS Total Energy          =    -531.4993220526744153 [Eh]
	-----------------------------------------------------------

  Dipole Moment: [D]
     X:     0.9648      Y:    -2.2088      Z:    -1.6082     Total:     2.8976

*** Psi4 exiting successfully. Buy a developer a beer!
