                               Psi4 1.3.2 release

  ==> Input File <==

--------------------------------------------------------------------------
#psi4
#
memory 32 gb

molecule  {
0 1
  O        0.2778030     1.6259200     0.3386670
  O        2.1914470    -1.4110830     0.2143760
  O       -2.8041000    -0.0533200    -1.0004000
  O        2.6534740     0.6903680    -0.5128080
  O       -2.2475040    -0.2263980     1.1904210
  C        0.4723530     0.2278750     0.4110270
  C       -0.5274950    -0.4947260    -0.4920330
  C        1.8438305    -0.1218238     0.0120760
  C       -1.9249390    -0.2389030     0.0159280
  H        0.3131310    -0.0976200     1.4451750
  H       -0.3508850    -1.5764080    -0.4792290
  H       -0.4317560    -0.1356430    -1.5200150
  H        1.0272260     1.9763200    -0.1823570
  H        3.1099360    -1.5361820    -0.1045700
  H       -3.6753880     0.0844680    -0.5728280
units angstrom
no_reorient  #important for SAPT in psi4, default
symmetry c1  #important for SAPT in psi4, default
}

set PROPERTIES_ORIGIN ["COM"]
properties('MP2/aug-cc-pvtz', properties = ['dipole'])
--------------------------------------------------------------------------

    Molecular point group: c1
  Charge       = 0
  Multiplicity = 1
  Basis Set: AUG-CC-PVTZ
    Blend: AUG-CC-PVTZ
  Basis Set: (AUG-CC-PVTZ AUX)
    Blend: AUG-CC-PVTZ-JKFIT

    Orbital Energies [Eh]
    ---------------------

    Doubly Occupied:

       1A    -20.645746     2A    -20.627454     3A    -20.577761
       4A    -20.576674     5A    -20.561305     6A    -11.420422
       7A    -11.404118     8A    -11.325665     9A    -11.273315
      10A     -1.484728    11A     -1.471385    12A     -1.394068
      13A     -1.368295    14A     -1.356489    15A     -1.097570
      16A     -0.982847    17A     -0.848925    18A     -0.814508
      19A     -0.762987    20A     -0.731394    21A     -0.715624
      22A     -0.704477    23A     -0.674024    24A     -0.649518
      25A     -0.646728    26A     -0.622196    27A     -0.601025
      28A     -0.590851    29A     -0.561051    30A     -0.548184
      31A     -0.498730    32A     -0.492546    33A     -0.484489
      34A     -0.473581    35A     -0.464509

  @DF-RHF Final Energy:  -529.51596464632871

   => Energetics <=

    Nuclear Repulsion Energy =            464.4888170101261267
    One-Electron Energy =               -1649.1031875511944236
    Two-Electron Energy =                 655.0984058947394715
    Total Energy =                       -529.5159646463287118
  Basis Set: (AUG-CC-PVTZ AUX)
    Blend: AUG-CC-PVTZ-RI
    Molecular point group: c1

    Geometry (in Angstrom), charge = 0, multiplicity = 1:

       Center              X                  Y                   Z               Mass
    ------------   -----------------  -----------------  -----------------  -----------------
         O            0.281572873631     1.617126211833     0.326564363032    15.994914619570
         O            2.195216873631    -1.419876788167     0.202273363032    15.994914619570
         O           -2.800330126369    -0.062113788167    -1.012502636968    15.994914619570
         O            2.657243873631     0.681574211833    -0.524910636968    15.994914619570
         O           -2.243734126369    -0.235191788167     1.178318363032    15.994914619570
         C            0.476122873631     0.219081211833     0.398924363032    12.000000000000
         C           -0.523725126369    -0.503519788167    -0.504135636968    12.000000000000
         C            1.847600373631    -0.130617588167    -0.000026636968    12.000000000000
         C           -1.921169126369    -0.247696788167     0.003825363032    12.000000000000
         H            0.316900873631    -0.106413788167     1.433072363032     1.007825032230
         H           -0.347115126369    -1.585201788167    -0.491331636968     1.007825032230
         H           -0.427986126369    -0.144436788167    -1.532117636968     1.007825032230
         H            1.030995873631     1.967526211833    -0.194459636968     1.007825032230
         H            3.113705873631    -1.544975788167    -0.116672636968     1.007825032230
         H           -3.671618126369     0.075674211833    -0.584930636968     1.007825032230

  Basis Set: AUG-CC-PVTZ
    Blend: AUG-CC-PVTZ
  Basis Set: (AUG-CC-PVTZ AUX)
    Blend: AUG-CC-PVTZ-JKFIT
	 Reference Energy          =    -529.5159646463287118 [Eh]
	 Singles Energy            =      -0.0000000000000000 [Eh]
	 Same-Spin Energy          =      -0.5065955428937119 [Eh]
	 Opposite-Spin Energy      =      -1.5083474793397835 [Eh]
	 Correlation Energy        =      -2.0149430222334956 [Eh]
	 Total Energy              =    -531.5309076685622358 [Eh]

	 ================> DF-SCS-MP2 Energies <==================
	-----------------------------------------------------------
	 SCS Same-Spin Scale       =       0.3333333333333333 [-]
	 SCS Opposite-Spin Scale   =       1.2000000000000000 [-]
	 SCS Same-Spin Energy      =      -0.1688651809645706 [Eh]
	 SCS Opposite-Spin Energy  =      -1.8100169752077402 [Eh]
	 SCS Correlation Energy    =      -1.9788821561723109 [Eh]
	 SCS Total Energy          =    -531.4948468025010015 [Eh]
	-----------------------------------------------------------

  Dipole Moment: [D]
     X:     0.6010      Y:    -2.2581      Z:    -1.5071     Total:     2.7806

*** Psi4 exiting successfully. Buy a developer a beer!
