                               Psi4 1.3.2 release

  ==> Input File <==

--------------------------------------------------------------------------
#psi4
#
memory 32 gb

molecule  {
0 1
  C       -2.6260010    -1.3181790     0.0001460
  C       -0.1785650    -0.3909870     0.0002200
  C       -1.6028750    -0.2271810    -0.0000330
  C        0.4037930     0.9065250    -0.0001510
  C       -1.8343256     1.1308554     0.0499360
  C        2.0432510    -1.3188980     0.0000320
  C        2.5978260    -0.0201320    -0.0000760
  C        0.6688440    -1.5149670    -0.0002860
  C        1.7894520     1.1098640     0.0002960
  N       -0.6328400     1.8116850    -0.0001020
  H        2.7093930    -2.1785160    -0.0003580
  H        3.6789480     0.0978590     0.0002690
  H        0.2537760    -2.5213680    -0.0000660
  H        2.2194000     2.1097800     0.0002850
  H       -3.6376700    -0.9013790    -0.0001930
  H       -2.5281620    -1.9588410     0.8832840
  H       -2.7737480     1.6710560    -0.0003610
  H       -0.5326520     2.8176750    -0.0001200
  H       -2.5278290    -1.9594320    -0.8825300
units angstrom
no_reorient  #important for SAPT in psi4, default
symmetry c1  #important for SAPT in psi4, default
}

set PROPERTIES_ORIGIN ["COM"]
properties('MP2/aug-cc-pvtz', properties = ['dipole'])
--------------------------------------------------------------------------

    Molecular point group: c1
  Charge       = 0
  Multiplicity = 1
  Basis Set: AUG-CC-PVTZ
    Blend: AUG-CC-PVTZ
  Basis Set: (AUG-CC-PVTZ AUX)
    Blend: AUG-CC-PVTZ-JKFIT

    Orbital Energies [Eh]
    ---------------------

    Doubly Occupied:

       1A    -15.599852     2A    -11.265363     3A    -11.264592
       4A    -11.231893     5A    -11.230761     6A    -11.229572
       7A    -11.222993     8A    -11.221900     9A    -11.221485
      10A    -11.221120    11A     -1.291400    12A     -1.127026
      13A     -1.072107    14A     -0.997346    15A     -0.985699
      16A     -0.930893    17A     -0.838912    18A     -0.803933
      19A     -0.755683    20A     -0.719898    21A     -0.659751
      22A     -0.644470    23A     -0.603549    24A     -0.592894
      25A     -0.591808    26A     -0.569328    27A     -0.551424
      28A     -0.542237    29A     -0.529700    30A     -0.497641
      31A     -0.475838    32A     -0.463039    33A     -0.374524
      34A     -0.298658    35A     -0.277792

  @DF-RHF Final Energy:  -400.63947500040263

   => Energetics <=

    Nuclear Repulsion Energy =            483.2271999716276696
    One-Electron Energy =               -1499.9231910322266685
    Two-Electron Energy =                 616.0565160601963726
    Total Energy =                       -400.6394750004026264
  Basis Set: (AUG-CC-PVTZ AUX)
    Blend: AUG-CC-PVTZ-RI
    Molecular point group: c1

    Geometry (in Angstrom), charge = 0, multiplicity = 1:

       Center              X                  Y                   Z               Mass
    ------------   -----------------  -----------------  -----------------  -----------------
         C           -2.649743283954    -1.339592226761    -0.004429992347    12.000000000000
         C           -0.202307283954    -0.412400226761    -0.004355992347    12.000000000000
         C           -1.626617283954    -0.248594226761    -0.004608992347    12.000000000000
         C            0.380050716046     0.885111773239    -0.004726992347    12.000000000000
         C           -1.858067883954     1.109442173239     0.045360007653    12.000000000000
         C            2.019508716046    -1.340311226761    -0.004543992347    12.000000000000
         C            2.574083716046    -0.041545226761    -0.004651992347    12.000000000000
         C            0.645101716046    -1.536380226761    -0.004861992347    12.000000000000
         C            1.765709716046     1.088450773239    -0.004279992347    12.000000000000
         N           -0.656582283954     1.790271773239    -0.004677992347    14.003074004430
         H            2.685650716046    -2.199929226761    -0.004933992347     1.007825032230
         H            3.655205716046     0.076445773239    -0.004306992347     1.007825032230
         H            0.230033716046    -2.542781226761    -0.004641992347     1.007825032230
         H            2.195657716046     2.088366773239    -0.004290992347     1.007825032230
         H           -3.661412283954    -0.922792226761    -0.004768992347     1.007825032230
         H           -2.551904283954    -1.980254226761     0.878708007653     1.007825032230
         H           -2.797490283954     1.649642773239    -0.004936992347     1.007825032230
         H           -0.556394283954     2.796261773239    -0.004695992347     1.007825032230
         H           -2.551571283954    -1.980845226761    -0.887105992347     1.007825032230

  Basis Set: AUG-CC-PVTZ
    Blend: AUG-CC-PVTZ
  Basis Set: (AUG-CC-PVTZ AUX)
    Blend: AUG-CC-PVTZ-JKFIT
	 Reference Energy          =    -400.6394750004026264 [Eh]
	 Singles Energy            =      -0.0000000000000000 [Eh]
	 Same-Spin Energy          =      -0.4517337603477291 [Eh]
	 Opposite-Spin Energy      =      -1.4042328247045814 [Eh]
	 Correlation Energy        =      -1.8559665850523106 [Eh]
	 Total Energy              =    -402.4954415854549552 [Eh]

	 ================> DF-SCS-MP2 Energies <==================
	-----------------------------------------------------------
	 SCS Same-Spin Scale       =       0.3333333333333333 [-]
	 SCS Opposite-Spin Scale   =       1.2000000000000000 [-]
	 SCS Same-Spin Energy      =      -0.1505779201159097 [Eh]
	 SCS Opposite-Spin Energy  =      -1.6850793896454976 [Eh]
	 SCS Correlation Energy    =      -1.8356573097614073 [Eh]
	 SCS Total Energy          =    -402.4751323101640423 [Eh]
	-----------------------------------------------------------

  Dipole Moment: [D]
     X:    -0.9491      Y:     1.7957      Z:    -0.0337     Total:     2.0314

*** Psi4 exiting successfully. Buy a developer a beer!
