                               Psi4 1.3.2 release

  ==> Input File <==

--------------------------------------------------------------------------
#psi4
#
memory 32 gb

molecule  {
0 1
  C       -2.6260010    -1.3181790     0.0001460
  C       -0.1785650    -0.3909870     0.0002200
  C       -1.6028750    -0.2271810    -0.0000330
  C        0.4037930     0.9065250    -0.0001510
  C       -1.8343220     1.1308500    -0.0000640
  C        2.0432510    -1.3188980     0.0000320
  C        2.5978260    -0.0201320    -0.0000760
  C        0.6688440    -1.5149670    -0.0002860
  C        1.7894520     1.1098640     0.0002960
  N       -0.6328400     1.8116850    -0.0001020
  H        2.7093930    -2.1785160    -0.0003580
  H        3.6789480     0.0978590     0.0002690
  H        0.2537760    -2.5213680    -0.0000660
  H        2.2194000     2.1097800     0.0002850
  H       -3.6376700    -0.9013790    -0.0001930
  H       -2.5281620    -1.9588410     0.8832840
  H       -2.7737671     1.6710702     0.1496390
  H       -0.5326520     2.8176750    -0.0001200
  H       -2.5278290    -1.9594320    -0.8825300
units angstrom
no_reorient  #important for SAPT in psi4, default
symmetry c1  #important for SAPT in psi4, default
}

set PROPERTIES_ORIGIN ["COM"]
properties('MP2/aug-cc-pvtz', properties = ['dipole'])
--------------------------------------------------------------------------

    Molecular point group: c1
  Charge       = 0
  Multiplicity = 1
  Basis Set: AUG-CC-PVTZ
    Blend: AUG-CC-PVTZ
  Basis Set: (AUG-CC-PVTZ AUX)
    Blend: AUG-CC-PVTZ-JKFIT

    Orbital Energies [Eh]
    ---------------------

    Doubly Occupied:

       1A    -15.599824     2A    -11.265474     3A    -11.265178
       4A    -11.231953     5A    -11.230847     6A    -11.229662
       7A    -11.223013     8A    -11.221960     9A    -11.221511
      10A    -11.221182    11A     -1.291653    12A     -1.127114
      13A     -1.072232    14A     -0.997432    15A     -0.985608
      16A     -0.930872    17A     -0.838458    18A     -0.803844
      19A     -0.755546    20A     -0.719813    21A     -0.659574
      22A     -0.643926    23A     -0.603622    24A     -0.592830
      25A     -0.592411    26A     -0.568166    27A     -0.551312
      28A     -0.542386    29A     -0.529593    30A     -0.497682
      31A     -0.475907    32A     -0.462969    33A     -0.374628
      34A     -0.298707    35A     -0.277869

  @DF-RHF Final Energy:  -400.63893739605891

   => Energetics <=

    Nuclear Repulsion Energy =            483.2176203376786248
    One-Electron Energy =               -1499.9035947028012288
    Two-Electron Energy =                 616.0470369690636971
    Total Energy =                       -400.6389373960588500
  Basis Set: (AUG-CC-PVTZ AUX)
    Blend: AUG-CC-PVTZ-RI
    Molecular point group: c1

    Geometry (in Angstrom), charge = 0, multiplicity = 1:

       Center              X                  Y                   Z               Mass
    ------------   -----------------  -----------------  -----------------  -----------------
         C           -2.649743466680    -1.339591841566    -0.001005759016    12.000000000000
         C           -0.202307466680    -0.412399841566    -0.000931759016    12.000000000000
         C           -1.626617466680    -0.248593841566    -0.001184759016    12.000000000000
         C            0.380050533320     0.885112158434    -0.001302759016    12.000000000000
         C           -1.858064466680     1.109437158434    -0.001215759016    12.000000000000
         C            2.019508533320    -1.340310841566    -0.001119759016    12.000000000000
         C            2.574083533320    -0.041544841566    -0.001227759016    12.000000000000
         C            0.645101533320    -1.536379841566    -0.001437759016    12.000000000000
         C            1.765709533320     1.088451158434    -0.000855759016    12.000000000000
         N           -0.656582466680     1.790272158434    -0.001253759016    14.003074004430
         H            2.685650533320    -2.199928841566    -0.001509759016     1.007825032230
         H            3.655205533320     0.076446158434    -0.000882759016     1.007825032230
         H            0.230033533320    -2.542780841566    -0.001217759016     1.007825032230
         H            2.195657533320     2.088367158434    -0.000866759016     1.007825032230
         H           -3.661412466680    -0.922791841566    -0.001344759016     1.007825032230
         H           -2.551904466680    -1.980253841566     0.882132240984     1.007825032230
         H           -2.797509566680     1.649657358434     0.148487240984     1.007825032230
         H           -0.556394466680     2.796262158434    -0.001271759016     1.007825032230
         H           -2.551571466680    -1.980844841566    -0.883681759016     1.007825032230

  Basis Set: AUG-CC-PVTZ
    Blend: AUG-CC-PVTZ
  Basis Set: (AUG-CC-PVTZ AUX)
    Blend: AUG-CC-PVTZ-JKFIT
	 Reference Energy          =    -400.6389373960589069 [Eh]
	 Singles Energy            =      -0.0000000000000000 [Eh]
	 Same-Spin Energy          =      -0.4517795830692527 [Eh]
	 Opposite-Spin Energy      =      -1.4043308054999997 [Eh]
	 Correlation Energy        =      -1.8561103885692525 [Eh]
	 Total Energy              =    -402.4950477846281842 [Eh]

	 ================> DF-SCS-MP2 Energies <==================
	-----------------------------------------------------------
	 SCS Same-Spin Scale       =       0.3333333333333333 [-]
	 SCS Opposite-Spin Scale   =       1.2000000000000000 [-]
	 SCS Same-Spin Energy      =      -0.1505931943564175 [Eh]
	 SCS Opposite-Spin Energy  =      -1.6851969665999995 [Eh]
	 SCS Correlation Energy    =      -1.8357901609564171 [Eh]
	 SCS Total Energy          =    -402.4747275570153420 [Eh]
	-----------------------------------------------------------

  Dipole Moment: [D]
     X:    -0.9352      Y:     1.7883      Z:     0.1184     Total:     2.0215

*** Psi4 exiting successfully. Buy a developer a beer!
