                               Psi4 1.3.2 release

  ==> Input File <==

--------------------------------------------------------------------------
#psi4
#
memory 32 gb

molecule  {
0 1
  C       -2.6260010    -1.3181790     0.0001460
  C       -0.1785650    -0.3909870     0.0002200
  C       -1.6028750    -0.2271810    -0.0000330
  C        0.4037930     0.9065250    -0.0001510
  C       -1.8343220     1.1308500    -0.0000640
  C        2.0432510    -1.3188980     0.0000320
  C        2.5978260    -0.0201320    -0.0000760
  C        0.6688227    -1.5149554    -0.2502860
  C        1.7894520     1.1098640     0.0002960
  N       -0.6328400     1.8116850    -0.0001020
  H        2.7093930    -2.1785160    -0.0003580
  H        3.6789480     0.0978590     0.0002690
  H        0.2537760    -2.5213680    -0.0000660
  H        2.2194000     2.1097800     0.0002850
  H       -3.6376700    -0.9013790    -0.0001930
  H       -2.5281620    -1.9588410     0.8832840
  H       -2.7737480     1.6710560    -0.0003610
  H       -0.5326520     2.8176750    -0.0001200
  H       -2.5278290    -1.9594320    -0.8825300
units angstrom
no_reorient  #important for SAPT in psi4, default
symmetry c1  #important for SAPT in psi4, default
}

set PROPERTIES_ORIGIN ["COM"]
properties('MP2/aug-cc-pvtz', properties = ['dipole'])
--------------------------------------------------------------------------

    Molecular point group: c1
  Charge       = 0
  Multiplicity = 1
  Basis Set: AUG-CC-PVTZ
    Blend: AUG-CC-PVTZ
  Basis Set: (AUG-CC-PVTZ AUX)
    Blend: AUG-CC-PVTZ-JKFIT

    Orbital Energies [Eh]
    ---------------------

    Doubly Occupied:

       1A    -15.600593     2A    -11.266041     3A    -11.265066
       4A    -11.235277     5A    -11.234880     6A    -11.229383
       7A    -11.226805     8A    -11.225800     9A    -11.222041
      10A    -11.221011    11A     -1.292296    12A     -1.124829
      13A     -1.072220    14A     -0.994709    15A     -0.985273
      16A     -0.930699    17A     -0.838310    18A     -0.801476
      19A     -0.754637    20A     -0.718435    21A     -0.659418
      22A     -0.643719    23A     -0.601386    24A     -0.594499
      25A     -0.584095    26A     -0.567916    27A     -0.551179
      28A     -0.541875    29A     -0.528453    30A     -0.494398
      31A     -0.475593    32A     -0.458093    33A     -0.373641
      34A     -0.297363    35A     -0.278795

  @DF-RHF Final Energy:  -400.62047324921275

   => Energetics <=

    Nuclear Repulsion Energy =            482.5510675720572067
    One-Electron Energy =               -1498.5626820483046231
    Two-Electron Energy =                 615.3911412270346091
    Total Energy =                       -400.6204732492127505
  Basis Set: (AUG-CC-PVTZ AUX)
    Blend: AUG-CC-PVTZ-RI
    Molecular point group: c1

    Geometry (in Angstrom), charge = 0, multiplicity = 1:

       Center              X                  Y                   Z               Mass
    ------------   -----------------  -----------------  -----------------  -----------------
         C           -2.649741663489    -1.339592794382     0.023035513795    12.000000000000
         C           -0.202305663489    -0.412400794382     0.023109513795    12.000000000000
         C           -1.626615663489    -0.248594794382     0.022856513795    12.000000000000
         C            0.380052336511     0.885111205618     0.022738513795    12.000000000000
         C           -1.858062663489     1.109436205618     0.022825513795    12.000000000000
         C            2.019510336511    -1.340311794382     0.022921513795    12.000000000000
         C            2.574085336511    -0.041545794382     0.022813513795    12.000000000000
         C            0.645082036511    -1.536369194382    -0.227396486205    12.000000000000
         C            1.765711336511     1.088450205618     0.023185513795    12.000000000000
         N           -0.656580663489     1.790271205618     0.022787513795    14.003074004430
         H            2.685652336511    -2.199929794382     0.022531513795     1.007825032230
         H            3.655207336511     0.076445205618     0.023158513795     1.007825032230
         H            0.230035336511    -2.542781794382     0.022823513795     1.007825032230
         H            2.195659336511     2.088366205618     0.023174513795     1.007825032230
         H           -3.661410663489    -0.922792794382     0.022696513795     1.007825032230
         H           -2.551902663489    -1.980254794382     0.906173513795     1.007825032230
         H           -2.797488663489     1.649642205618     0.022528513795     1.007825032230
         H           -0.556392663489     2.796261205618     0.022769513795     1.007825032230
         H           -2.551569663489    -1.980845794382    -0.859640486205     1.007825032230

  Basis Set: AUG-CC-PVTZ
    Blend: AUG-CC-PVTZ
  Basis Set: (AUG-CC-PVTZ AUX)
    Blend: AUG-CC-PVTZ-JKFIT
	 Reference Energy          =    -400.6204732492127505 [Eh]
	 Singles Energy            =      -0.0000000000000000 [Eh]
	 Same-Spin Energy          =      -0.4528364737499386 [Eh]
	 Opposite-Spin Energy      =      -1.4070076807360252 [Eh]
	 Correlation Energy        =      -1.8598441544859639 [Eh]
	 Total Energy              =    -402.4803174036987343 [Eh]

	 ================> DF-SCS-MP2 Energies <==================
	-----------------------------------------------------------
	 SCS Same-Spin Scale       =       0.3333333333333333 [-]
	 SCS Opposite-Spin Scale   =       1.2000000000000000 [-]
	 SCS Same-Spin Energy      =      -0.1509454912499795 [Eh]
	 SCS Opposite-Spin Energy  =      -1.6884092168832303 [Eh]
	 SCS Correlation Energy    =      -1.8393547081332098 [Eh]
	 SCS Total Energy          =    -402.4598279573459649 [Eh]
	-----------------------------------------------------------

  Dipole Moment: [D]
     X:    -0.9015      Y:     1.9512      Z:     0.1736     Total:     2.1564

*** Psi4 exiting successfully. Buy a developer a beer!
