                               Psi4 1.3.2 release

  ==> Input File <==

--------------------------------------------------------------------------
#psi4
#
memory 32 gb

molecule  {
0 1
  C       -2.6260010    -1.3181790     0.0001460
  C       -0.1785650    -0.3909870     0.0002200
  C       -1.6028750    -0.2271810    -0.0000330
  C        0.4037930     0.9065250    -0.0001510
  C       -1.8343220     1.1308500    -0.0000640
  C        2.0432510    -1.3188980     0.0000320
  C        2.5978260    -0.0201320    -0.0000760
  C        0.6688440    -1.5149670    -0.0002860
  C        1.7894520     1.1098640     0.0002960
  N       -0.6328400     1.8116850    -0.0001020
  H        2.7093915    -2.1785422     0.1996420
  H        3.6789480     0.0978590     0.0002690
  H        0.2537760    -2.5213680    -0.0000660
  H        2.2194000     2.1097800     0.0002850
  H       -3.6376700    -0.9013790    -0.0001930
  H       -2.5281620    -1.9588410     0.8832840
  H       -2.7737480     1.6710560    -0.0003610
  H       -0.5326520     2.8176750    -0.0001200
  H       -2.5278290    -1.9594320    -0.8825300
units angstrom
no_reorient  #important for SAPT in psi4, default
symmetry c1  #important for SAPT in psi4, default
}

set PROPERTIES_ORIGIN ["COM"]
properties('MP2/aug-cc-pvtz', properties = ['dipole'])
--------------------------------------------------------------------------

    Molecular point group: c1
  Charge       = 0
  Multiplicity = 1
  Basis Set: AUG-CC-PVTZ
    Blend: AUG-CC-PVTZ
  Basis Set: (AUG-CC-PVTZ AUX)
    Blend: AUG-CC-PVTZ-JKFIT

    Orbital Energies [Eh]
    ---------------------

    Doubly Occupied:

       1A    -15.600211     2A    -11.265674     3A    -11.264701
       4A    -11.231993     5A    -11.231060     6A    -11.229734
       7A    -11.222929     8A    -11.222605     9A    -11.221981
      10A    -11.221515    11A     -1.291936    12A     -1.127098
      13A     -1.072313    14A     -0.997142    15A     -0.985680
      16A     -0.931116    17A     -0.838660    18A     -0.803608
      19A     -0.755589    20A     -0.720248    21A     -0.659609
      22A     -0.642690    23A     -0.603675    24A     -0.592818
      25A     -0.591758    26A     -0.569823    27A     -0.551578
      28A     -0.542200    29A     -0.529547    30A     -0.497412
      31A     -0.475992    32A     -0.461252    33A     -0.374739
      34A     -0.298586    35A     -0.277911

  @DF-RHF Final Energy:  -400.63763907734915

   => Energetics <=

    Nuclear Repulsion Energy =            483.1894773849772378
    One-Electron Energy =               -1499.8434668858942587
    Two-Electron Energy =                 616.0163504235679284
    Total Energy =                       -400.6376390773491494
  Basis Set: (AUG-CC-PVTZ AUX)
    Blend: AUG-CC-PVTZ-RI
    Molecular point group: c1

    Geometry (in Angstrom), charge = 0, multiplicity = 1:

       Center              X                  Y                   Z               Mass
    ------------   -----------------  -----------------  -----------------  -----------------
         C           -2.649743602006    -1.339591530930    -0.001390209358    12.000000000000
         C           -0.202307602006    -0.412399530930    -0.001316209358    12.000000000000
         C           -1.626617602006    -0.248593530930    -0.001569209358    12.000000000000
         C            0.380050397994     0.885112469070    -0.001687209358    12.000000000000
         C           -1.858064602006     1.109437469070    -0.001600209358    12.000000000000
         C            2.019508397994    -1.340310530930    -0.001504209358    12.000000000000
         C            2.574083397994    -0.041544530930    -0.001612209358    12.000000000000
         C            0.645101397994    -1.536379530930    -0.001822209358    12.000000000000
         C            1.765709397994     1.088451469070    -0.001240209358    12.000000000000
         N           -0.656582602006     1.790272469070    -0.001638209358    14.003074004430
         H            2.685648897994    -2.199954730930     0.198105790642     1.007825032230
         H            3.655205397994     0.076446469070    -0.001267209358     1.007825032230
         H            0.230033397994    -2.542780530930    -0.001602209358     1.007825032230
         H            2.195657397994     2.088367469070    -0.001251209358     1.007825032230
         H           -3.661412602006    -0.922791530930    -0.001729209358     1.007825032230
         H           -2.551904602006    -1.980253530930     0.881747790642     1.007825032230
         H           -2.797490602006     1.649643469070    -0.001897209358     1.007825032230
         H           -0.556394602006     2.796262469070    -0.001656209358     1.007825032230
         H           -2.551571602006    -1.980844530930    -0.884066209358     1.007825032230

  Basis Set: AUG-CC-PVTZ
    Blend: AUG-CC-PVTZ
  Basis Set: (AUG-CC-PVTZ AUX)
    Blend: AUG-CC-PVTZ-JKFIT
	 Reference Energy          =    -400.6376390773491494 [Eh]
	 Singles Energy            =      -0.0000000000000000 [Eh]
	 Same-Spin Energy          =      -0.4518089173246664 [Eh]
	 Opposite-Spin Energy      =      -1.4043787590869603 [Eh]
	 Correlation Energy        =      -1.8561876764116267 [Eh]
	 Total Energy              =    -402.4938267537607999 [Eh]

	 ================> DF-SCS-MP2 Energies <==================
	-----------------------------------------------------------
	 SCS Same-Spin Scale       =       0.3333333333333333 [-]
	 SCS Opposite-Spin Scale   =       1.2000000000000000 [-]
	 SCS Same-Spin Energy      =      -0.1506029724415555 [Eh]
	 SCS Opposite-Spin Energy  =      -1.6852545109043524 [Eh]
	 SCS Correlation Energy    =      -1.8358574833459078 [Eh]
	 SCS Total Energy          =    -402.4734965606950823 [Eh]
	-----------------------------------------------------------

  Dipole Moment: [D]
     X:    -0.9883      Y:     1.8361      Z:     0.1276     Total:     2.0890

*** Psi4 exiting successfully. Buy a developer a beer!
