                               Psi4 1.3.2 release

  ==> Input File <==

--------------------------------------------------------------------------
#psi4
#
memory 32 gb

molecule  {
0 1
  C       -2.6260010    -1.3181790     0.0001460
  C       -0.1785650    -0.3909870     0.0002200
  C       -1.6028750    -0.2271810    -0.0000330
  C        0.4037930     0.9065250    -0.0001510
  C       -1.8343220     1.1308500    -0.0000640
  C        2.0432510    -1.3188980     0.0000320
  C        2.5978260    -0.0201320    -0.0000760
  C        0.6688440    -1.5149670    -0.0002860
  C        1.7894520     1.1098640     0.0002960
  N       -0.6328400     1.8116850    -0.0001020
  H        2.7093930    -2.1785160    -0.0003580
  H        3.6789480     0.0978590     0.0002690
  H        0.2537760    -2.5213680    -0.0000660
  H        2.2193943     2.1097705     0.0502850
  H       -3.6376700    -0.9013790    -0.0001930
  H       -2.5281620    -1.9588410     0.8832840
  H       -2.7737480     1.6710560    -0.0003610
  H       -0.5326520     2.8176750    -0.0001200
  H       -2.5278290    -1.9594320    -0.8825300
units angstrom
no_reorient  #important for SAPT in psi4, default
symmetry c1  #important for SAPT in psi4, default
}

set PROPERTIES_ORIGIN ["COM"]
properties('MP2/aug-cc-pvtz', properties = ['dipole'])
--------------------------------------------------------------------------

    Molecular point group: c1
  Charge       = 0
  Multiplicity = 1
  Basis Set: AUG-CC-PVTZ
    Blend: AUG-CC-PVTZ
  Basis Set: (AUG-CC-PVTZ AUX)
    Blend: AUG-CC-PVTZ-JKFIT

    Orbital Energies [Eh]
    ---------------------

    Doubly Occupied:

       1A    -15.599947     2A    -11.265292     3A    -11.264546
       4A    -11.231944     5A    -11.230673     6A    -11.229483
       7A    -11.222732     8A    -11.221817     9A    -11.221364
      10A    -11.221069    11A     -1.291686    12A     -1.127003
      13A     -1.072120    14A     -0.997297    15A     -0.985711
      16A     -0.930948    17A     -0.838955    18A     -0.803942
      19A     -0.755755    20A     -0.720023    21A     -0.659933
      22A     -0.644582    23A     -0.603446    24A     -0.592877
      25A     -0.591686    26A     -0.569719    27A     -0.551381
      28A     -0.542303    29A     -0.529713    30A     -0.497644
      31A     -0.475799    32A     -0.462972    33A     -0.374521
      34A     -0.298644    35A     -0.277741

  @DF-RHF Final Energy:  -400.64005022612179

   => Energetics <=

    Nuclear Repulsion Energy =            483.2536102832588085
    One-Electron Energy =               -1499.9767817007264057
    Two-Electron Energy =                 616.0831211913458674
    Total Energy =                       -400.6400502261217298
  Basis Set: (AUG-CC-PVTZ AUX)
    Blend: AUG-CC-PVTZ-RI
    Molecular point group: c1

    Geometry (in Angstrom), charge = 0, multiplicity = 1:

       Center              X                  Y                   Z               Mass
    ------------   -----------------  -----------------  -----------------  -----------------
         C           -2.649743569713    -1.339591659337    -0.000236858332    12.000000000000
         C           -0.202307569713    -0.412399659337    -0.000162858332    12.000000000000
         C           -1.626617569713    -0.248593659337    -0.000415858332    12.000000000000
         C            0.380050430287     0.885112340663    -0.000533858332    12.000000000000
         C           -1.858064569713     1.109437340663    -0.000446858332    12.000000000000
         C            2.019508430287    -1.340310659337    -0.000350858332    12.000000000000
         C            2.574083430287    -0.041544659337    -0.000458858332    12.000000000000
         C            0.645101430287    -1.536379659337    -0.000668858332    12.000000000000
         C            1.765709430287     1.088451340663    -0.000086858332    12.000000000000
         N           -0.656582569713     1.790272340663    -0.000484858332    14.003074004430
         H            2.685650430287    -2.199928659337    -0.000740858332     1.007825032230
         H            3.655205430287     0.076446340663    -0.000113858332     1.007825032230
         H            0.230033430287    -2.542780659337    -0.000448858332     1.007825032230
         H            2.195651730287     2.088357840663     0.049902141668     1.007825032230
         H           -3.661412569713    -0.922791659337    -0.000575858332     1.007825032230
         H           -2.551904569713    -1.980253659337     0.882901141668     1.007825032230
         H           -2.797490569713     1.649643340663    -0.000743858332     1.007825032230
         H           -0.556394569713     2.796262340663    -0.000502858332     1.007825032230
         H           -2.551571569713    -1.980844659337    -0.882912858332     1.007825032230

  Basis Set: AUG-CC-PVTZ
    Blend: AUG-CC-PVTZ
  Basis Set: (AUG-CC-PVTZ AUX)
    Blend: AUG-CC-PVTZ-JKFIT
	 Reference Energy          =    -400.6400502261217866 [Eh]
	 Singles Energy            =      -0.0000000000000000 [Eh]
	 Same-Spin Energy          =      -0.4516967006027754 [Eh]
	 Opposite-Spin Energy      =      -1.4041389923289813 [Eh]
	 Correlation Energy        =      -1.8558356929317568 [Eh]
	 Total Energy              =    -402.4958859190535350 [Eh]

	 ================> DF-SCS-MP2 Energies <==================
	-----------------------------------------------------------
	 SCS Same-Spin Scale       =       0.3333333333333333 [-]
	 SCS Opposite-Spin Scale   =       1.2000000000000000 [-]
	 SCS Same-Spin Energy      =      -0.1505655668675918 [Eh]
	 SCS Opposite-Spin Energy  =      -1.6849667907947776 [Eh]
	 SCS Correlation Energy    =      -1.8355323576623694 [Eh]
	 SCS Total Energy          =    -402.4755825837841599 [Eh]
	-----------------------------------------------------------

  Dipole Moment: [D]
     X:    -0.9587      Y:     1.8026      Z:     0.0331     Total:     2.0420

*** Psi4 exiting successfully. Buy a developer a beer!
