                               Psi4 1.3.2 release

  ==> Input File <==

--------------------------------------------------------------------------
#psi4
#
memory 32 gb

molecule  {
0 1
  C       -2.6260010    -1.3181790     0.0001460
  C       -0.1785650    -0.3909870     0.0002200
  C       -1.6028750    -0.2271810    -0.0000330
  C        0.4037930     0.9065250    -0.0001510
  C       -1.8343220     1.1308500    -0.0000640
  C        2.0432510    -1.3188980     0.0000320
  C        2.5978260    -0.0201320    -0.0000760
  C        0.6688440    -1.5149670    -0.0002860
  C        1.7894520     1.1098640     0.0002960
  N       -0.6328400     1.8116850    -0.0001020
  H        2.7093930    -2.1785160    -0.0003580
  H        3.6789480     0.0978590     0.0002690
  H        0.2537744    -2.5213616    -0.0500660
  H        2.2194000     2.1097800     0.0002850
  H       -3.6376700    -0.9013790    -0.0001930
  H       -2.5281620    -1.9588410     0.8832840
  H       -2.7737480     1.6710560    -0.0003610
  H       -0.5326520     2.8176750    -0.0001200
  H       -2.5278290    -1.9594320    -0.8825300
units angstrom
no_reorient  #important for SAPT in psi4, default
symmetry c1  #important for SAPT in psi4, default
}

set PROPERTIES_ORIGIN ["COM"]
properties('MP2/aug-cc-pvtz', properties = ['dipole'])
--------------------------------------------------------------------------

    Molecular point group: c1
  Charge       = 0
  Multiplicity = 1
  Basis Set: AUG-CC-PVTZ
    Blend: AUG-CC-PVTZ
  Basis Set: (AUG-CC-PVTZ AUX)
    Blend: AUG-CC-PVTZ-JKFIT

    Orbital Energies [Eh]
    ---------------------

    Doubly Occupied:

       1A    -15.599948     2A    -11.265282     3A    -11.264553
       4A    -11.231880     5A    -11.230738     6A    -11.229462
       7A    -11.222729     8A    -11.221816     9A    -11.221355
      10A    -11.221082    11A     -1.291687    12A     -1.126998
      13A     -1.072124    14A     -0.997295    15A     -0.985708
      16A     -0.930935    17A     -0.838958    18A     -0.803940
      19A     -0.755779    20A     -0.719977    21A     -0.659934
      22A     -0.644619    23A     -0.603465    24A     -0.592792
      25A     -0.591758    26A     -0.569707    27A     -0.551378
      28A     -0.542294    29A     -0.529697    30A     -0.497642
      31A     -0.475837    32A     -0.462907    33A     -0.374523
      34A     -0.298644    35A     -0.277734

  @DF-RHF Final Energy:  -400.64004237049193

   => Energetics <=

    Nuclear Repulsion Energy =            483.2535221114168280
    One-Electron Energy =               -1499.9767679667374978
    Two-Electron Energy =                 616.0832034848288004
    Total Energy =                       -400.6400423704918694
  Basis Set: (AUG-CC-PVTZ AUX)
    Blend: AUG-CC-PVTZ-RI
    Molecular point group: c1

    Geometry (in Angstrom), charge = 0, multiplicity = 1:

       Center              X                  Y                   Z               Mass
    ------------   -----------------  -----------------  -----------------  -----------------
         C           -2.649743601238    -1.339591781592     0.000532042352    12.000000000000
         C           -0.202307601238    -0.412399781592     0.000606042352    12.000000000000
         C           -1.626617601238    -0.248593781592     0.000353042352    12.000000000000
         C            0.380050398762     0.885112218408     0.000235042352    12.000000000000
         C           -1.858064601238     1.109437218408     0.000322042352    12.000000000000
         C            2.019508398762    -1.340310781592     0.000418042352    12.000000000000
         C            2.574083398762    -0.041544781592     0.000310042352    12.000000000000
         C            0.645101398762    -1.536379781592     0.000100042352    12.000000000000
         C            1.765709398762     1.088451218408     0.000682042352    12.000000000000
         N           -0.656582601238     1.790272218408     0.000284042352    14.003074004430
         H            2.685650398762    -2.199928781592     0.000028042352     1.007825032230
         H            3.655205398762     0.076446218408     0.000655042352     1.007825032230
         H            0.230031798762    -2.542774381592    -0.049679957648     1.007825032230
         H            2.195657398762     2.088367218408     0.000671042352     1.007825032230
         H           -3.661412601238    -0.922791781592     0.000193042352     1.007825032230
         H           -2.551904601238    -1.980253781592     0.883670042352     1.007825032230
         H           -2.797490601238     1.649643218408     0.000025042352     1.007825032230
         H           -0.556394601238     2.796262218408     0.000266042352     1.007825032230
         H           -2.551571601238    -1.980844781592    -0.882143957648     1.007825032230

  Basis Set: AUG-CC-PVTZ
    Blend: AUG-CC-PVTZ
  Basis Set: (AUG-CC-PVTZ AUX)
    Blend: AUG-CC-PVTZ-JKFIT
	 Reference Energy          =    -400.6400423704919262 [Eh]
	 Singles Energy            =      -0.0000000000000000 [Eh]
	 Same-Spin Energy          =      -0.4516989476840456 [Eh]
	 Opposite-Spin Energy      =      -1.4041423054703752 [Eh]
	 Correlation Energy        =      -1.8558412531544208 [Eh]
	 Total Energy              =    -402.4958836236463640 [Eh]

	 ================> DF-SCS-MP2 Energies <==================
	-----------------------------------------------------------
	 SCS Same-Spin Scale       =       0.3333333333333333 [-]
	 SCS Opposite-Spin Scale   =       1.2000000000000000 [-]
	 SCS Same-Spin Energy      =      -0.1505663158946819 [Eh]
	 SCS Opposite-Spin Energy  =      -1.6849707665644502 [Eh]
	 SCS Correlation Energy    =      -1.8355370824591322 [Eh]
	 SCS Total Energy          =    -402.4755794529510808 [Eh]
	-----------------------------------------------------------

  Dipole Moment: [D]
     X:    -0.9569      Y:     1.8068      Z:    -0.0310     Total:     2.0447

*** Psi4 exiting successfully. Buy a developer a beer!
