                               Psi4 1.3.2 release

  ==> Input File <==

--------------------------------------------------------------------------
#psi4
#
memory 32 gb

molecule  {
0 1
  C       -2.6260010    -1.3181790     0.0001460
  C       -0.1785650    -0.3909870     0.0002200
  C       -1.6028750    -0.2271810    -0.0000330
  C        0.4037930     0.9065250    -0.0001510
  C       -1.8343220     1.1308500    -0.0000640
  C        2.0432510    -1.3188980     0.0000320
  C        2.5978260    -0.0201320    -0.0000760
  C        0.6688440    -1.5149670    -0.0002860
  C        1.7894520     1.1098640     0.0002960
  N       -0.6328400     1.8116850    -0.0001020
  H        2.7093908    -2.1785553     0.2996420
  H        3.6789480     0.0978590     0.0002690
  H        0.2537760    -2.5213680    -0.0000660
  H        2.2194000     2.1097800     0.0002850
  H       -3.6376700    -0.9013790    -0.0001930
  H       -2.5281620    -1.9588410     0.8832840
  H       -2.7737480     1.6710560    -0.0003610
  H       -0.5326520     2.8176750    -0.0001200
  H       -2.5278290    -1.9594320    -0.8825300
units angstrom
no_reorient  #important for SAPT in psi4, default
symmetry c1  #important for SAPT in psi4, default
}

set PROPERTIES_ORIGIN ["COM"]
properties('MP2/aug-cc-pvtz', properties = ['dipole'])
--------------------------------------------------------------------------

    Molecular point group: c1
  Charge       = 0
  Multiplicity = 1
  Basis Set: AUG-CC-PVTZ
    Blend: AUG-CC-PVTZ
  Basis Set: (AUG-CC-PVTZ AUX)
    Blend: AUG-CC-PVTZ-JKFIT

    Orbital Energies [Eh]
    ---------------------

    Doubly Occupied:

       1A    -15.600546     2A    -11.266167     3A    -11.264900
       4A    -11.232176     5A    -11.231585     6A    -11.230095
       7A    -11.224482     8A    -11.223183     9A    -11.222209
      10A    -11.221708    11A     -1.292256    12A     -1.127244
      13A     -1.072555    14A     -0.996987    15A     -0.985661
      16A     -0.931334    17A     -0.838328    18A     -0.803260
      19A     -0.755367    20A     -0.720499    21A     -0.659366
      22A     -0.640356    23A     -0.603892    24A     -0.593003
      25A     -0.591490    26A     -0.569967    27A     -0.551818
      28A     -0.542104    29A     -0.529340    30A     -0.497018
      31A     -0.476280    32A     -0.459056    33A     -0.374991
      34A     -0.298543    35A     -0.278137

  @DF-RHF Final Energy:  -400.63408948314816

   => Energetics <=

    Nuclear Repulsion Energy =            483.1070933026783791
    One-Electron Energy =               -1499.6705559209176499
    Two-Electron Energy =                 615.9293731350911685
    Total Energy =                       -400.6340894831481592
  Basis Set: (AUG-CC-PVTZ AUX)
    Blend: AUG-CC-PVTZ-RI
    Molecular point group: c1

    Geometry (in Angstrom), charge = 0, multiplicity = 1:

       Center              X                  Y                   Z               Mass
    ------------   -----------------  -----------------  -----------------  -----------------
         C           -2.649743596624    -1.339591430204    -0.002159110041    12.000000000000
         C           -0.202307596624    -0.412399430204    -0.002085110041    12.000000000000
         C           -1.626617596624    -0.248593430204    -0.002338110041    12.000000000000
         C            0.380050403376     0.885112569796    -0.002456110041    12.000000000000
         C           -1.858064596624     1.109437569796    -0.002369110041    12.000000000000
         C            2.019508403376    -1.340310430204    -0.002273110041    12.000000000000
         C            2.574083403376    -0.041544430204    -0.002381110041    12.000000000000
         C            0.645101403376    -1.536379430204    -0.002591110041    12.000000000000
         C            1.765709403376     1.088451569796    -0.002009110041    12.000000000000
         N           -0.656582596624     1.790272569796    -0.002407110041    14.003074004430
         H            2.685648203376    -2.199967730204     0.297336889959     1.007825032230
         H            3.655205403376     0.076446569796    -0.002036110041     1.007825032230
         H            0.230033403376    -2.542780430204    -0.002371110041     1.007825032230
         H            2.195657403376     2.088367569796    -0.002020110041     1.007825032230
         H           -3.661412596624    -0.922791430204    -0.002498110041     1.007825032230
         H           -2.551904596624    -1.980253430204     0.880978889959     1.007825032230
         H           -2.797490596624     1.649643569796    -0.002666110041     1.007825032230
         H           -0.556394596624     2.796262569796    -0.002425110041     1.007825032230
         H           -2.551571596624    -1.980844430204    -0.884835110041     1.007825032230

  Basis Set: AUG-CC-PVTZ
    Blend: AUG-CC-PVTZ
  Basis Set: (AUG-CC-PVTZ AUX)
    Blend: AUG-CC-PVTZ-JKFIT
	 Reference Energy          =    -400.6340894831481592 [Eh]
	 Singles Energy            =      -0.0000000000000000 [Eh]
	 Same-Spin Energy          =      -0.4519552922045288 [Eh]
	 Opposite-Spin Energy      =      -1.4047831921163036 [Eh]
	 Correlation Energy        =      -1.8567384843208323 [Eh]
	 Total Energy              =    -402.4908279674689879 [Eh]

	 ================> DF-SCS-MP2 Energies <==================
	-----------------------------------------------------------
	 SCS Same-Spin Scale       =       0.3333333333333333 [-]
	 SCS Opposite-Spin Scale   =       1.2000000000000000 [-]
	 SCS Same-Spin Energy      =      -0.1506517640681763 [Eh]
	 SCS Opposite-Spin Energy  =      -1.6857398305395643 [Eh]
	 SCS Correlation Energy    =      -1.8363915946077407 [Eh]
	 SCS Total Energy          =    -402.4704810777558919 [Eh]
	-----------------------------------------------------------

  Dipole Moment: [D]
     X:    -1.0256      Y:     1.8743      Z:     0.1881     Total:     2.1448

*** Psi4 exiting successfully. Buy a developer a beer!
