                               Psi4 1.3.2 release

  ==> Input File <==

--------------------------------------------------------------------------
#psi4
#
memory 32 gb

molecule  {
0 1
  C       -2.6260010    -1.3181790     0.0001460
  C       -0.1785650    -0.3909870     0.0002200
  C       -1.6028750    -0.2271810    -0.0000330
  C        0.4037930     0.9065250    -0.0001510
  C       -1.8343220     1.1308500    -0.0000640
  C        2.0432510    -1.3188980     0.0000320
  C        2.5978260    -0.0201320    -0.0000760
  C        0.6688440    -1.5149670    -0.0002860
  C        1.7894520     1.1098640     0.0002960
  N       -0.6328400     1.8116850    -0.0001020
  H        2.7093930    -2.1785160    -0.0003580
  H        3.6789480     0.0978590     0.0002690
  H        0.2537760    -2.5213680    -0.0000660
  H        2.2194000     2.1097800     0.0002850
  H       -3.6376700    -0.9013790    -0.0001930
  H       -2.5281620    -1.9588410     0.8832840
  H       -2.7737480     1.6710560    -0.0003610
  H       -0.5326618     2.8176743    -0.2501200
  H       -2.5278290    -1.9594320    -0.8825300
units angstrom
no_reorient  #important for SAPT in psi4, default
symmetry c1  #important for SAPT in psi4, default
}

set PROPERTIES_ORIGIN ["COM"]
properties('MP2/aug-cc-pvtz', properties = ['dipole'])
--------------------------------------------------------------------------

    Molecular point group: c1
  Charge       = 0
  Multiplicity = 1
  Basis Set: AUG-CC-PVTZ
    Blend: AUG-CC-PVTZ
  Basis Set: (AUG-CC-PVTZ AUX)
    Blend: AUG-CC-PVTZ-JKFIT

    Orbital Energies [Eh]
    ---------------------

    Doubly Occupied:

       1A    -15.601159     2A    -11.264914     3A    -11.264043
       4A    -11.231982     5A    -11.230800     6A    -11.229600
       7A    -11.223282     8A    -11.222229     9A    -11.221702
      10A    -11.221449    11A     -1.289789    12A     -1.126559
      13A     -1.071262    14A     -0.996975    15A     -0.985547
      16A     -0.929277    17A     -0.838410    18A     -0.801719
      19A     -0.754996    20A     -0.715215    21A     -0.659782
      22A     -0.644706    23A     -0.604792    24A     -0.596242
      25A     -0.585817    26A     -0.569614    27A     -0.551445
      28A     -0.541141    29A     -0.529598    30A     -0.497831
      31A     -0.476060    32A     -0.462532    33A     -0.374703
      34A     -0.299185    35A     -0.278203

  @DF-RHF Final Energy:  -400.63764460908658

   => Energetics <=

    Nuclear Repulsion Energy =            483.1139103956404597
    One-Electron Energy =               -1499.7179921737015320
    Two-Electron Energy =                 615.9664371689744939
    Total Energy =                       -400.6376446090865784
  Basis Set: (AUG-CC-PVTZ AUX)
    Blend: AUG-CC-PVTZ-RI
    Molecular point group: c1

    Geometry (in Angstrom), charge = 0, multiplicity = 1:

       Center              X                  Y                   Z               Mass
    ------------   -----------------  -----------------  -----------------  -----------------
         C           -2.649743538188    -1.339591727000     0.002069843719    12.000000000000
         C           -0.202307538188    -0.412399727000     0.002143843719    12.000000000000
         C           -1.626617538188    -0.248593727000     0.001890843719    12.000000000000
         C            0.380050461812     0.885112273000     0.001772843719    12.000000000000
         C           -1.858064538188     1.109437273000     0.001859843719    12.000000000000
         C            2.019508461812    -1.340310727000     0.001955843719    12.000000000000
         C            2.574083461812    -0.041544727000     0.001847843719    12.000000000000
         C            0.645101461812    -1.536379727000     0.001637843719    12.000000000000
         C            1.765709461812     1.088451273000     0.002219843719    12.000000000000
         N           -0.656582538188     1.790272273000     0.001821843719    14.003074004430
         H            2.685650461812    -2.199928727000     0.001565843719     1.007825032230
         H            3.655205461812     0.076446273000     0.002192843719     1.007825032230
         H            0.230033461812    -2.542780727000     0.001857843719     1.007825032230
         H            2.195657461812     2.088367273000     0.002208843719     1.007825032230
         H           -3.661412538188    -0.922791727000     0.001730843719     1.007825032230
         H           -2.551904538188    -1.980253727000     0.885207843719     1.007825032230
         H           -2.797490538188     1.649643273000     0.001562843719     1.007825032230
         H           -0.556404338188     2.796261573000    -0.248196156281     1.007825032230
         H           -2.551571538188    -1.980844727000    -0.880606156281     1.007825032230

  Basis Set: AUG-CC-PVTZ
    Blend: AUG-CC-PVTZ
  Basis Set: (AUG-CC-PVTZ AUX)
    Blend: AUG-CC-PVTZ-JKFIT
	 Reference Energy          =    -400.6376446090865784 [Eh]
	 Singles Energy            =      -0.0000000000000000 [Eh]
	 Same-Spin Energy          =      -0.4518455542040031 [Eh]
	 Opposite-Spin Energy      =      -1.4045997084608559 [Eh]
	 Correlation Energy        =      -1.8564452626648591 [Eh]
	 Total Energy              =    -402.4940898717514415 [Eh]

	 ================> DF-SCS-MP2 Energies <==================
	-----------------------------------------------------------
	 SCS Same-Spin Scale       =       0.3333333333333333 [-]
	 SCS Opposite-Spin Scale   =       1.2000000000000000 [-]
	 SCS Same-Spin Energy      =      -0.1506151847346677 [Eh]
	 SCS Opposite-Spin Energy  =      -1.6855196501530270 [Eh]
	 SCS Correlation Energy    =      -1.8361348348876947 [Eh]
	 SCS Total Energy          =    -402.4737794439742515 [Eh]
	-----------------------------------------------------------

  Dipole Moment: [D]
     X:    -0.9484      Y:     1.7405      Z:    -0.3499     Total:     2.0127

*** Psi4 exiting successfully. Buy a developer a beer!
