                               Psi4 1.3.2 release

  ==> Input File <==

--------------------------------------------------------------------------
#psi4
#
memory 32 gb

molecule  {
0 1
  C       -2.6260010    -1.3181790     0.0001460
  C       -0.1785650    -0.3909870     0.0002200
  C       -1.6028750    -0.2271810    -0.0000330
  C        0.4037930     0.9065250    -0.0001510
  C       -1.8343291     1.1308609     0.0999360
  C        2.0432510    -1.3188980     0.0000320
  C        2.5978260    -0.0201320    -0.0000760
  C        0.6688440    -1.5149670    -0.0002860
  C        1.7894520     1.1098640     0.0002960
  N       -0.6328400     1.8116850    -0.0001020
  H        2.7093930    -2.1785160    -0.0003580
  H        3.6789480     0.0978590     0.0002690
  H        0.2537760    -2.5213680    -0.0000660
  H        2.2194000     2.1097800     0.0002850
  H       -3.6376700    -0.9013790    -0.0001930
  H       -2.5281620    -1.9588410     0.8832840
  H       -2.7737480     1.6710560    -0.0003610
  H       -0.5326520     2.8176750    -0.0001200
  H       -2.5278290    -1.9594320    -0.8825300
units angstrom
no_reorient  #important for SAPT in psi4, default
symmetry c1  #important for SAPT in psi4, default
}

set PROPERTIES_ORIGIN ["COM"]
properties('MP2/aug-cc-pvtz', properties = ['dipole'])
--------------------------------------------------------------------------

    Molecular point group: c1
  Charge       = 0
  Multiplicity = 1
  Basis Set: AUG-CC-PVTZ
    Blend: AUG-CC-PVTZ
  Basis Set: (AUG-CC-PVTZ AUX)
    Blend: AUG-CC-PVTZ-JKFIT

    Orbital Energies [Eh]
    ---------------------

    Doubly Occupied:

       1A    -15.599586     2A    -11.265630     3A    -11.264734
       4A    -11.232010     5A    -11.231118     6A    -11.229930
       7A    -11.223947     8A    -11.222107     9A    -11.221780
      10A    -11.221305    11A     -1.290571    12A     -1.127125
      13A     -1.072067    14A     -0.997445    15A     -0.985691
      16A     -0.930746    17A     -0.838690    18A     -0.803936
      19A     -0.755332    20A     -0.719459    21A     -0.659136
      22A     -0.644052    23A     -0.603674    24A     -0.593306
      25A     -0.591563    26A     -0.568215    27A     -0.551544
      28A     -0.542041    29A     -0.529687    30A     -0.497638
      31A     -0.476085    32A     -0.462995    33A     -0.374484
      34A     -0.298721    35A     -0.277974

  @DF-RHF Final Energy:  -400.63732396030116

   => Energetics <=

    Nuclear Repulsion Energy =            483.1351189188910098
    One-Electron Energy =               -1499.7362387297209807
    Two-Electron Energy =                 615.9637958505287543
    Total Energy =                       -400.6373239603011598
  Basis Set: (AUG-CC-PVTZ AUX)
    Blend: AUG-CC-PVTZ-RI
    Molecular point group: c1

    Geometry (in Angstrom), charge = 0, multiplicity = 1:

       Center              X                  Y                   Z               Mass
    ------------   -----------------  -----------------  -----------------  -----------------
         C           -2.649742963523    -1.339592730295    -0.009007576704    12.000000000000
         C           -0.202306963523    -0.412400730295    -0.008933576704    12.000000000000
         C           -1.626616963523    -0.248594730295    -0.009186576704    12.000000000000
         C            0.380051036477     0.885111269705    -0.009304576704    12.000000000000
         C           -1.858071063523     1.109447169705     0.090782423296    12.000000000000
         C            2.019509036477    -1.340311730295    -0.009121576704    12.000000000000
         C            2.574084036477    -0.041545730295    -0.009229576704    12.000000000000
         C            0.645102036477    -1.536380730295    -0.009439576704    12.000000000000
         C            1.765710036477     1.088450269705    -0.008857576704    12.000000000000
         N           -0.656581963523     1.790271269705    -0.009255576704    14.003074004430
         H            2.685651036477    -2.199929730295    -0.009511576704     1.007825032230
         H            3.655206036477     0.076445269705    -0.008884576704     1.007825032230
         H            0.230034036477    -2.542781730295    -0.009219576704     1.007825032230
         H            2.195658036477     2.088366269705    -0.008868576704     1.007825032230
         H           -3.661411963523    -0.922792730295    -0.009346576704     1.007825032230
         H           -2.551903963523    -1.980254730295     0.874130423296     1.007825032230
         H           -2.797489963523     1.649642269705    -0.009514576704     1.007825032230
         H           -0.556393963523     2.796261269705    -0.009273576704     1.007825032230
         H           -2.551570963523    -1.980845730295    -0.891683576704     1.007825032230

  Basis Set: AUG-CC-PVTZ
    Blend: AUG-CC-PVTZ
  Basis Set: (AUG-CC-PVTZ AUX)
    Blend: AUG-CC-PVTZ-JKFIT
	 Reference Energy          =    -400.6373239603011598 [Eh]
	 Singles Energy            =      -0.0000000000000000 [Eh]
	 Same-Spin Energy          =      -0.4518686060586917 [Eh]
	 Opposite-Spin Energy      =      -1.4045778884458655 [Eh]
	 Correlation Energy        =      -1.8564464945045573 [Eh]
	 Total Energy              =    -402.4937704548057127 [Eh]

	 ================> DF-SCS-MP2 Energies <==================
	-----------------------------------------------------------
	 SCS Same-Spin Scale       =       0.3333333333333333 [-]
	 SCS Opposite-Spin Scale   =       1.2000000000000000 [-]
	 SCS Same-Spin Energy      =      -0.1506228686862306 [Eh]
	 SCS Opposite-Spin Energy  =      -1.6854934661350385 [Eh]
	 SCS Correlation Energy    =      -1.8361163348212690 [Eh]
	 SCS Total Energy          =    -402.4734402951224297 [Eh]
	-----------------------------------------------------------

  Dipole Moment: [D]
     X:    -0.9238      Y:     1.7689      Z:    -0.0680     Total:     1.9967

*** Psi4 exiting successfully. Buy a developer a beer!
