                               Psi4 1.3.2 release

  ==> Input File <==

--------------------------------------------------------------------------
#psi4
#
memory 32 gb

molecule  {
0 1
  C       -2.6260010    -1.3181790     0.0001460
  C       -0.1785650    -0.3909870     0.0002200
  C       -1.6028750    -0.2271810    -0.0000330
  C        0.4037930     0.9065250    -0.0001510
  C       -1.8343220     1.1308500    -0.0000640
  C        2.0432510    -1.3188980     0.0000320
  C        2.5978260    -0.0201320    -0.0000760
  C        0.6688440    -1.5149670    -0.0002860
  C        1.7894520     1.1098640     0.0002960
  N       -0.6328400     1.8116850    -0.0001020
  H        2.7093930    -2.1785160    -0.0003580
  H        3.6789620     0.0978931    -0.2997310
  H        0.2537760    -2.5213680    -0.0000660
  H        2.2194000     2.1097800     0.0002850
  H       -3.6376700    -0.9013790    -0.0001930
  H       -2.5281620    -1.9588410     0.8832840
  H       -2.7737480     1.6710560    -0.0003610
  H       -0.5326520     2.8176750    -0.0001200
  H       -2.5278290    -1.9594320    -0.8825300
units angstrom
no_reorient  #important for SAPT in psi4, default
symmetry c1  #important for SAPT in psi4, default
}

set PROPERTIES_ORIGIN ["COM"]
properties('MP2/aug-cc-pvtz', properties = ['dipole'])
--------------------------------------------------------------------------

    Molecular point group: c1
  Charge       = 0
  Multiplicity = 1
  Basis Set: AUG-CC-PVTZ
    Blend: AUG-CC-PVTZ
  Basis Set: (AUG-CC-PVTZ AUX)
    Blend: AUG-CC-PVTZ-JKFIT

    Orbital Energies [Eh]
    ---------------------

    Doubly Occupied:

       1A    -15.600379     2A    -11.265594     3A    -11.265246
       4A    -11.233443     5A    -11.232089     6A    -11.230829
       7A    -11.223307     8A    -11.222409     9A    -11.221741
      10A    -11.221683    11A     -1.292157    12A     -1.127164
      13A     -1.072433    14A     -0.997687    15A     -0.985048
      16A     -0.931125    17A     -0.838818    18A     -0.802130
      19A     -0.756269    20A     -0.719558    21A     -0.658038
      22A     -0.642767    23A     -0.603378    24A     -0.593112
      25A     -0.592108    26A     -0.569884    27A     -0.551934
      28A     -0.542087    29A     -0.526523    30A     -0.497987
      31A     -0.477135    32A     -0.459202    33A     -0.374493
      34A     -0.298889    35A     -0.277944

  @DF-RHF Final Energy:  -400.63401598034915

   => Energetics <=

    Nuclear Repulsion Energy =            483.1074644468939709
    One-Electron Energy =               -1499.6737794590728754
    Two-Electron Energy =                 615.9322990318296434
    Total Energy =                       -400.6340159803492043
  Basis Set: (AUG-CC-PVTZ AUX)
    Blend: AUG-CC-PVTZ-RI
    Molecular point group: c1

    Geometry (in Angstrom), charge = 0, multiplicity = 1:

       Center              X                  Y                   Z               Mass
    ------------   -----------------  -----------------  -----------------  -----------------
         C           -2.649743721186    -1.339591994577     0.002454294061    12.000000000000
         C           -0.202307721186    -0.412399994577     0.002528294061    12.000000000000
         C           -1.626617721186    -0.248593994577     0.002275294061    12.000000000000
         C            0.380050278814     0.885112005423     0.002157294061    12.000000000000
         C           -1.858064721186     1.109437005423     0.002244294061    12.000000000000
         C            2.019508278814    -1.340310994577     0.002340294061    12.000000000000
         C            2.574083278814    -0.041544994577     0.002232294061    12.000000000000
         C            0.645101278814    -1.536379994577     0.002022294061    12.000000000000
         C            1.765709278814     1.088451005423     0.002604294061    12.000000000000
         N           -0.656582721186     1.790272005423     0.002206294061    14.003074004430
         H            2.685650278814    -2.199928994577     0.001950294061     1.007825032230
         H            3.655219278814     0.076480105423    -0.297422705939     1.007825032230
         H            0.230033278814    -2.542780994577     0.002242294061     1.007825032230
         H            2.195657278814     2.088367005423     0.002593294061     1.007825032230
         H           -3.661412721186    -0.922791994577     0.002115294061     1.007825032230
         H           -2.551904721186    -1.980253994577     0.885592294061     1.007825032230
         H           -2.797490721186     1.649643005423     0.001947294061     1.007825032230
         H           -0.556394721186     2.796262005423     0.002188294061     1.007825032230
         H           -2.551571721186    -1.980844994577    -0.880221705939     1.007825032230

  Basis Set: AUG-CC-PVTZ
    Blend: AUG-CC-PVTZ
  Basis Set: (AUG-CC-PVTZ AUX)
    Blend: AUG-CC-PVTZ-JKFIT
	 Reference Energy          =    -400.6340159803491474 [Eh]
	 Singles Energy            =      -0.0000000000000000 [Eh]
	 Same-Spin Energy          =      -0.4520289389436636 [Eh]
	 Opposite-Spin Energy      =      -1.4049045625043857 [Eh]
	 Correlation Energy        =      -1.8569335014480493 [Eh]
	 Total Energy              =    -402.4909494817972018 [Eh]

	 ================> DF-SCS-MP2 Energies <==================
	-----------------------------------------------------------
	 SCS Same-Spin Scale       =       0.3333333333333333 [-]
	 SCS Opposite-Spin Scale   =       1.2000000000000000 [-]
	 SCS Same-Spin Energy      =      -0.1506763129812212 [Eh]
	 SCS Opposite-Spin Energy  =      -1.6858854750052628 [Eh]
	 SCS Correlation Energy    =      -1.8365617879864840 [Eh]
	 SCS Total Energy          =    -402.4705777683356587 [Eh]
	-----------------------------------------------------------

  Dipole Moment: [D]
     X:    -1.0558      Y:     1.7984      Z:    -0.1914     Total:     2.0942

*** Psi4 exiting successfully. Buy a developer a beer!
