                               Psi4 1.3.2 release

  ==> Input File <==

--------------------------------------------------------------------------
#psi4
#
memory 32 gb

molecule  {
0 1
  C       -2.6260010    -1.3181790     0.0001460
  C       -0.1785650    -0.3909870     0.0002200
  C       -1.6028750    -0.2271810    -0.0000330
  C        0.4037930     0.9065250    -0.0001510
  C       -1.8343220     1.1308500    -0.0000640
  C        2.0432510    -1.3188980     0.0000320
  C        2.5978260    -0.0201320    -0.0000760
  C        0.6688440    -1.5149670    -0.0002860
  C        1.7894520     1.1098640     0.0002960
  N       -0.6328400     1.8116850    -0.0001020
  H        2.7093930    -2.1785160    -0.0003580
  H        3.6789480     0.0978590     0.0002690
  H        0.2537713    -2.5213488    -0.1500660
  H        2.2194000     2.1097800     0.0002850
  H       -3.6376700    -0.9013790    -0.0001930
  H       -2.5281620    -1.9588410     0.8832840
  H       -2.7737480     1.6710560    -0.0003610
  H       -0.5326520     2.8176750    -0.0001200
  H       -2.5278290    -1.9594320    -0.8825300
units angstrom
no_reorient  #important for SAPT in psi4, default
symmetry c1  #important for SAPT in psi4, default
}

set PROPERTIES_ORIGIN ["COM"]
properties('MP2/aug-cc-pvtz', properties = ['dipole'])
--------------------------------------------------------------------------

    Molecular point group: c1
  Charge       = 0
  Multiplicity = 1
  Basis Set: AUG-CC-PVTZ
    Blend: AUG-CC-PVTZ
  Basis Set: (AUG-CC-PVTZ AUX)
    Blend: AUG-CC-PVTZ-JKFIT

    Orbital Energies [Eh]
    ---------------------

    Doubly Occupied:

       1A    -15.600013     2A    -11.265343     3A    -11.264630
       4A    -11.232082     5A    -11.231503     6A    -11.229542
       7A    -11.222782     8A    -11.221874     9A    -11.221335
      10A    -11.221283    11A     -1.291752    12A     -1.127039
      13A     -1.072148    14A     -0.997148    15A     -0.985760
      16A     -0.930881    17A     -0.838721    18A     -0.804009
      19A     -0.755601    20A     -0.719406    21A     -0.659738
      22A     -0.644679    23A     -0.603169    24A     -0.593104
      25A     -0.590679    26A     -0.569678    27A     -0.551359
      28A     -0.542231    29A     -0.529666    30A     -0.497651
      31A     -0.476419    32A     -0.461791    33A     -0.374411
      34A     -0.298707    35A     -0.277762

  @DF-RHF Final Energy:  -400.63877940342638

   => Energetics <=

    Nuclear Repulsion Energy =            483.2170481484293987
    One-Electron Energy =               -1499.9038689931408044
    Two-Electron Energy =                 616.0480414412850223
    Total Energy =                       -400.6387794034263834
  Basis Set: (AUG-CC-PVTZ AUX)
    Blend: AUG-CC-PVTZ-RI
    Molecular point group: c1

    Geometry (in Angstrom), charge = 0, multiplicity = 1:

       Center              X                  Y                   Z               Mass
    ------------   -----------------  -----------------  -----------------  -----------------
         C           -2.649743577402    -1.339591880011     0.001300943035    12.000000000000
         C           -0.202307577402    -0.412399880011     0.001374943035    12.000000000000
         C           -1.626617577402    -0.248593880011     0.001121943035    12.000000000000
         C            0.380050422598     0.885112119989     0.001003943035    12.000000000000
         C           -1.858064577402     1.109437119989     0.001090943035    12.000000000000
         C            2.019508422598    -1.340310880011     0.001186943035    12.000000000000
         C            2.574083422598    -0.041544880011     0.001078943035    12.000000000000
         C            0.645101422598    -1.536379880011     0.000868943035    12.000000000000
         C            1.765709422598     1.088451119989     0.001450943035    12.000000000000
         N           -0.656582577402     1.790272119989     0.001052943035    14.003074004430
         H            2.685650422598    -2.199928880011     0.000796943035     1.007825032230
         H            3.655205422598     0.076446119989     0.001423943035     1.007825032230
         H            0.230028722598    -2.542761680011    -0.148911056965     1.007825032230
         H            2.195657422598     2.088367119989     0.001439943035     1.007825032230
         H           -3.661412577402    -0.922791880011     0.000961943035     1.007825032230
         H           -2.551904577402    -1.980253880011     0.884438943035     1.007825032230
         H           -2.797490577402     1.649643119989     0.000793943035     1.007825032230
         H           -0.556394577402     2.796262119989     0.001034943035     1.007825032230
         H           -2.551571577402    -1.980844880011    -0.881375056965     1.007825032230

  Basis Set: AUG-CC-PVTZ
    Blend: AUG-CC-PVTZ
  Basis Set: (AUG-CC-PVTZ AUX)
    Blend: AUG-CC-PVTZ-JKFIT
	 Reference Energy          =    -400.6387794034263834 [Eh]
	 Singles Energy            =      -0.0000000000000000 [Eh]
	 Same-Spin Energy          =      -0.4517846431356288 [Eh]
	 Opposite-Spin Energy      =      -1.4042994289465374 [Eh]
	 Correlation Energy        =      -1.8560840720821661 [Eh]
	 Total Energy              =    -402.4948634755085664 [Eh]

	 ================> DF-SCS-MP2 Energies <==================
	-----------------------------------------------------------
	 SCS Same-Spin Scale       =       0.3333333333333333 [-]
	 SCS Opposite-Spin Scale   =       1.2000000000000000 [-]
	 SCS Same-Spin Energy      =      -0.1505948810452096 [Eh]
	 SCS Opposite-Spin Energy  =      -1.6851593147358448 [Eh]
	 SCS Correlation Energy    =      -1.8357541957810544 [Eh]
	 SCS Total Energy          =    -402.4745335992074615 [Eh]
	-----------------------------------------------------------

  Dipole Moment: [D]
     X:    -0.9505      Y:     1.8229      Z:    -0.0923     Total:     2.0579

*** Psi4 exiting successfully. Buy a developer a beer!
