                               Psi4 1.3.2 release

  ==> Input File <==

--------------------------------------------------------------------------
#psi4
#
memory 32 gb

molecule  {
0 1
  C       -2.6260010    -1.3181790     0.0001460
  C       -0.1785650    -0.3909870     0.0002200
  C       -1.6028750    -0.2271810    -0.0000330
  C        0.4037930     0.9065250    -0.0001510
  C       -1.8343220     1.1308500    -0.0000640
  C        2.0432510    -1.3188980     0.0000320
  C        2.5978260    -0.0201320    -0.0000760
  C        0.6688440    -1.5149670    -0.0002860
  C        1.7894520     1.1098640     0.0002960
  N       -0.6328400     1.8116850    -0.0001020
  H        2.7093930    -2.1785160    -0.0003580
  H        3.6789480     0.0978590     0.0002690
  H        0.2537760    -2.5213680    -0.0000660
  H        2.2194000     2.1097800     0.0002850
  H       -3.6376700    -0.9013790    -0.0001930
  H       -2.5281620    -1.9588410     0.8832840
  H       -2.7737480     1.6710560    -0.0003610
  H       -0.5326559     2.8176747    -0.1001200
  H       -2.5278290    -1.9594320    -0.8825300
units angstrom
no_reorient  #important for SAPT in psi4, default
symmetry c1  #important for SAPT in psi4, default
}

set PROPERTIES_ORIGIN ["COM"]
properties('MP2/aug-cc-pvtz', properties = ['dipole'])
--------------------------------------------------------------------------

    Molecular point group: c1
  Charge       = 0
  Multiplicity = 1
  Basis Set: AUG-CC-PVTZ
    Blend: AUG-CC-PVTZ
  Basis Set: (AUG-CC-PVTZ AUX)
    Blend: AUG-CC-PVTZ-JKFIT

    Orbital Energies [Eh]
    ---------------------

    Doubly Occupied:

       1A    -15.600138     2A    -11.265214     3A    -11.264459
       4A    -11.231876     5A    -11.230668     6A    -11.229476
       7A    -11.222814     8A    -11.221876     9A    -11.221417
      10A    -11.221122    11A     -1.291360    12A     -1.126917
      13A     -1.071973    14A     -0.997252    15A     -0.985676
      16A     -0.930657    17A     -0.838884    18A     -0.803553
      19A     -0.755662    20A     -0.719286    21A     -0.659929
      22A     -0.644628    23A     -0.603746    24A     -0.594322
      25A     -0.589870    26A     -0.569696    27A     -0.551390
      28A     -0.542116    29A     -0.529690    30A     -0.497672
      31A     -0.475808    32A     -0.462968    33A     -0.374565
      34A     -0.298727    35A     -0.277810

  @DF-RHF Final Energy:  -400.63987171682408

   => Energetics <=

    Nuclear Repulsion Energy =            483.2343222154910904
    One-Electron Energy =               -1499.9419441142581491
    Two-Electron Energy =                 616.0677501819428699
    Total Energy =                       -400.6398717168241319
  Basis Set: (AUG-CC-PVTZ AUX)
    Blend: AUG-CC-PVTZ-RI
    Molecular point group: c1

    Geometry (in Angstrom), charge = 0, multiplicity = 1:

       Center              X                  Y                   Z               Mass
    ------------   -----------------  -----------------  -----------------  -----------------
         C           -2.649743583553    -1.339591730075     0.000916492693    12.000000000000
         C           -0.202307583553    -0.412399730075     0.000990492693    12.000000000000
         C           -1.626617583553    -0.248593730075     0.000737492693    12.000000000000
         C            0.380050416447     0.885112269925     0.000619492693    12.000000000000
         C           -1.858064583553     1.109437269925     0.000706492693    12.000000000000
         C            2.019508416447    -1.340310730075     0.000802492693    12.000000000000
         C            2.574083416447    -0.041544730075     0.000694492693    12.000000000000
         C            0.645101416447    -1.536379730075     0.000484492693    12.000000000000
         C            1.765709416447     1.088451269925     0.001066492693    12.000000000000
         N           -0.656582583553     1.790272269925     0.000668492693    14.003074004430
         H            2.685650416447    -2.199928730075     0.000412492693     1.007825032230
         H            3.655205416447     0.076446269925     0.001039492693     1.007825032230
         H            0.230033416447    -2.542780730075     0.000704492693     1.007825032230
         H            2.195657416447     2.088367269925     0.001055492693     1.007825032230
         H           -3.661412583553    -0.922791730075     0.000577492693     1.007825032230
         H           -2.551904583553    -1.980253730075     0.884054492693     1.007825032230
         H           -2.797490583553     1.649643269925     0.000409492693     1.007825032230
         H           -0.556398483553     2.796261969925    -0.099349507307     1.007825032230
         H           -2.551571583553    -1.980844730075    -0.881759507307     1.007825032230

  Basis Set: AUG-CC-PVTZ
    Blend: AUG-CC-PVTZ
  Basis Set: (AUG-CC-PVTZ AUX)
    Blend: AUG-CC-PVTZ-JKFIT
	 Reference Energy          =    -400.6398717168240751 [Eh]
	 Singles Energy            =      -0.0000000000000000 [Eh]
	 Same-Spin Energy          =      -0.4517133156930683 [Eh]
	 Opposite-Spin Energy      =      -1.4041976029777474 [Eh]
	 Correlation Energy        =      -1.8559109186708156 [Eh]
	 Total Energy              =    -402.4957826354948907 [Eh]

	 ================> DF-SCS-MP2 Energies <==================
	-----------------------------------------------------------
	 SCS Same-Spin Scale       =       0.3333333333333333 [-]
	 SCS Opposite-Spin Scale   =       1.2000000000000000 [-]
	 SCS Same-Spin Energy      =      -0.1505711052310227 [Eh]
	 SCS Opposite-Spin Energy  =      -1.6850371235732968 [Eh]
	 SCS Correlation Energy    =      -1.8356082288043196 [Eh]
	 SCS Total Energy          =    -402.4754799456284218 [Eh]
	-----------------------------------------------------------

  Dipole Moment: [D]
     X:    -0.9561      Y:     1.7942      Z:    -0.1417     Total:     2.0380

*** Psi4 exiting successfully. Buy a developer a beer!
