                               Psi4 1.3.2 release

  ==> Input File <==

--------------------------------------------------------------------------
#psi4
#
memory 32 gb

molecule  {
0 1
  C       -2.6260010    -1.3181790     0.0001460
  C       -0.1785650    -0.3909870     0.0002200
  C       -1.6028750    -0.2271810    -0.0000330
  C        0.4037930     0.9065250    -0.0001510
  C       -1.8343220     1.1308500    -0.0000640
  C        2.0432510    -1.3188980     0.0000320
  C        2.5978260    -0.0201320    -0.0000760
  C        0.6688440    -1.5149670    -0.0002860
  C        1.7894520     1.1098640     0.0002960
  N       -0.6328400     1.8116850    -0.0001020
  H        2.7093930    -2.1785160    -0.0003580
  H        3.6789480     0.0978590     0.0002690
  H        0.2537666    -2.5213296    -0.3000660
  H        2.2194000     2.1097800     0.0002850
  H       -3.6376700    -0.9013790    -0.0001930
  H       -2.5281620    -1.9588410     0.8832840
  H       -2.7737480     1.6710560    -0.0003610
  H       -0.5326520     2.8176750    -0.0001200
  H       -2.5278290    -1.9594320    -0.8825300
units angstrom
no_reorient  #important for SAPT in psi4, default
symmetry c1  #important for SAPT in psi4, default
}

set PROPERTIES_ORIGIN ["COM"]
properties('MP2/aug-cc-pvtz', properties = ['dipole'])
--------------------------------------------------------------------------

    Molecular point group: c1
  Charge       = 0
  Multiplicity = 1
  Basis Set: AUG-CC-PVTZ
    Blend: AUG-CC-PVTZ
  Basis Set: (AUG-CC-PVTZ AUX)
    Blend: AUG-CC-PVTZ-JKFIT

    Orbital Energies [Eh]
    ---------------------

    Doubly Occupied:

       1A    -15.600233     2A    -11.265555     3A    -11.264890
       4A    -11.234020     5A    -11.232762     6A    -11.229814
       7A    -11.223014     8A    -11.222082     9A    -11.221966
      10A    -11.221216    11A     -1.291974    12A     -1.127196
      13A     -1.072239    14A     -0.996725    15A     -0.985937
      16A     -0.930719    17A     -0.838030    18A     -0.804247
      19A     -0.755118    20A     -0.717661    21A     -0.659148
      22A     -0.644897    23A     -0.602449    24A     -0.593404
      25A     -0.587669    26A     -0.569539    27A     -0.551301
      28A     -0.542005    29A     -0.529556    30A     -0.497649
      31A     -0.477823    32A     -0.458561    33A     -0.374050
      34A     -0.298926    35A     -0.277867

  @DF-RHF Final Energy:  -400.63403686576396

   => Energetics <=

    Nuclear Repulsion Energy =            483.0984093193138165
    One-Electron Energy =               -1499.6644064475883624
    Two-Electron Energy =                 615.9319602625106427
    Total Energy =                       -400.6340368657639601
  Basis Set: (AUG-CC-PVTZ AUX)
    Blend: AUG-CC-PVTZ-RI
    Molecular point group: c1

    Geometry (in Angstrom), charge = 0, multiplicity = 1:

       Center              X                  Y                   Z               Mass
    ------------   -----------------  -----------------  -----------------  -----------------
         C           -2.649743541263    -1.339592027640     0.002454294061    12.000000000000
         C           -0.202307541263    -0.412400027640     0.002528294061    12.000000000000
         C           -1.626617541263    -0.248594027640     0.002275294061    12.000000000000
         C            0.380050458737     0.885111972360     0.002157294061    12.000000000000
         C           -1.858064541263     1.109436972360     0.002244294061    12.000000000000
         C            2.019508458737    -1.340311027640     0.002340294061    12.000000000000
         C            2.574083458737    -0.041545027640     0.002232294061    12.000000000000
         C            0.645101458737    -1.536380027640     0.002022294061    12.000000000000
         C            1.765709458737     1.088450972360     0.002604294061    12.000000000000
         N           -0.656582541263     1.790271972360     0.002206294061    14.003074004430
         H            2.685650458737    -2.199929027640     0.001950294061     1.007825032230
         H            3.655205458737     0.076445972360     0.002577294061     1.007825032230
         H            0.230024058737    -2.542742627640    -0.297757705939     1.007825032230
         H            2.195657458737     2.088366972360     0.002593294061     1.007825032230
         H           -3.661412541263    -0.922792027640     0.002115294061     1.007825032230
         H           -2.551904541263    -1.980254027640     0.885592294061     1.007825032230
         H           -2.797490541263     1.649642972360     0.001947294061     1.007825032230
         H           -0.556394541263     2.796261972360     0.002188294061     1.007825032230
         H           -2.551571541263    -1.980845027640    -0.880221705939     1.007825032230

  Basis Set: AUG-CC-PVTZ
    Blend: AUG-CC-PVTZ
  Basis Set: (AUG-CC-PVTZ AUX)
    Blend: AUG-CC-PVTZ-JKFIT
	 Reference Energy          =    -400.6340368657639601 [Eh]
	 Singles Energy            =      -0.0000000000000000 [Eh]
	 Same-Spin Energy          =      -0.4520648760939440 [Eh]
	 Opposite-Spin Energy      =      -1.4049239971105860 [Eh]
	 Correlation Energy        =      -1.8569888732045299 [Eh]
	 Total Energy              =    -402.4910257389685171 [Eh]

	 ================> DF-SCS-MP2 Energies <==================
	-----------------------------------------------------------
	 SCS Same-Spin Scale       =       0.3333333333333333 [-]
	 SCS Opposite-Spin Scale   =       1.2000000000000000 [-]
	 SCS Same-Spin Energy      =      -0.1506882920313146 [Eh]
	 SCS Opposite-Spin Energy  =      -1.6859087965327031 [Eh]
	 SCS Correlation Energy    =      -1.8365970885640177 [Eh]
	 SCS Total Energy          =    -402.4706339543279796 [Eh]
	-----------------------------------------------------------

  Dipole Moment: [D]
     X:    -0.9297      Y:     1.8760      Z:    -0.1801     Total:     2.1014

*** Psi4 exiting successfully. Buy a developer a beer!
