                               Psi4 1.3.2 release

  ==> Input File <==

--------------------------------------------------------------------------
#psi4
#
memory 32 gb

molecule  {
0 1
  C       -2.6260010    -1.3181790     0.0001460
  C       -0.1785650    -0.3909870     0.0002200
  C       -1.6028750    -0.2271810    -0.0000330
  C        0.4037930     0.9065250    -0.0001510
  C       -1.8343220     1.1308500    -0.0000640
  C        2.0432510    -1.3188980     0.0000320
  C        2.5978260    -0.0201320    -0.0000760
  C        0.6688440    -1.5149670    -0.0002860
  C        1.7894520     1.1098640     0.0002960
  N       -0.6328400     1.8116850    -0.0001020
  H        2.7093930    -2.1785160    -0.0003580
  H        3.6789480     0.0978590     0.0002690
  H        0.2537760    -2.5213680    -0.0000660
  H        2.2193886     2.1097610     0.1002850
  H       -3.6376700    -0.9013790    -0.0001930
  H       -2.5281620    -1.9588410     0.8832840
  H       -2.7737480     1.6710560    -0.0003610
  H       -0.5326520     2.8176750    -0.0001200
  H       -2.5278290    -1.9594320    -0.8825300
units angstrom
no_reorient  #important for SAPT in psi4, default
symmetry c1  #important for SAPT in psi4, default
}

set PROPERTIES_ORIGIN ["COM"]
properties('MP2/aug-cc-pvtz', properties = ['dipole'])
--------------------------------------------------------------------------

    Molecular point group: c1
  Charge       = 0
  Multiplicity = 1
  Basis Set: AUG-CC-PVTZ
    Blend: AUG-CC-PVTZ
  Basis Set: (AUG-CC-PVTZ AUX)
    Blend: AUG-CC-PVTZ-JKFIT

    Orbital Energies [Eh]
    ---------------------

    Doubly Occupied:

       1A    -15.599967     2A    -11.265344     3A    -11.264556
       4A    -11.232210     5A    -11.230766     6A    -11.229577
       7A    -11.222756     8A    -11.221842     9A    -11.221385
      10A    -11.221104    11A     -1.291704    12A     -1.127035
      13A     -1.072117    14A     -0.997246    15A     -0.985741
      16A     -0.930968    17A     -0.838854    18A     -0.803972
      19A     -0.755614    20A     -0.719944    21A     -0.659857
      22A     -0.644492    23A     -0.603274    24A     -0.593174
      25A     -0.591140    26A     -0.569745    27A     -0.551385
      28A     -0.542311    29A     -0.529749    30A     -0.497656
      31A     -0.475922    32A     -0.462731    33A     -0.374471
      34A     -0.298668    35A     -0.277769

  @DF-RHF Final Energy:  -400.63961162762229

   => Energetics <=

    Nuclear Repulsion Energy =            483.2401544436593213
    One-Electron Energy =               -1499.9494350369634503
    Two-Electron Energy =                 616.0696689656817853
    Total Energy =                       -400.6396116276223438
  Basis Set: (AUG-CC-PVTZ AUX)
    Blend: AUG-CC-PVTZ-RI
    Molecular point group: c1

    Geometry (in Angstrom), charge = 0, multiplicity = 1:

       Center              X                  Y                   Z               Mass
    ------------   -----------------  -----------------  -----------------  -----------------
         C           -2.649743525885    -1.339591586291    -0.000621308674    12.000000000000
         C           -0.202307525885    -0.412399586291    -0.000547308674    12.000000000000
         C           -1.626617525885    -0.248593586291    -0.000800308674    12.000000000000
         C            0.380050474115     0.885112413709    -0.000918308674    12.000000000000
         C           -1.858064525885     1.109437413709    -0.000831308674    12.000000000000
         C            2.019508474115    -1.340310586291    -0.000735308674    12.000000000000
         C            2.574083474115    -0.041544586291    -0.000843308674    12.000000000000
         C            0.645101474115    -1.536379586291    -0.001053308674    12.000000000000
         C            1.765709474115     1.088451413709    -0.000471308674    12.000000000000
         N           -0.656582525885     1.790272413709    -0.000869308674    14.003074004430
         H            2.685650474115    -2.199928586291    -0.001125308674     1.007825032230
         H            3.655205474115     0.076446413709    -0.000498308674     1.007825032230
         H            0.230033474115    -2.542780586291    -0.000833308674     1.007825032230
         H            2.195646074115     2.088348413709     0.099517691326     1.007825032230
         H           -3.661412525885    -0.922791586291    -0.000960308674     1.007825032230
         H           -2.551904525885    -1.980253586291     0.882516691326     1.007825032230
         H           -2.797490525885     1.649643413709    -0.001128308674     1.007825032230
         H           -0.556394525885     2.796262413709    -0.000887308674     1.007825032230
         H           -2.551571525885    -1.980844586291    -0.883297308674     1.007825032230

  Basis Set: AUG-CC-PVTZ
    Blend: AUG-CC-PVTZ
  Basis Set: (AUG-CC-PVTZ AUX)
    Blend: AUG-CC-PVTZ-JKFIT
	 Reference Energy          =    -400.6396116276222870 [Eh]
	 Singles Energy            =      -0.0000000000000000 [Eh]
	 Same-Spin Energy          =      -0.4517220952377804 [Eh]
	 Opposite-Spin Energy      =      -1.4041854679287193 [Eh]
	 Correlation Energy        =      -1.8559075631664999 [Eh]
	 Total Energy              =    -402.4955191907887979 [Eh]

	 ================> DF-SCS-MP2 Energies <==================
	-----------------------------------------------------------
	 SCS Same-Spin Scale       =       0.3333333333333333 [-]
	 SCS Opposite-Spin Scale   =       1.2000000000000000 [-]
	 SCS Same-Spin Energy      =      -0.1505740317459268 [Eh]
	 SCS Opposite-Spin Energy  =      -1.6850225615144632 [Eh]
	 SCS Correlation Energy    =      -1.8355965932603899 [Eh]
	 SCS Total Energy          =    -402.4752082208826778 [Eh]
	-----------------------------------------------------------

  Dipole Moment: [D]
     X:    -0.9621      Y:     1.7961      Z:     0.0662     Total:     2.0386

*** Psi4 exiting successfully. Buy a developer a beer!
