                               Psi4 1.3.2 release

  ==> Input File <==

--------------------------------------------------------------------------
#psi4
#
memory 32 gb

molecule  {
0 1
  C       -2.6260010    -1.3181790     0.0001460
  C       -0.1785650    -0.3909870     0.0002200
  C       -1.6028750    -0.2271810    -0.0000330
  C        0.4037930     0.9065250    -0.0001510
  C       -1.8343220     1.1308500    -0.0000640
  C        2.0432510    -1.3188980     0.0000320
  C        2.5978260    -0.0201320    -0.0000760
  C        0.6688355    -1.5149624    -0.1002860
  C        1.7894520     1.1098640     0.0002960
  N       -0.6328400     1.8116850    -0.0001020
  H        2.7093930    -2.1785160    -0.0003580
  H        3.6789480     0.0978590     0.0002690
  H        0.2537760    -2.5213680    -0.0000660
  H        2.2194000     2.1097800     0.0002850
  H       -3.6376700    -0.9013790    -0.0001930
  H       -2.5281620    -1.9588410     0.8832840
  H       -2.7737480     1.6710560    -0.0003610
  H       -0.5326520     2.8176750    -0.0001200
  H       -2.5278290    -1.9594320    -0.8825300
units angstrom
no_reorient  #important for SAPT in psi4, default
symmetry c1  #important for SAPT in psi4, default
}

set PROPERTIES_ORIGIN ["COM"]
properties('MP2/aug-cc-pvtz', properties = ['dipole'])
--------------------------------------------------------------------------

    Molecular point group: c1
  Charge       = 0
  Multiplicity = 1
  Basis Set: AUG-CC-PVTZ
    Blend: AUG-CC-PVTZ
  Basis Set: (AUG-CC-PVTZ AUX)
    Blend: AUG-CC-PVTZ-JKFIT

    Orbital Energies [Eh]
    ---------------------

    Doubly Occupied:

       1A    -15.600035     2A    -11.265229     3A    -11.264775
       4A    -11.232373     5A    -11.231357     6A    -11.229435
       7A    -11.222996     8A    -11.222059     9A    -11.221999
      10A    -11.221328    11A     -1.291769    12A     -1.126620
      13A     -1.072130    14A     -0.996886    15A     -0.985631
      16A     -0.930900    17A     -0.838871    18A     -0.803502
      19A     -0.755575    20A     -0.719749    21A     -0.659815
      22A     -0.644458    23A     -0.603091    24A     -0.593757
      25A     -0.589897    26A     -0.569411    27A     -0.551341
      28A     -0.542235    29A     -0.529523    30A     -0.497148
      31A     -0.475798    32A     -0.462210    33A     -0.374382
      34A     -0.298411    35A     -0.277891

  @DF-RHF Final Energy:  -400.63705389026512

   => Energetics <=

    Nuclear Repulsion Energy =            483.1425984619288556
    One-Electron Energy =               -1499.7541342841902861
    Two-Electron Energy =                 615.9744819319962517
    Total Energy =                       -400.6370538902651788
  Basis Set: (AUG-CC-PVTZ AUX)
    Blend: AUG-CC-PVTZ-RI
    Molecular point group: c1

    Geometry (in Angstrom), charge = 0, multiplicity = 1:

       Center              X                  Y                   Z               Mass
    ------------   -----------------  -----------------  -----------------  -----------------
         C           -2.649742835351    -1.339592153520     0.009302760724    12.000000000000
         C           -0.202306835351    -0.412400153520     0.009376760724    12.000000000000
         C           -1.626616835351    -0.248594153520     0.009123760724    12.000000000000
         C            0.380051164649     0.885111846480     0.009005760724    12.000000000000
         C           -1.858063835351     1.109436846480     0.009092760724    12.000000000000
         C            2.019509164649    -1.340311153520     0.009188760724    12.000000000000
         C            2.574084164649    -0.041545153520     0.009080760724    12.000000000000
         C            0.645093664649    -1.536375553520    -0.091129239276    12.000000000000
         C            1.765710164649     1.088450846480     0.009452760724    12.000000000000
         N           -0.656581835351     1.790271846480     0.009054760724    14.003074004430
         H            2.685651164649    -2.199929153520     0.008798760724     1.007825032230
         H            3.655206164649     0.076445846480     0.009425760724     1.007825032230
         H            0.230034164649    -2.542781153520     0.009090760724     1.007825032230
         H            2.195658164649     2.088366846480     0.009441760724     1.007825032230
         H           -3.661411835351    -0.922792153520     0.008963760724     1.007825032230
         H           -2.551903835351    -1.980254153520     0.892440760724     1.007825032230
         H           -2.797489835351     1.649642846480     0.008795760724     1.007825032230
         H           -0.556393835351     2.796261846480     0.009036760724     1.007825032230
         H           -2.551570835351    -1.980845153520    -0.873373239276     1.007825032230

  Basis Set: AUG-CC-PVTZ
    Blend: AUG-CC-PVTZ
  Basis Set: (AUG-CC-PVTZ AUX)
    Blend: AUG-CC-PVTZ-JKFIT
	 Reference Energy          =    -400.6370538902651219 [Eh]
	 Singles Energy            =      -0.0000000000000000 [Eh]
	 Same-Spin Energy          =      -0.4518807258872024 [Eh]
	 Opposite-Spin Energy      =      -1.4044571783779725 [Eh]
	 Correlation Energy        =      -1.8563379042651749 [Eh]
	 Total Energy              =    -402.4933917945302824 [Eh]

	 ================> DF-SCS-MP2 Energies <==================
	-----------------------------------------------------------
	 SCS Same-Spin Scale       =       0.3333333333333333 [-]
	 SCS Opposite-Spin Scale   =       1.2000000000000000 [-]
	 SCS Same-Spin Energy      =      -0.1506269086290675 [Eh]
	 SCS Opposite-Spin Energy  =      -1.6853486140535670 [Eh]
	 SCS Correlation Energy    =      -1.8359755226826344 [Eh]
	 SCS Total Energy          =    -402.4730294129477670 [Eh]
	-----------------------------------------------------------

  Dipole Moment: [D]
     X:    -0.9483      Y:     1.8287      Z:     0.0662     Total:     2.0610

*** Psi4 exiting successfully. Buy a developer a beer!
