                               Psi4 1.3.2 release

  ==> Input File <==

--------------------------------------------------------------------------
#psi4
#
memory 32 gb

molecule  {
0 1
  C       -2.6260010    -1.3181790     0.0001460
  C       -0.1785650    -0.3909870     0.0002200
  C       -1.6028750    -0.2271810    -0.0000330
  C        0.4037930     0.9065250    -0.0001510
  C       -1.8343220     1.1308500    -0.0000640
  C        2.0432510    -1.3188980     0.0000320
  C        2.5978260    -0.0201320    -0.0000760
  C        0.6688440    -1.5149670    -0.0002860
  C        1.7894520     1.1098640     0.0002960
  N       -0.6328400     1.8116850    -0.0001020
  H        2.7093930    -2.1785160    -0.0003580
  H        3.6789480     0.0978590     0.0002690
  H        0.2537760    -2.5213680    -0.0000660
  H        2.2193657     2.1097231     0.3002850
  H       -3.6376700    -0.9013790    -0.0001930
  H       -2.5281620    -1.9588410     0.8832840
  H       -2.7737480     1.6710560    -0.0003610
  H       -0.5326520     2.8176750    -0.0001200
  H       -2.5278290    -1.9594320    -0.8825300
units angstrom
no_reorient  #important for SAPT in psi4, default
symmetry c1  #important for SAPT in psi4, default
}

set PROPERTIES_ORIGIN ["COM"]
properties('MP2/aug-cc-pvtz', properties = ['dipole'])
--------------------------------------------------------------------------

    Molecular point group: c1
  Charge       = 0
  Multiplicity = 1
  Basis Set: AUG-CC-PVTZ
    Blend: AUG-CC-PVTZ
  Basis Set: (AUG-CC-PVTZ AUX)
    Blend: AUG-CC-PVTZ-JKFIT

    Orbital Energies [Eh]
    ---------------------

    Doubly Occupied:

       1A    -15.600184     2A    -11.265913     3A    -11.264675
       4A    -11.235059     5A    -11.231739     6A    -11.230521
       7A    -11.223026     8A    -11.222112     9A    -11.221615
      10A    -11.221488    11A     -1.291911    12A     -1.127389
      13A     -1.072112    14A     -0.996789    15A     -0.986072
      16A     -0.931180    17A     -0.837935    18A     -0.804300
      19A     -0.754314    20A     -0.719212    21A     -0.659235
      22A     -0.643630    23A     -0.601867    24A     -0.594124
      25A     -0.587088    26A     -0.570030    27A     -0.551427
      28A     -0.542368    29A     -0.530143    30A     -0.497768
      31A     -0.476916    32A     -0.460420    33A     -0.373976
      34A     -0.298938    35A     -0.278074

  @DF-RHF Final Energy:  -400.63433739530785

   => Energetics <=

    Nuclear Repulsion Energy =            483.1019104482764988
    One-Electron Energy =               -1499.6653982051227558
    Two-Electron Energy =                 615.9291503615384045
    Total Energy =                       -400.6343373953078526
  Basis Set: (AUG-CC-PVTZ AUX)
    Blend: AUG-CC-PVTZ-RI
    Molecular point group: c1

    Geometry (in Angstrom), charge = 0, multiplicity = 1:

       Center              X                  Y                   Z               Mass
    ------------   -----------------  -----------------  -----------------  -----------------
         C           -2.649743349807    -1.339591294878    -0.002159110041    12.000000000000
         C           -0.202307349807    -0.412399294878    -0.002085110041    12.000000000000
         C           -1.626617349807    -0.248593294878    -0.002338110041    12.000000000000
         C            0.380050650193     0.885112705122    -0.002456110041    12.000000000000
         C           -1.858064349807     1.109437705122    -0.002369110041    12.000000000000
         C            2.019508650193    -1.340310294878    -0.002273110041    12.000000000000
         C            2.574083650193    -0.041544294878    -0.002381110041    12.000000000000
         C            0.645101650193    -1.536379294878    -0.002591110041    12.000000000000
         C            1.765709650193     1.088451705122    -0.002009110041    12.000000000000
         N           -0.656582349807     1.790272705122    -0.002407110041    14.003074004430
         H            2.685650650193    -2.199928294878    -0.002663110041     1.007825032230
         H            3.655205650193     0.076446705122    -0.002036110041     1.007825032230
         H            0.230033650193    -2.542780294878    -0.002371110041     1.007825032230
         H            2.195623350193     2.088310805122     0.297979889959     1.007825032230
         H           -3.661412349807    -0.922791294878    -0.002498110041     1.007825032230
         H           -2.551904349807    -1.980253294878     0.880978889959     1.007825032230
         H           -2.797490349807     1.649643705122    -0.002666110041     1.007825032230
         H           -0.556394349807     2.796262705122    -0.002425110041     1.007825032230
         H           -2.551571349807    -1.980844294878    -0.884835110041     1.007825032230

  Basis Set: AUG-CC-PVTZ
    Blend: AUG-CC-PVTZ
  Basis Set: (AUG-CC-PVTZ AUX)
    Blend: AUG-CC-PVTZ-JKFIT
	 Reference Energy          =    -400.6343373953078526 [Eh]
	 Singles Energy            =      -0.0000000000000000 [Eh]
	 Same-Spin Energy          =      -0.4519884653705784 [Eh]
	 Opposite-Spin Energy      =      -1.4048228563213905 [Eh]
	 Correlation Energy        =      -1.8568113216919688 [Eh]
	 Total Energy              =    -402.4911487169998168 [Eh]

	 ================> DF-SCS-MP2 Energies <==================
	-----------------------------------------------------------
	 SCS Same-Spin Scale       =       0.3333333333333333 [-]
	 SCS Opposite-Spin Scale   =       1.2000000000000000 [-]
	 SCS Same-Spin Energy      =      -0.1506628217901928 [Eh]
	 SCS Opposite-Spin Energy  =      -1.6857874275856686 [Eh]
	 SCS Correlation Energy    =      -1.8364502493758614 [Eh]
	 SCS Total Energy          =    -402.4707876446836963 [Eh]
	-----------------------------------------------------------

  Dipole Moment: [D]
     X:    -0.9965      Y:     1.7289      Z:     0.1931     Total:     2.0049

*** Psi4 exiting successfully. Buy a developer a beer!
