                               Psi4 1.3.2 release

  ==> Input File <==

--------------------------------------------------------------------------
#psi4
#
memory 32 gb

molecule  {
0 1
  C       -2.6260010    -1.3181790     0.0001460
  C       -0.1785650    -0.3909870     0.0002200
  C       -1.6028750    -0.2271810    -0.0000330
  C        0.4037930     0.9065250    -0.0001510
  C       -1.8343327     1.1308663     0.1499360
  C        2.0432510    -1.3188980     0.0000320
  C        2.5978260    -0.0201320    -0.0000760
  C        0.6688440    -1.5149670    -0.0002860
  C        1.7894520     1.1098640     0.0002960
  N       -0.6328400     1.8116850    -0.0001020
  H        2.7093930    -2.1785160    -0.0003580
  H        3.6789480     0.0978590     0.0002690
  H        0.2537760    -2.5213680    -0.0000660
  H        2.2194000     2.1097800     0.0002850
  H       -3.6376700    -0.9013790    -0.0001930
  H       -2.5281620    -1.9588410     0.8832840
  H       -2.7737480     1.6710560    -0.0003610
  H       -0.5326520     2.8176750    -0.0001200
  H       -2.5278290    -1.9594320    -0.8825300
units angstrom
no_reorient  #important for SAPT in psi4, default
symmetry c1  #important for SAPT in psi4, default
}

set PROPERTIES_ORIGIN ["COM"]
properties('MP2/aug-cc-pvtz', properties = ['dipole'])
--------------------------------------------------------------------------

    Molecular point group: c1
  Charge       = 0
  Multiplicity = 1
  Basis Set: AUG-CC-PVTZ
    Blend: AUG-CC-PVTZ
  Basis Set: (AUG-CC-PVTZ AUX)
    Blend: AUG-CC-PVTZ-JKFIT

    Orbital Energies [Eh]
    ---------------------

    Doubly Occupied:

       1A    -15.599136     2A    -11.266081     3A    -11.264960
       4A    -11.232225     5A    -11.231715     6A    -11.230512
       7A    -11.225695     8A    -11.222372     9A    -11.222187
      10A    -11.221615    11A     -1.289207    12A     -1.127293
      13A     -1.072010    14A     -0.997620    15A     -0.985679
      16A     -0.930493    17A     -0.838340    18A     -0.803946
      19A     -0.754773    20A     -0.718773    21A     -0.658143
      22A     -0.643373    23A     -0.603858    24A     -0.593809
      25A     -0.591317    26A     -0.566464    27A     -0.551715
      28A     -0.541704    29A     -0.529628    30A     -0.497618
      31A     -0.476496    32A     -0.462923    33A     -0.374424
      34A     -0.298836    35A     -0.278281

  @DF-RHF Final Energy:  -400.63373496818895

   => Energetics <=

    Nuclear Repulsion Energy =            482.9827926678594849
    One-Electron Energy =               -1499.4266182326109629
    Two-Electron Energy =                 615.8100905965625316
    Total Energy =                       -400.6337349681889464
  Basis Set: (AUG-CC-PVTZ AUX)
    Blend: AUG-CC-PVTZ-RI
    Molecular point group: c1

    Geometry (in Angstrom), charge = 0, multiplicity = 1:

       Center              X                  Y                   Z               Mass
    ------------   -----------------  -----------------  -----------------  -----------------
         C           -2.649742633937    -1.339593224675    -0.013585161062    12.000000000000
         C           -0.202306633937    -0.412401224675    -0.013511161062    12.000000000000
         C           -1.626616633937    -0.248595224675    -0.013764161062    12.000000000000
         C            0.380051366063     0.885110775325    -0.013882161062    12.000000000000
         C           -1.858074333937     1.109452075325     0.136204838938    12.000000000000
         C            2.019509366063    -1.340312224675    -0.013699161062    12.000000000000
         C            2.574084366063    -0.041546224675    -0.013807161062    12.000000000000
         C            0.645102366063    -1.536381224675    -0.014017161062    12.000000000000
         C            1.765710366063     1.088449775325    -0.013435161062    12.000000000000
         N           -0.656581633937     1.790270775325    -0.013833161062    14.003074004430
         H            2.685651366063    -2.199930224675    -0.014089161062     1.007825032230
         H            3.655206366063     0.076444775325    -0.013462161062     1.007825032230
         H            0.230034366063    -2.542782224675    -0.013797161062     1.007825032230
         H            2.195658366063     2.088365775325    -0.013446161062     1.007825032230
         H           -3.661411633937    -0.922793224675    -0.013924161062     1.007825032230
         H           -2.551903633937    -1.980255224675     0.869552838938     1.007825032230
         H           -2.797489633937     1.649641775325    -0.014092161062     1.007825032230
         H           -0.556393633937     2.796260775325    -0.013851161062     1.007825032230
         H           -2.551570633937    -1.980846224675    -0.896261161062     1.007825032230

  Basis Set: AUG-CC-PVTZ
    Blend: AUG-CC-PVTZ
  Basis Set: (AUG-CC-PVTZ AUX)
    Blend: AUG-CC-PVTZ-JKFIT
	 Reference Energy          =    -400.6337349681889464 [Eh]
	 Singles Energy            =      -0.0000000000000000 [Eh]
	 Same-Spin Energy          =      -0.4520887087455849 [Eh]
	 Opposite-Spin Energy      =      -1.4051872974147930 [Eh]
	 Correlation Energy        =      -1.8572760061603779 [Eh]
	 Total Energy              =    -402.4910109743493081 [Eh]

	 ================> DF-SCS-MP2 Energies <==================
	-----------------------------------------------------------
	 SCS Same-Spin Scale       =       0.3333333333333333 [-]
	 SCS Opposite-Spin Scale   =       1.2000000000000000 [-]
	 SCS Same-Spin Energy      =      -0.1506962362485283 [Eh]
	 SCS Opposite-Spin Energy  =      -1.6862247568977515 [Eh]
	 SCS Correlation Energy    =      -1.8369209931462798 [Eh]
	 SCS Total Energy          =    -402.4706559613352397 [Eh]
	-----------------------------------------------------------

  Dipole Moment: [D]
     X:    -0.8823      Y:     1.7254      Z:    -0.1036     Total:     1.9406

*** Psi4 exiting successfully. Buy a developer a beer!
