                               Psi4 1.3.2 release

  ==> Input File <==

--------------------------------------------------------------------------
#psi4
#
memory 32 gb

molecule  {
0 1
  C       -2.6260010    -1.3181790     0.0001460
  C       -0.1785650    -0.3909870     0.0002200
  C       -1.6028750    -0.2271810    -0.0000330
  C        0.4037930     0.9065250    -0.0001510
  C       -1.8343220     1.1308500    -0.0000640
  C        2.0432510    -1.3188980     0.0000320
  C        2.5978260    -0.0201320    -0.0000760
  C        0.6688440    -1.5149670    -0.0002860
  C        1.7894520     1.1098640     0.0002960
  N       -0.6328595     1.8117029     0.1498980
  H        2.7093930    -2.1785160    -0.0003580
  H        3.6789480     0.0978590     0.0002690
  H        0.2537760    -2.5213680    -0.0000660
  H        2.2194000     2.1097800     0.0002850
  H       -3.6376700    -0.9013790    -0.0001930
  H       -2.5281620    -1.9588410     0.8832840
  H       -2.7737480     1.6710560    -0.0003610
  H       -0.5326520     2.8176750    -0.0001200
  H       -2.5278290    -1.9594320    -0.8825300
units angstrom
no_reorient  #important for SAPT in psi4, default
symmetry c1  #important for SAPT in psi4, default
}

set PROPERTIES_ORIGIN ["COM"]
properties('MP2/aug-cc-pvtz', properties = ['dipole'])
--------------------------------------------------------------------------

    Molecular point group: c1
  Charge       = 0
  Multiplicity = 1
  Basis Set: AUG-CC-PVTZ
    Blend: AUG-CC-PVTZ
  Basis Set: (AUG-CC-PVTZ AUX)
    Blend: AUG-CC-PVTZ-JKFIT

    Orbital Energies [Eh]
    ---------------------

    Doubly Occupied:

       1A    -15.599572     2A    -11.265642     3A    -11.264579
       4A    -11.232286     5A    -11.231239     6A    -11.229991
       7A    -11.224265     8A    -11.223085     9A    -11.222247
      10A    -11.222065    11A     -1.287577    12A     -1.127079
      13A     -1.072160    14A     -0.997473    15A     -0.985504
      16A     -0.930060    17A     -0.837761    18A     -0.803142
      19A     -0.754758    20A     -0.716057    21A     -0.658152
      22A     -0.645124    23A     -0.604074    24A     -0.595761
      25A     -0.586929    26A     -0.569486    27A     -0.551701
      28A     -0.541616    29A     -0.529727    30A     -0.498114
      31A     -0.476270    32A     -0.463358    33A     -0.374954
      34A     -0.299916    35A     -0.278748

  @DF-RHF Final Energy:  -400.63673711345473

   => Energetics <=

    Nuclear Repulsion Energy =            482.9422908597001083
    One-Electron Energy =               -1499.3571104097857187
    Two-Electron Energy =                 615.7780824366309389
    Total Energy =                       -400.6367371134547284
  Basis Set: (AUG-CC-PVTZ AUX)
    Blend: AUG-CC-PVTZ-RI
    Molecular point group: c1

    Geometry (in Angstrom), charge = 0, multiplicity = 1:

       Center              X                  Y                   Z               Mass
    ------------   -----------------  -----------------  -----------------  -----------------
         C           -2.649741530282    -1.339593644706    -0.015877471119    12.000000000000
         C           -0.202305530282    -0.412401644706    -0.015803471119    12.000000000000
         C           -1.626615530282    -0.248595644706    -0.016056471119    12.000000000000
         C            0.380052469718     0.885110355294    -0.016174471119    12.000000000000
         C           -1.858062530282     1.109435355294    -0.016087471119    12.000000000000
         C            2.019510469718    -1.340312644706    -0.015991471119    12.000000000000
         C            2.574085469718    -0.041546644706    -0.016099471119    12.000000000000
         C            0.645103469718    -1.536381644706    -0.016309471119    12.000000000000
         C            1.765711469718     1.088449355294    -0.015727471119    12.000000000000
         N           -0.656600030282     1.790288255294     0.133874528881    14.003074004430
         H            2.685652469718    -2.199930644706    -0.016381471119     1.007825032230
         H            3.655207469718     0.076444355294    -0.015754471119     1.007825032230
         H            0.230035469718    -2.542782644706    -0.016089471119     1.007825032230
         H            2.195659469718     2.088365355294    -0.015738471119     1.007825032230
         H           -3.661410530282    -0.922793644706    -0.016216471119     1.007825032230
         H           -2.551902530282    -1.980255644706     0.867260528881     1.007825032230
         H           -2.797488530282     1.649641355294    -0.016384471119     1.007825032230
         H           -0.556392530282     2.796260355294    -0.016143471119     1.007825032230
         H           -2.551569530282    -1.980846644706    -0.898553471119     1.007825032230

  Basis Set: AUG-CC-PVTZ
    Blend: AUG-CC-PVTZ
  Basis Set: (AUG-CC-PVTZ AUX)
    Blend: AUG-CC-PVTZ-JKFIT
	 Reference Energy          =    -400.6367371134547284 [Eh]
	 Singles Energy            =      -0.0000000000000000 [Eh]
	 Same-Spin Energy          =      -0.4516557367609682 [Eh]
	 Opposite-Spin Energy      =      -1.4044860714646892 [Eh]
	 Correlation Energy        =      -1.8561418082256573 [Eh]
	 Total Energy              =    -402.4928789216803580 [Eh]

	 ================> DF-SCS-MP2 Energies <==================
	-----------------------------------------------------------
	 SCS Same-Spin Scale       =       0.3333333333333333 [-]
	 SCS Opposite-Spin Scale   =       1.2000000000000000 [-]
	 SCS Same-Spin Energy      =      -0.1505519122536561 [Eh]
	 SCS Opposite-Spin Energy  =      -1.6853832857576270 [Eh]
	 SCS Correlation Energy    =      -1.8359351980112830 [Eh]
	 SCS Total Energy          =    -402.4726723114659990 [Eh]
	-----------------------------------------------------------

  Dipole Moment: [D]
     X:    -0.9300      Y:     1.6818      Z:    -0.1608     Total:     1.9285

*** Psi4 exiting successfully. Buy a developer a beer!
