                               Psi4 1.3.2 release

  ==> Input File <==

--------------------------------------------------------------------------
#psi4
#
memory 32 gb

molecule  {
0 1
  C       -2.6260010    -1.3181790     0.0001460
  C       -0.1785650    -0.3909870     0.0002200
  C       -1.6028750    -0.2271810    -0.0000330
  C        0.4037930     0.9065250    -0.0001510
  C       -1.8343220     1.1308500    -0.0000640
  C        2.0432510    -1.3188980     0.0000320
  C        2.5978260    -0.0201320    -0.0000760
  C        0.6688440    -1.5149670    -0.0002860
  C        1.7894520     1.1098640     0.0002960
  N       -0.6328400     1.8116850    -0.0001020
  H        2.7093930    -2.1785160    -0.0003580
  H        3.6789480     0.0978590     0.0002690
  H        0.2537760    -2.5213680    -0.0000660
  H        2.2194000     2.1097800     0.0002850
  H       -3.6376700    -0.9013790    -0.0001930
  H       -2.5281620    -1.9588410     0.8832840
  H       -2.7737480     1.6710560    -0.0003610
  H       -0.5326579     2.8176746    -0.1501200
  H       -2.5278290    -1.9594320    -0.8825300
units angstrom
no_reorient  #important for SAPT in psi4, default
symmetry c1  #important for SAPT in psi4, default
}

set PROPERTIES_ORIGIN ["COM"]
properties('MP2/aug-cc-pvtz', properties = ['dipole'])
--------------------------------------------------------------------------

    Molecular point group: c1
  Charge       = 0
  Multiplicity = 1
  Basis Set: AUG-CC-PVTZ
    Blend: AUG-CC-PVTZ
  Basis Set: (AUG-CC-PVTZ AUX)
    Blend: AUG-CC-PVTZ-JKFIT

    Orbital Energies [Eh]
    ---------------------

    Doubly Occupied:

       1A    -15.600383     2A    -11.265139     3A    -11.264356
       4A    -11.231902     5A    -11.230700     6A    -11.229507
       7A    -11.222927     8A    -11.221960     9A    -11.221490
      10A    -11.221202    11A     -1.290969    12A     -1.126826
      13A     -1.071794    14A     -0.997180    15A     -0.985645
      16A     -0.930311    17A     -0.838761    18A     -0.803093
      19A     -0.755492    20A     -0.718325    21A     -0.659893
      22A     -0.644648    23A     -0.604029    24A     -0.595092
      25A     -0.588556    26A     -0.569678    27A     -0.551402
      28A     -0.541884    29A     -0.529673    30A     -0.497710
      31A     -0.475873    32A     -0.462862    33A     -0.374598
      34A     -0.298838    35A     -0.277907

  @DF-RHF Final Energy:  -400.63942039442901

   => Energetics <=

    Nuclear Repulsion Energy =            483.2050044870952092
    One-Electron Energy =               -1499.8876336254670605
    Two-Electron Energy =                 616.0432087439428415
    Total Energy =                       -400.6394203944289529
  Basis Set: (AUG-CC-PVTZ AUX)
    Blend: AUG-CC-PVTZ-RI
    Molecular point group: c1

    Geometry (in Angstrom), charge = 0, multiplicity = 1:

       Center              X                  Y                   Z               Mass
    ------------   -----------------  -----------------  -----------------  -----------------
         C           -2.649743568175    -1.339591729306     0.001300943035    12.000000000000
         C           -0.202307568175    -0.412399729306     0.001374943035    12.000000000000
         C           -1.626617568175    -0.248593729306     0.001121943035    12.000000000000
         C            0.380050431825     0.885112270694     0.001003943035    12.000000000000
         C           -1.858064568175     1.109437270694     0.001090943035    12.000000000000
         C            2.019508431825    -1.340310729306     0.001186943035    12.000000000000
         C            2.574083431825    -0.041544729306     0.001078943035    12.000000000000
         C            0.645101431825    -1.536379729306     0.000868943035    12.000000000000
         C            1.765709431825     1.088451270694     0.001450943035    12.000000000000
         N           -0.656582568175     1.790272270694     0.001052943035    14.003074004430
         H            2.685650431825    -2.199928729306     0.000796943035     1.007825032230
         H            3.655205431825     0.076446270694     0.001423943035     1.007825032230
         H            0.230033431825    -2.542780729306     0.001088943035     1.007825032230
         H            2.195657431825     2.088367270694     0.001439943035     1.007825032230
         H           -3.661412568175    -0.922791729306     0.000961943035     1.007825032230
         H           -2.551904568175    -1.980253729306     0.884438943035     1.007825032230
         H           -2.797490568175     1.649643270694     0.000793943035     1.007825032230
         H           -0.556400468175     2.796261870694    -0.148965056965     1.007825032230
         H           -2.551571568175    -1.980844729306    -0.881375056965     1.007825032230

  Basis Set: AUG-CC-PVTZ
    Blend: AUG-CC-PVTZ
  Basis Set: (AUG-CC-PVTZ AUX)
    Blend: AUG-CC-PVTZ-JKFIT
	 Reference Energy          =    -400.6394203944290098 [Eh]
	 Singles Energy            =      -0.0000000000000000 [Eh]
	 Same-Spin Energy          =      -0.4517446756575596 [Eh]
	 Opposite-Spin Energy      =      -1.4042903145678669 [Eh]
	 Correlation Energy        =      -1.8560349902254265 [Eh]
	 Total Energy              =    -402.4954553846544627 [Eh]

	 ================> DF-SCS-MP2 Energies <==================
	-----------------------------------------------------------
	 SCS Same-Spin Scale       =       0.3333333333333333 [-]
	 SCS Opposite-Spin Scale   =       1.2000000000000000 [-]
	 SCS Same-Spin Energy      =      -0.1505815585525199 [Eh]
	 SCS Opposite-Spin Energy  =      -1.6851483774814402 [Eh]
	 SCS Correlation Energy    =      -1.8357299360339601 [Eh]
	 SCS Total Energy          =    -402.4751503304629523 [Eh]
	-----------------------------------------------------------

  Dipole Moment: [D]
     X:    -0.9542      Y:     1.7811      Z:    -0.2118     Total:     2.0317

*** Psi4 exiting successfully. Buy a developer a beer!
