                               Psi4 1.3.2 release

  ==> Input File <==

--------------------------------------------------------------------------
#psi4
#
memory 32 gb

molecule  {
0 1
  C       -2.6260010    -1.3181790     0.0001460
  C       -0.1785650    -0.3909870     0.0002200
  C       -1.6028750    -0.2271810    -0.0000330
  C        0.4037930     0.9065250    -0.0001510
  C       -1.8343220     1.1308500    -0.0000640
  C        2.0432510    -1.3188980     0.0000320
  C        2.5978260    -0.0201320    -0.0000760
  C        0.6688440    -1.5149670    -0.0002860
  C        1.7894520     1.1098640     0.0002960
  N       -0.6328400     1.8116850    -0.0001020
  H        2.7093912    -2.1785488     0.2496420
  H        3.6789480     0.0978590     0.0002690
  H        0.2537760    -2.5213680    -0.0000660
  H        2.2194000     2.1097800     0.0002850
  H       -3.6376700    -0.9013790    -0.0001930
  H       -2.5281620    -1.9588410     0.8832840
  H       -2.7737480     1.6710560    -0.0003610
  H       -0.5326520     2.8176750    -0.0001200
  H       -2.5278290    -1.9594320    -0.8825300
units angstrom
no_reorient  #important for SAPT in psi4, default
symmetry c1  #important for SAPT in psi4, default
}

set PROPERTIES_ORIGIN ["COM"]
properties('MP2/aug-cc-pvtz', properties = ['dipole'])
--------------------------------------------------------------------------

    Molecular point group: c1
  Charge       = 0
  Multiplicity = 1
  Basis Set: AUG-CC-PVTZ
    Blend: AUG-CC-PVTZ
  Basis Set: (AUG-CC-PVTZ AUX)
    Blend: AUG-CC-PVTZ-JKFIT

    Orbital Energies [Eh]
    ---------------------

    Doubly Occupied:

       1A    -15.600363     2A    -11.265897     3A    -11.264791
       4A    -11.232074     5A    -11.231296     6A    -11.229896
       7A    -11.223460     8A    -11.223041     9A    -11.222084
      10A    -11.221603    11A     -1.292081    12A     -1.127162
      13A     -1.072421    14A     -0.997065    15A     -0.985671
      16A     -0.931214    17A     -0.838501    18A     -0.803444
      19A     -0.755483    20A     -0.720361    21A     -0.659478
      22A     -0.641626    23A     -0.603772    24A     -0.592898
      25A     -0.591641    26A     -0.569888    27A     -0.551687
      28A     -0.542153    29A     -0.529455    30A     -0.497248
      31A     -0.476122    32A     -0.460258    33A     -0.374852
      34A     -0.298564    35A     -0.278013

  @DF-RHF Final Energy:  -400.63608553399740

   => Energetics <=

    Nuclear Repulsion Energy =            483.1519457753799998
    One-Electron Energy =               -1499.7649384467533764
    Two-Electron Energy =                 615.9769071373759743
    Total Energy =                       -400.6360855339974023
  Basis Set: (AUG-CC-PVTZ AUX)
    Blend: AUG-CC-PVTZ-RI
    Molecular point group: c1

    Geometry (in Angstrom), charge = 0, multiplicity = 1:

       Center              X                  Y                   Z               Mass
    ------------   -----------------  -----------------  -----------------  -----------------
         C           -2.649743599700    -1.339591480183    -0.001774659699    12.000000000000
         C           -0.202307599700    -0.412399480183    -0.001700659699    12.000000000000
         C           -1.626617599700    -0.248593480183    -0.001953659699    12.000000000000
         C            0.380050400300     0.885112519817    -0.002071659699    12.000000000000
         C           -1.858064599700     1.109437519817    -0.001984659699    12.000000000000
         C            2.019508400300    -1.340310480183    -0.001888659699    12.000000000000
         C            2.574083400300    -0.041544480183    -0.001996659699    12.000000000000
         C            0.645101400300    -1.536379480183    -0.002206659699    12.000000000000
         C            1.765709400300     1.088451519817    -0.001624659699    12.000000000000
         N           -0.656582599700     1.790272519817    -0.002022659699    14.003074004430
         H            2.685648600300    -2.199961280183     0.247721340301     1.007825032230
         H            3.655205400300     0.076446519817    -0.001651659699     1.007825032230
         H            0.230033400300    -2.542780480183    -0.001986659699     1.007825032230
         H            2.195657400300     2.088367519817    -0.001635659699     1.007825032230
         H           -3.661412599700    -0.922791480183    -0.002113659699     1.007825032230
         H           -2.551904599700    -1.980253480183     0.881363340301     1.007825032230
         H           -2.797490599700     1.649643519817    -0.002281659699     1.007825032230
         H           -0.556394599700     2.796262519817    -0.002040659699     1.007825032230
         H           -2.551571599700    -1.980844480183    -0.884450659699     1.007825032230

  Basis Set: AUG-CC-PVTZ
    Blend: AUG-CC-PVTZ
  Basis Set: (AUG-CC-PVTZ AUX)
    Blend: AUG-CC-PVTZ-JKFIT
	 Reference Energy          =    -400.6360855339974023 [Eh]
	 Singles Energy            =      -0.0000000000000000 [Eh]
	 Same-Spin Energy          =      -0.4518755402732444 [Eh]
	 Opposite-Spin Energy      =      -1.4045555665177565 [Eh]
	 Correlation Energy        =      -1.8564311067910009 [Eh]
	 Total Energy              =    -402.4925166407883808 [Eh]

	 ================> DF-SCS-MP2 Energies <==================
	-----------------------------------------------------------
	 SCS Same-Spin Scale       =       0.3333333333333333 [-]
	 SCS Opposite-Spin Scale   =       1.2000000000000000 [-]
	 SCS Same-Spin Energy      =      -0.1506251800910814 [Eh]
	 SCS Opposite-Spin Energy  =      -1.6854666798213078 [Eh]
	 SCS Correlation Energy    =      -1.8360918599123892 [Eh]
	 SCS Total Energy          =    -402.4721773939098171 [Eh]
	-----------------------------------------------------------

  Dipole Moment: [D]
     X:    -1.0052      Y:     1.8534      Z:     0.1583     Total:     2.1144

*** Psi4 exiting successfully. Buy a developer a beer!
