                               Psi4 1.3.2 release

  ==> Input File <==

--------------------------------------------------------------------------
#psi4
#
memory 32 gb

molecule  {
0 1
  C       -2.6260010    -1.3181790     0.0001460
  C       -0.1785650    -0.3909870     0.0002200
  C       -1.6028750    -0.2271810    -0.0000330
  C        0.4037930     0.9065250    -0.0001510
  C       -1.8343220     1.1308500    -0.0000640
  C        2.0432510    -1.3188980     0.0000320
  C        2.5978260    -0.0201320    -0.0000760
  C        0.6688440    -1.5149670    -0.0002860
  C        1.7894520     1.1098640     0.0002960
  N       -0.6328400     1.8116850    -0.0001020
  H        2.7093930    -2.1785160    -0.0003580
  H        3.6789527     0.0978704    -0.0997310
  H        0.2537760    -2.5213680    -0.0000660
  H        2.2194000     2.1097800     0.0002850
  H       -3.6376700    -0.9013790    -0.0001930
  H       -2.5281620    -1.9588410     0.8832840
  H       -2.7737480     1.6710560    -0.0003610
  H       -0.5326520     2.8176750    -0.0001200
  H       -2.5278290    -1.9594320    -0.8825300
units angstrom
no_reorient  #important for SAPT in psi4, default
symmetry c1  #important for SAPT in psi4, default
}

set PROPERTIES_ORIGIN ["COM"]
properties('MP2/aug-cc-pvtz', properties = ['dipole'])
--------------------------------------------------------------------------

    Molecular point group: c1
  Charge       = 0
  Multiplicity = 1
  Basis Set: AUG-CC-PVTZ
    Blend: AUG-CC-PVTZ
  Basis Set: (AUG-CC-PVTZ AUX)
    Blend: AUG-CC-PVTZ-JKFIT

    Orbital Energies [Eh]
    ---------------------

    Doubly Occupied:

       1A    -15.599988     2A    -11.265308     3A    -11.264621
       4A    -11.231969     5A    -11.230661     6A    -11.229811
       7A    -11.222784     8A    -11.221876     9A    -11.221402
      10A    -11.221125    11A     -1.291731    12A     -1.127008
      13A     -1.072153    14A     -0.997353    15A     -0.985619
      16A     -0.930960    17A     -0.838960    18A     -0.803711
      19A     -0.755854    20A     -0.719983    21A     -0.659695
      22A     -0.644422    23A     -0.603487    24A     -0.592746
      25A     -0.591959    26A     -0.569728    27A     -0.551447
      28A     -0.542259    29A     -0.529366    30A     -0.497680
      31A     -0.475946    32A     -0.462588    33A     -0.374531
      34A     -0.298663    35A     -0.277752

  @DF-RHF Final Energy:  -400.63957563693685

   => Energetics <=

    Nuclear Repulsion Energy =            483.2407714845689384
    One-Electron Energy =               -1499.9504008509798041
    Two-Electron Energy =                 616.0700537294738979
    Total Energy =                       -400.6395756369369110
  Basis Set: (AUG-CC-PVTZ AUX)
    Blend: AUG-CC-PVTZ-RI
    Molecular point group: c1

    Geometry (in Angstrom), charge = 0, multiplicity = 1:

       Center              X                  Y                   Z               Mass
    ------------   -----------------  -----------------  -----------------  -----------------
         C           -2.649743649678    -1.339591820037     0.000916492693    12.000000000000
         C           -0.202307649678    -0.412399820037     0.000990492693    12.000000000000
         C           -1.626617649678    -0.248593820037     0.000737492693    12.000000000000
         C            0.380050350322     0.885112179963     0.000619492693    12.000000000000
         C           -1.858064649678     1.109437179963     0.000706492693    12.000000000000
         C            2.019508350322    -1.340310820037     0.000802492693    12.000000000000
         C            2.574083350322    -0.041544820037     0.000694492693    12.000000000000
         C            0.645101350322    -1.536379820037     0.000484492693    12.000000000000
         C            1.765709350322     1.088451179963     0.001066492693    12.000000000000
         N           -0.656582649678     1.790272179963     0.000668492693    14.003074004430
         H            2.685650350322    -2.199928820037     0.000412492693     1.007825032230
         H            3.655210050322     0.076457579963    -0.098960507307     1.007825032230
         H            0.230033350322    -2.542780820037     0.000704492693     1.007825032230
         H            2.195657350322     2.088367179963     0.001055492693     1.007825032230
         H           -3.661412649678    -0.922791820037     0.000577492693     1.007825032230
         H           -2.551904649678    -1.980253820037     0.884054492693     1.007825032230
         H           -2.797490649678     1.649643179963     0.000409492693     1.007825032230
         H           -0.556394649678     2.796262179963     0.000650492693     1.007825032230
         H           -2.551571649678    -1.980844820037    -0.881759507307     1.007825032230

  Basis Set: AUG-CC-PVTZ
    Blend: AUG-CC-PVTZ
  Basis Set: (AUG-CC-PVTZ AUX)
    Blend: AUG-CC-PVTZ-JKFIT
	 Reference Energy          =    -400.6395756369368542 [Eh]
	 Singles Energy            =      -0.0000000000000000 [Eh]
	 Same-Spin Energy          =      -0.4517271207699048 [Eh]
	 Opposite-Spin Energy      =      -1.4041907843647286 [Eh]
	 Correlation Energy        =      -1.8559179051346333 [Eh]
	 Total Energy              =    -402.4954935420714719 [Eh]

	 ================> DF-SCS-MP2 Energies <==================
	-----------------------------------------------------------
	 SCS Same-Spin Scale       =       0.3333333333333333 [-]
	 SCS Opposite-Spin Scale   =       1.2000000000000000 [-]
	 SCS Same-Spin Energy      =      -0.1505757069233016 [Eh]
	 SCS Opposite-Spin Energy  =      -1.6850289412376742 [Eh]
	 SCS Correlation Energy    =      -1.8356046481609758 [Eh]
	 SCS Total Energy          =    -402.4751802850978493 [Eh]
	-----------------------------------------------------------

  Dipole Moment: [D]
     X:    -0.9688      Y:     1.8041      Z:    -0.0657     Total:     2.0488

*** Psi4 exiting successfully. Buy a developer a beer!
