                               Psi4 1.3.2 release

  ==> Input File <==

--------------------------------------------------------------------------
#psi4
#
memory 32 gb

molecule  {
0 1
  C       -2.6260010    -1.3181790     0.0001460
  C       -0.1785650    -0.3909870     0.0002200
  C       -1.6028750    -0.2271810    -0.0000330
  C        0.4037930     0.9065250    -0.0001510
  C       -1.8343220     1.1308500    -0.0000640
  C        2.0432510    -1.3188980     0.0000320
  C        2.5978260    -0.0201320    -0.0000760
  C        0.6688440    -1.5149670    -0.0002860
  C        1.7894520     1.1098640     0.0002960
  N       -0.6328400     1.8116850    -0.0001020
  H        2.7093930    -2.1785160    -0.0003580
  H        3.6789573     0.0978817    -0.1997310
  H        0.2537760    -2.5213680    -0.0000660
  H        2.2194000     2.1097800     0.0002850
  H       -3.6376700    -0.9013790    -0.0001930
  H       -2.5281620    -1.9588410     0.8832840
  H       -2.7737480     1.6710560    -0.0003610
  H       -0.5326520     2.8176750    -0.0001200
  H       -2.5278290    -1.9594320    -0.8825300
units angstrom
no_reorient  #important for SAPT in psi4, default
symmetry c1  #important for SAPT in psi4, default
}

set PROPERTIES_ORIGIN ["COM"]
properties('MP2/aug-cc-pvtz', properties = ['dipole'])
--------------------------------------------------------------------------

    Molecular point group: c1
  Charge       = 0
  Multiplicity = 1
  Basis Set: AUG-CC-PVTZ
    Blend: AUG-CC-PVTZ
  Basis Set: (AUG-CC-PVTZ AUX)
    Blend: AUG-CC-PVTZ-JKFIT

    Orbital Energies [Eh]
    ---------------------

    Doubly Occupied:

       1A    -15.600134     2A    -11.265412     3A    -11.264856
       4A    -11.232368     5A    -11.230842     6A    -11.230712
       7A    -11.222974     8A    -11.222079     9A    -11.221533
      10A    -11.221332    11A     -1.291890    12A     -1.127061
      13A     -1.072256    14A     -0.997474    15A     -0.985387
      16A     -0.931018    17A     -0.838890    18A     -0.803081
      19A     -0.756009    20A     -0.719802    21A     -0.658981
      22A     -0.643827    23A     -0.603441    24A     -0.592885
      25A     -0.592013    26A     -0.569784    27A     -0.551640
      28A     -0.542164    29A     -0.528327    30A     -0.497800
      31A     -0.476450    32A     -0.461261    33A     -0.374514
      34A     -0.298745    35A     -0.277820

  @DF-RHF Final Energy:  -400.63760743796695

   => Energetics <=

    Nuclear Repulsion Energy =            483.1896425829028203
    One-Electron Energy =               -1499.8449767241131667
    Two-Electron Energy =                 616.0177267032433974
    Total Energy =                       -400.6376074379669490
  Basis Set: (AUG-CC-PVTZ AUX)
    Blend: AUG-CC-PVTZ-RI
    Molecular point group: c1

    Geometry (in Angstrom), charge = 0, multiplicity = 1:

       Center              X                  Y                   Z               Mass
    ------------   -----------------  -----------------  -----------------  -----------------
         C           -2.649743685048    -1.339591906923     0.001685393377    12.000000000000
         C           -0.202307685048    -0.412399906923     0.001759393377    12.000000000000
         C           -1.626617685048    -0.248593906923     0.001506393377    12.000000000000
         C            0.380050314952     0.885112093077     0.001388393377    12.000000000000
         C           -1.858064685048     1.109437093077     0.001475393377    12.000000000000
         C            2.019508314952    -1.340310906923     0.001571393377    12.000000000000
         C            2.574083314952    -0.041544906923     0.001463393377    12.000000000000
         C            0.645101314952    -1.536379906923     0.001253393377    12.000000000000
         C            1.765709314952     1.088451093077     0.001835393377    12.000000000000
         N           -0.656582685048     1.790272093077     0.001437393377    14.003074004430
         H            2.685650314952    -2.199928906923     0.001181393377     1.007825032230
         H            3.655214614952     0.076468793077    -0.198191606623     1.007825032230
         H            0.230033314952    -2.542780906923     0.001473393377     1.007825032230
         H            2.195657314952     2.088367093077     0.001824393377     1.007825032230
         H           -3.661412685048    -0.922791906923     0.001346393377     1.007825032230
         H           -2.551904685048    -1.980253906923     0.884823393377     1.007825032230
         H           -2.797490685048     1.649643093077     0.001178393377     1.007825032230
         H           -0.556394685048     2.796262093077     0.001419393377     1.007825032230
         H           -2.551571685048    -1.980844906923    -0.880990606623     1.007825032230

  Basis Set: AUG-CC-PVTZ
    Blend: AUG-CC-PVTZ
  Basis Set: (AUG-CC-PVTZ AUX)
    Blend: AUG-CC-PVTZ-JKFIT
	 Reference Energy          =    -400.6376074379669490 [Eh]
	 Singles Energy            =      -0.0000000000000000 [Eh]
	 Same-Spin Energy          =      -0.4518426085908591 [Eh]
	 Opposite-Spin Energy      =      -1.4044403973888597 [Eh]
	 Correlation Energy        =      -1.8562830059797188 [Eh]
	 Total Energy              =    -402.4938904439466683 [Eh]

	 ================> DF-SCS-MP2 Energies <==================
	-----------------------------------------------------------
	 SCS Same-Spin Scale       =       0.3333333333333333 [-]
	 SCS Opposite-Spin Scale   =       1.2000000000000000 [-]
	 SCS Same-Spin Energy      =      -0.1506142028636197 [Eh]
	 SCS Opposite-Spin Energy  =      -1.6853284768666317 [Eh]
	 SCS Correlation Energy    =      -1.8359426797302514 [Eh]
	 SCS Total Energy          =    -402.4735501176971866 [Eh]
	-----------------------------------------------------------

  Dipole Moment: [D]
     X:    -1.0019      Y:     1.8020      Z:    -0.1300     Total:     2.0659

*** Psi4 exiting successfully. Buy a developer a beer!
