                               Psi4 1.3.2 release

  ==> Input File <==

--------------------------------------------------------------------------
#psi4
#
memory 32 gb

molecule  {
0 1
  C       -2.6260010    -1.3181790     0.0001460
  C       -0.1785650    -0.3909870     0.0002200
  C       -1.6028750    -0.2271810    -0.0000330
  C        0.4037930     0.9065250    -0.0001510
  C       -1.8343363     1.1308718     0.1999360
  C        2.0432510    -1.3188980     0.0000320
  C        2.5978260    -0.0201320    -0.0000760
  C        0.6688440    -1.5149670    -0.0002860
  C        1.7894520     1.1098640     0.0002960
  N       -0.6328400     1.8116850    -0.0001020
  H        2.7093930    -2.1785160    -0.0003580
  H        3.6789480     0.0978590     0.0002690
  H        0.2537760    -2.5213680    -0.0000660
  H        2.2194000     2.1097800     0.0002850
  H       -3.6376700    -0.9013790    -0.0001930
  H       -2.5281620    -1.9588410     0.8832840
  H       -2.7737480     1.6710560    -0.0003610
  H       -0.5326520     2.8176750    -0.0001200
  H       -2.5278290    -1.9594320    -0.8825300
units angstrom
no_reorient  #important for SAPT in psi4, default
symmetry c1  #important for SAPT in psi4, default
}

set PROPERTIES_ORIGIN ["COM"]
properties('MP2/aug-cc-pvtz', properties = ['dipole'])
--------------------------------------------------------------------------

    Molecular point group: c1
  Charge       = 0
  Multiplicity = 1
  Basis Set: AUG-CC-PVTZ
    Blend: AUG-CC-PVTZ
  Basis Set: (AUG-CC-PVTZ AUX)
    Blend: AUG-CC-PVTZ-JKFIT

    Orbital Energies [Eh]
    ---------------------

    Doubly Occupied:

       1A    -15.598493     2A    -11.266722     3A    -11.265252
       4A    -11.232604     5A    -11.232554     6A    -11.231260
       7A    -11.228195     8A    -11.222761     9A    -11.222668
      10A    -11.222053    11A     -1.287336    12A     -1.127534
      13A     -1.071951    14A     -0.997887    15A     -0.985668
      16A     -0.930126    17A     -0.837890    18A     -0.803970
      19A     -0.754041    20A     -0.717899    21A     -0.656820
      22A     -0.642462    23A     -0.604072    24A     -0.594373
      25A     -0.591073    26A     -0.564240    27A     -0.551887
      28A     -0.541196    29A     -0.529457    30A     -0.497552
      31A     -0.477066    32A     -0.462828    33A     -0.374352
      34A     -0.299012    35A     -0.278716

  @DF-RHF Final Energy:  -400.62870083758014

   => Energetics <=

    Nuclear Repulsion Energy =            482.7717629051259678
    One-Electron Energy =               -1498.9969882001362294
    Two-Electron Energy =                 615.5965244574300641
    Total Energy =                       -400.6287008375801406
  Basis Set: (AUG-CC-PVTZ AUX)
    Blend: AUG-CC-PVTZ-RI
    Molecular point group: c1

    Geometry (in Angstrom), charge = 0, multiplicity = 1:

       Center              X                  Y                   Z               Mass
    ------------   -----------------  -----------------  -----------------  -----------------
         C           -2.649742304351    -1.339593728209    -0.018162745419    12.000000000000
         C           -0.202306304351    -0.412401728209    -0.018088745419    12.000000000000
         C           -1.626616304351    -0.248595728209    -0.018341745419    12.000000000000
         C            0.380051695649     0.885110271791    -0.018459745419    12.000000000000
         C           -1.858077604351     1.109457071791     0.181627254581    12.000000000000
         C            2.019509695649    -1.340312728209    -0.018276745419    12.000000000000
         C            2.574084695649    -0.041546728209    -0.018384745419    12.000000000000
         C            0.645102695649    -1.536381728209    -0.018594745419    12.000000000000
         C            1.765710695649     1.088449271791    -0.018012745419    12.000000000000
         N           -0.656581304351     1.790270271791    -0.018410745419    14.003074004430
         H            2.685651695649    -2.199930728209    -0.018666745419     1.007825032230
         H            3.655206695649     0.076444271791    -0.018039745419     1.007825032230
         H            0.230034695649    -2.542782728209    -0.018374745419     1.007825032230
         H            2.195658695649     2.088365271791    -0.018023745419     1.007825032230
         H           -3.661411304351    -0.922793728209    -0.018501745419     1.007825032230
         H           -2.551903304351    -1.980255728209     0.864975254581     1.007825032230
         H           -2.797489304351     1.649641271791    -0.018669745419     1.007825032230
         H           -0.556393304351     2.796260271791    -0.018428745419     1.007825032230
         H           -2.551570304351    -1.980846728209    -0.900838745419     1.007825032230

  Basis Set: AUG-CC-PVTZ
    Blend: AUG-CC-PVTZ
  Basis Set: (AUG-CC-PVTZ AUX)
    Blend: AUG-CC-PVTZ-JKFIT
	 Reference Energy          =    -400.6287008375801406 [Eh]
	 Singles Energy            =      -0.0000000000000000 [Eh]
	 Same-Spin Energy          =      -0.4523855214694175 [Eh]
	 Opposite-Spin Energy      =      -1.4060591837842162 [Eh]
	 Correlation Energy        =      -1.8584447052536337 [Eh]
	 Total Energy              =    -402.4871455428337867 [Eh]

	 ================> DF-SCS-MP2 Energies <==================
	-----------------------------------------------------------
	 SCS Same-Spin Scale       =       0.3333333333333333 [-]
	 SCS Opposite-Spin Scale   =       1.2000000000000000 [-]
	 SCS Same-Spin Energy      =      -0.1507951738231391 [Eh]
	 SCS Opposite-Spin Energy  =      -1.6872710205410595 [Eh]
	 SCS Correlation Energy    =      -1.8380661943641987 [Eh]
	 SCS Total Energy          =    -402.4667670319443573 [Eh]
	-----------------------------------------------------------

  Dipole Moment: [D]
     X:    -0.8251      Y:     1.6668      Z:    -0.1406     Total:     1.8652

*** Psi4 exiting successfully. Buy a developer a beer!
