                               Psi4 1.3.2 release

  ==> Input File <==

--------------------------------------------------------------------------
#psi4
#
memory 32 gb

molecule  {
0 1
  C       -2.6260010    -1.3181790     0.0001460
  C       -0.1785650    -0.3909870     0.0002200
  C       -1.6028750    -0.2271810    -0.0000330
  C        0.4037930     0.9065250    -0.0001510
  C       -1.8343220     1.1308500    -0.0000640
  C        2.0432510    -1.3188980     0.0000320
  C        2.5978260    -0.0201320    -0.0000760
  C        0.6688440    -1.5149670    -0.0002860
  C        1.7894520     1.1098640     0.0002960
  N       -0.6328789     1.8117208     0.2998980
  H        2.7093930    -2.1785160    -0.0003580
  H        3.6789480     0.0978590     0.0002690
  H        0.2537760    -2.5213680    -0.0000660
  H        2.2194000     2.1097800     0.0002850
  H       -3.6376700    -0.9013790    -0.0001930
  H       -2.5281620    -1.9588410     0.8832840
  H       -2.7737480     1.6710560    -0.0003610
  H       -0.5326520     2.8176750    -0.0001200
  H       -2.5278290    -1.9594320    -0.8825300
units angstrom
no_reorient  #important for SAPT in psi4, default
symmetry c1  #important for SAPT in psi4, default
}

set PROPERTIES_ORIGIN ["COM"]
properties('MP2/aug-cc-pvtz', properties = ['dipole'])
--------------------------------------------------------------------------

    Molecular point group: c1
  Charge       = 0
  Multiplicity = 1
  Basis Set: AUG-CC-PVTZ
    Blend: AUG-CC-PVTZ
  Basis Set: (AUG-CC-PVTZ AUX)
    Blend: AUG-CC-PVTZ-JKFIT

    Orbital Energies [Eh]
    ---------------------

    Doubly Occupied:

       1A    -15.599771     2A    -11.266628     3A    -11.264688
       4A    -11.233522     5A    -11.232912     6A    -11.231467
       7A    -11.228757     8A    -11.226636     9A    -11.224824
      10A    -11.224400    11A     -1.276002    12A     -1.127203
      13A     -1.072334    14A     -0.998241    15A     -0.984879
      16A     -0.928008    17A     -0.835035    18A     -0.801376
      19A     -0.752490    20A     -0.704287    21A     -0.653056
      22A     -0.646573    23A     -0.604413    24A     -0.597526
      25A     -0.581235    26A     -0.568617    27A     -0.552676
      28A     -0.539087    29A     -0.528901    30A     -0.499225
      31A     -0.477535    32A     -0.464251    33A     -0.376210
      34A     -0.304068    35A     -0.280920

  @DF-RHF Final Energy:  -400.62494049590322

   => Energetics <=

    Nuclear Repulsion Energy =            482.0249455194459074
    One-Electron Energy =               -1497.5242678111517307
    Two-Electron Energy =                 614.8743817958024920
    Total Energy =                       -400.6249404959032745
  Basis Set: (AUG-CC-PVTZ AUX)
    Blend: AUG-CC-PVTZ-RI
    Molecular point group: c1

    Geometry (in Angstrom), charge = 0, multiplicity = 1:

       Center              X                  Y                   Z               Mass
    ------------   -----------------  -----------------  -----------------  -----------------
         C           -2.649739457707    -1.339595557030    -0.031902534247    12.000000000000
         C           -0.202303457707    -0.412403557030    -0.031828534247    12.000000000000
         C           -1.626613457707    -0.248597557030    -0.032081534247    12.000000000000
         C            0.380054542293     0.885108442970    -0.032199534247    12.000000000000
         C           -1.858060457707     1.109433442970    -0.032112534247    12.000000000000
         C            2.019512542293    -1.340314557030    -0.032016534247    12.000000000000
         C            2.574087542293    -0.041548557030    -0.032124534247    12.000000000000
         C            0.645105542293    -1.536383557030    -0.032334534247    12.000000000000
         C            1.765713542293     1.088447442970    -0.031752534247    12.000000000000
         N           -0.656617357707     1.790304242970     0.267849465753    14.003074004430
         H            2.685654542293    -2.199932557030    -0.032406534247     1.007825032230
         H            3.655209542293     0.076442442970    -0.031779534247     1.007825032230
         H            0.230037542293    -2.542784557030    -0.032114534247     1.007825032230
         H            2.195661542293     2.088363442970    -0.031763534247     1.007825032230
         H           -3.661408457707    -0.922795557030    -0.032241534247     1.007825032230
         H           -2.551900457707    -1.980257557030     0.851235465753     1.007825032230
         H           -2.797486457707     1.649639442970    -0.032409534247     1.007825032230
         H           -0.556390457707     2.796258442970    -0.032168534247     1.007825032230
         H           -2.551567457707    -1.980848557030    -0.914578534247     1.007825032230

  Basis Set: AUG-CC-PVTZ
    Blend: AUG-CC-PVTZ
  Basis Set: (AUG-CC-PVTZ AUX)
    Blend: AUG-CC-PVTZ-JKFIT
	 Reference Energy          =    -400.6249404959032177 [Eh]
	 Singles Energy            =      -0.0000000000000000 [Eh]
	 Same-Spin Energy          =      -0.4516252727908171 [Eh]
	 Opposite-Spin Energy      =      -1.4060442551915395 [Eh]
	 Correlation Energy        =      -1.8576695279823565 [Eh]
	 Total Energy              =    -402.4826100238855702 [Eh]

	 ================> DF-SCS-MP2 Energies <==================
	-----------------------------------------------------------
	 SCS Same-Spin Scale       =       0.3333333333333333 [-]
	 SCS Opposite-Spin Scale   =       1.2000000000000000 [-]
	 SCS Same-Spin Energy      =      -0.1505417575969390 [Eh]
	 SCS Opposite-Spin Energy  =      -1.6872531062298475 [Eh]
	 SCS Correlation Energy    =      -1.8377948638267865 [Eh]
	 SCS Total Energy          =    -402.4627353597300043 [Eh]
	-----------------------------------------------------------

  Dipole Moment: [D]
     X:    -0.8551      Y:     1.3428      Z:    -0.3384     Total:     1.6276

*** Psi4 exiting successfully. Buy a developer a beer!
