                               Psi4 1.3.2 release

  ==> Input File <==

--------------------------------------------------------------------------
#psi4
#
memory 32 gb

molecule  {
0 1
  C       -2.6260010    -1.3181790     0.0001460
  C       -0.1785650    -0.3909870     0.0002200
  C       -1.6028750    -0.2271810    -0.0000330
  C        0.4037930     0.9065250    -0.0001510
  C       -1.8343220     1.1308500    -0.0000640
  C        2.0432510    -1.3188980     0.0000320
  C        2.5978260    -0.0201320    -0.0000760
  C        0.6688440    -1.5149670    -0.0002860
  C        1.7894520     1.1098640     0.0002960
  N       -0.6328400     1.8116850    -0.0001020
  H        2.7093930    -2.1785160    -0.0003580
  H        3.6789480     0.0978590     0.0002690
  H        0.2537760    -2.5213680    -0.0000660
  H        2.2194000     2.1097800     0.0002850
  H       -3.6376700    -0.9013790    -0.0001930
  H       -2.5281620    -1.9588410     0.8832840
  H       -2.7737862     1.6710843     0.2996390
  H       -0.5326520     2.8176750    -0.0001200
  H       -2.5278290    -1.9594320    -0.8825300
units angstrom
no_reorient  #important for SAPT in psi4, default
symmetry c1  #important for SAPT in psi4, default
}

set PROPERTIES_ORIGIN ["COM"]
properties('MP2/aug-cc-pvtz', properties = ['dipole'])
--------------------------------------------------------------------------

    Molecular point group: c1
  Charge       = 0
  Multiplicity = 1
  Basis Set: AUG-CC-PVTZ
    Blend: AUG-CC-PVTZ
  Basis Set: (AUG-CC-PVTZ AUX)
    Blend: AUG-CC-PVTZ-JKFIT

    Orbital Energies [Eh]
    ---------------------

    Doubly Occupied:

       1A    -15.599516     2A    -11.267041     3A    -11.266059
       4A    -11.232252     5A    -11.231447     6A    -11.230272
       7A    -11.223960     8A    -11.222395     9A    -11.221872
      10A    -11.221549    11A     -1.291597    12A     -1.127476
      13A     -1.072565    14A     -0.997789    15A     -0.985388
      16A     -0.930703    17A     -0.837089    18A     -0.803618
      19A     -0.754870    20A     -0.719195    21A     -0.658723
      22A     -0.641774    23A     -0.603965    24A     -0.593523
      25A     -0.593211    26A     -0.564088    27A     -0.550992
      28A     -0.542553    29A     -0.529120    30A     -0.497778
      31A     -0.476345    32A     -0.462703    33A     -0.374900
      34A     -0.298922    35A     -0.278281

  @DF-RHF Final Energy:  -400.63462673144841

   => Energetics <=

    Nuclear Repulsion Energy =            483.1010066749778957
    One-Electron Energy =               -1499.6642063986018911
    Two-Electron Energy =                 615.9285729921755319
    Total Energy =                       -400.6346267314484066
  Basis Set: (AUG-CC-PVTZ AUX)
    Blend: AUG-CC-PVTZ-RI
    Molecular point group: c1

    Geometry (in Angstrom), charge = 0, multiplicity = 1:

       Center              X                  Y                   Z               Mass
    ------------   -----------------  -----------------  -----------------  -----------------
         C           -2.649743319820    -1.339591949981    -0.002159110041    12.000000000000
         C           -0.202307319820    -0.412399949981    -0.002085110041    12.000000000000
         C           -1.626617319820    -0.248593949981    -0.002338110041    12.000000000000
         C            0.380050680180     0.885112050019    -0.002456110041    12.000000000000
         C           -1.858064319820     1.109437050019    -0.002369110041    12.000000000000
         C            2.019508680180    -1.340310949981    -0.002273110041    12.000000000000
         C            2.574083680180    -0.041544949981    -0.002381110041    12.000000000000
         C            0.645101680180    -1.536379949981    -0.002591110041    12.000000000000
         C            1.765709680180     1.088451050019    -0.002009110041    12.000000000000
         N           -0.656582319820     1.790272050019    -0.002407110041    14.003074004430
         H            2.685650680180    -2.199928949981    -0.002663110041     1.007825032230
         H            3.655205680180     0.076446050019    -0.002036110041     1.007825032230
         H            0.230033680180    -2.542780949981    -0.002371110041     1.007825032230
         H            2.195657680180     2.088367050019    -0.002020110041     1.007825032230
         H           -3.661412319820    -0.922791949981    -0.002498110041     1.007825032230
         H           -2.551904319820    -1.980253949981     0.880978889959     1.007825032230
         H           -2.797528519820     1.649671350019     0.297333889959     1.007825032230
         H           -0.556394319820     2.796262050019    -0.002425110041     1.007825032230
         H           -2.551571319820    -1.980844949981    -0.884835110041     1.007825032230

  Basis Set: AUG-CC-PVTZ
    Blend: AUG-CC-PVTZ
  Basis Set: (AUG-CC-PVTZ AUX)
    Blend: AUG-CC-PVTZ-JKFIT
	 Reference Energy          =    -400.6346267314484066 [Eh]
	 Singles Energy            =      -0.0000000000000000 [Eh]
	 Same-Spin Energy          =      -0.4520449978168649 [Eh]
	 Opposite-Spin Energy      =      -1.4049798793785016 [Eh]
	 Correlation Energy        =      -1.8570248771953666 [Eh]
	 Total Energy              =    -402.4916516086437923 [Eh]

	 ================> DF-SCS-MP2 Energies <==================
	-----------------------------------------------------------
	 SCS Same-Spin Scale       =       0.3333333333333333 [-]
	 SCS Opposite-Spin Scale   =       1.2000000000000000 [-]
	 SCS Same-Spin Energy      =      -0.1506816659389550 [Eh]
	 SCS Opposite-Spin Energy  =      -1.6859758552542019 [Eh]
	 SCS Correlation Energy    =      -1.8366575211931568 [Eh]
	 SCS Total Energy          =    -402.4712842526415670 [Eh]
	-----------------------------------------------------------

  Dipole Moment: [D]
     X:    -0.8698      Y:     1.7412      Z:     0.2315     Total:     1.9601

*** Psi4 exiting successfully. Buy a developer a beer!
