                               Psi4 1.3.2 release

  ==> Input File <==

--------------------------------------------------------------------------
#psi4
#
memory 32 gb

molecule  {
0 1
  C       -2.6260010    -1.3181790     0.0001460
  C       -0.1785650    -0.3909870     0.0002200
  C       -1.6028750    -0.2271810    -0.0000330
  C        0.4037930     0.9065250    -0.0001510
  C       -1.8343220     1.1308500    -0.0000640
  C        2.0432510    -1.3188980     0.0000320
  C        2.5978260    -0.0201320    -0.0000760
  C        0.6688440    -1.5149670    -0.0002860
  C        1.7894520     1.1098640     0.0002960
  N       -0.6328400     1.8116850    -0.0001020
  H        2.7093930    -2.1785160    -0.0003580
  H        3.6789480     0.0978590     0.0002690
  H        0.2537729    -2.5213552    -0.1000660
  H        2.2194000     2.1097800     0.0002850
  H       -3.6376700    -0.9013790    -0.0001930
  H       -2.5281620    -1.9588410     0.8832840
  H       -2.7737480     1.6710560    -0.0003610
  H       -0.5326520     2.8176750    -0.0001200
  H       -2.5278290    -1.9594320    -0.8825300
units angstrom
no_reorient  #important for SAPT in psi4, default
symmetry c1  #important for SAPT in psi4, default
}

set PROPERTIES_ORIGIN ["COM"]
properties('MP2/aug-cc-pvtz', properties = ['dipole'])
--------------------------------------------------------------------------

    Molecular point group: c1
  Charge       = 0
  Multiplicity = 1
  Basis Set: AUG-CC-PVTZ
    Blend: AUG-CC-PVTZ
  Basis Set: (AUG-CC-PVTZ AUX)
    Blend: AUG-CC-PVTZ-JKFIT

    Orbital Energies [Eh]
    ---------------------

    Doubly Occupied:

       1A    -15.599972     2A    -11.265305     3A    -11.264581
       4A    -11.231955     5A    -11.231026     6A    -11.229492
       7A    -11.222748     8A    -11.221837     9A    -11.221348
      10A    -11.221158    11A     -1.291711    12A     -1.127013
      13A     -1.072133    14A     -0.997238    15A     -0.985727
      16A     -0.930914    17A     -0.838867    18A     -0.803966
      19A     -0.755710    20A     -0.719760    21A     -0.659859
      22A     -0.644641    23A     -0.603349    24A     -0.592955
      25A     -0.591311    26A     -0.569697    27A     -0.551371
      28A     -0.542271    29A     -0.529685    30A     -0.497646
      31A     -0.476068    32A     -0.462476    33A     -0.374481
      34A     -0.298668    35A     -0.277744

  @DF-RHF Final Energy:  -400.63957782971715

   => Energetics <=

    Nuclear Repulsion Energy =            483.2397794955890618
    One-Electron Energy =               -1499.9493464000693166
    Two-Electron Energy =                 616.0699890747630434
    Total Energy =                       -400.6395778297171546
  Basis Set: (AUG-CC-PVTZ AUX)
    Blend: AUG-CC-PVTZ-RI
    Molecular point group: c1

    Geometry (in Angstrom), charge = 0, multiplicity = 1:

       Center              X                  Y                   Z               Mass
    ------------   -----------------  -----------------  -----------------  -----------------
         C           -2.649743589704    -1.339591830801     0.000916492693    12.000000000000
         C           -0.202307589704    -0.412399830801     0.000990492693    12.000000000000
         C           -1.626617589704    -0.248593830801     0.000737492693    12.000000000000
         C            0.380050410296     0.885112169199     0.000619492693    12.000000000000
         C           -1.858064589704     1.109437169199     0.000706492693    12.000000000000
         C            2.019508410296    -1.340310830801     0.000802492693    12.000000000000
         C            2.574083410296    -0.041544830801     0.000694492693    12.000000000000
         C            0.645101410296    -1.536379830801     0.000484492693    12.000000000000
         C            1.765709410296     1.088451169199     0.001066492693    12.000000000000
         N           -0.656582589704     1.790272169199     0.000668492693    14.003074004430
         H            2.685650410296    -2.199928830801     0.000412492693     1.007825032230
         H            3.655205410296     0.076446169199     0.001039492693     1.007825032230
         H            0.230030310296    -2.542768030801    -0.099295507307     1.007825032230
         H            2.195657410296     2.088367169199     0.001055492693     1.007825032230
         H           -3.661412589704    -0.922791830801     0.000577492693     1.007825032230
         H           -2.551904589704    -1.980253830801     0.884054492693     1.007825032230
         H           -2.797490589704     1.649643169199     0.000409492693     1.007825032230
         H           -0.556394589704     2.796262169199     0.000650492693     1.007825032230
         H           -2.551571589704    -1.980844830801    -0.881759507307     1.007825032230

  Basis Set: AUG-CC-PVTZ
    Blend: AUG-CC-PVTZ
  Basis Set: (AUG-CC-PVTZ AUX)
    Blend: AUG-CC-PVTZ-JKFIT
	 Reference Energy          =    -400.6395778297171546 [Eh]
	 Singles Energy            =      -0.0000000000000000 [Eh]
	 Same-Spin Energy          =      -0.4517311686970971 [Eh]
	 Opposite-Spin Energy      =      -1.4041978470311922 [Eh]
	 Correlation Energy        =      -1.8559290157282893 [Eh]
	 Total Energy              =    -402.4955068454454477 [Eh]

	 ================> DF-SCS-MP2 Energies <==================
	-----------------------------------------------------------
	 SCS Same-Spin Scale       =       0.3333333333333333 [-]
	 SCS Opposite-Spin Scale   =       1.2000000000000000 [-]
	 SCS Same-Spin Energy      =      -0.1505770562323657 [Eh]
	 SCS Opposite-Spin Energy  =      -1.6850374164374307 [Eh]
	 SCS Correlation Energy    =      -1.8356144726697963 [Eh]
	 SCS Total Energy          =    -402.4751923023869722 [Eh]
	-----------------------------------------------------------

  Dipole Moment: [D]
     X:    -0.9545      Y:     1.8128      Z:    -0.0618     Total:     2.0497

*** Psi4 exiting successfully. Buy a developer a beer!
