                               Psi4 1.3.2 release

  ==> Input File <==

--------------------------------------------------------------------------
#psi4
#
memory 32 gb

molecule  {
0 1
  C       -2.6260010    -1.3181790     0.0001460
  C       -0.1785650    -0.3909870     0.0002200
  C       -1.6028750    -0.2271810    -0.0000330
  C        0.4037930     0.9065250    -0.0001510
  C       -1.8343220     1.1308500    -0.0000640
  C        2.0432510    -1.3188980     0.0000320
  C        2.5978260    -0.0201320    -0.0000760
  C        0.6688440    -1.5149670    -0.0002860
  C        1.7894520     1.1098640     0.0002960
  N       -0.6328724     1.8117149     0.2498980
  H        2.7093930    -2.1785160    -0.0003580
  H        3.6789480     0.0978590     0.0002690
  H        0.2537760    -2.5213680    -0.0000660
  H        2.2194000     2.1097800     0.0002850
  H       -3.6376700    -0.9013790    -0.0001930
  H       -2.5281620    -1.9588410     0.8832840
  H       -2.7737480     1.6710560    -0.0003610
  H       -0.5326520     2.8176750    -0.0001200
  H       -2.5278290    -1.9594320    -0.8825300
units angstrom
no_reorient  #important for SAPT in psi4, default
symmetry c1  #important for SAPT in psi4, default
}

set PROPERTIES_ORIGIN ["COM"]
properties('MP2/aug-cc-pvtz', properties = ['dipole'])
--------------------------------------------------------------------------

    Molecular point group: c1
  Charge       = 0
  Multiplicity = 1
  Basis Set: AUG-CC-PVTZ
    Blend: AUG-CC-PVTZ
  Basis Set: (AUG-CC-PVTZ AUX)
    Blend: AUG-CC-PVTZ-JKFIT

    Orbital Energies [Eh]
    ---------------------

    Doubly Occupied:

       1A    -15.599476     2A    -11.266243     3A    -11.264640
       4A    -11.233031     5A    -11.232252     6A    -11.230892
       7A    -11.226974     8A    -11.225265     9A    -11.223746
      10A    -11.223566    11A     -1.280591    12A     -1.127178
      13A     -1.072260    14A     -0.997893    15A     -0.985133
      16A     -0.928751    17A     -0.836001    18A     -0.801997
      19A     -0.753290    20A     -0.708980    21A     -0.655067
      22A     -0.645999    23A     -0.604466    24A     -0.597067
      25A     -0.583031    26A     -0.569001    27A     -0.552286
      28A     -0.540157    29A     -0.529416    30A     -0.498830
      31A     -0.477071    32A     -0.463890    33A     -0.375698
      34A     -0.302340    35A     -0.280175

  @DF-RHF Final Energy:  -400.62999044333054

   => Energetics <=

    Nuclear Repulsion Energy =            482.3934885275971283
    One-Electron Energy =               -1498.2616471953492692
    Two-Electron Energy =                 615.2381682244216563
    Total Energy =                       -400.6299904433304846
  Basis Set: (AUG-CC-PVTZ AUX)
    Blend: AUG-CC-PVTZ-RI
    Molecular point group: c1

    Geometry (in Angstrom), charge = 0, multiplicity = 1:

       Center              X                  Y                   Z               Mass
    ------------   -----------------  -----------------  -----------------  -----------------
         C           -2.649740152126    -1.339594926711    -0.026560846538    12.000000000000
         C           -0.202304152126    -0.412402926711    -0.026486846538    12.000000000000
         C           -1.626614152126    -0.248596926711    -0.026739846538    12.000000000000
         C            0.380053847874     0.885109073289    -0.026857846538    12.000000000000
         C           -1.858061152126     1.109434073289    -0.026770846538    12.000000000000
         C            2.019511847874    -1.340313926711    -0.026674846538    12.000000000000
         C            2.574086847874    -0.041547926711    -0.026782846538    12.000000000000
         C            0.645104847874    -1.536382926711    -0.026992846538    12.000000000000
         C            1.765712847874     1.088448073289    -0.026410846538    12.000000000000
         N           -0.656611552126     1.790298973289     0.223191153462    14.003074004430
         H            2.685653847874    -2.199931926711    -0.027064846538     1.007825032230
         H            3.655208847874     0.076443073289    -0.026437846538     1.007825032230
         H            0.230036847874    -2.542783926711    -0.026772846538     1.007825032230
         H            2.195660847874     2.088364073289    -0.026421846538     1.007825032230
         H           -3.661409152126    -0.922794926711    -0.026899846538     1.007825032230
         H           -2.551901152126    -1.980256926711     0.856577153462     1.007825032230
         H           -2.797487152126     1.649640073289    -0.027067846538     1.007825032230
         H           -0.556391152126     2.796259073289    -0.026826846538     1.007825032230
         H           -2.551568152126    -1.980847926711    -0.909236846538     1.007825032230

  Basis Set: AUG-CC-PVTZ
    Blend: AUG-CC-PVTZ
  Basis Set: (AUG-CC-PVTZ AUX)
    Blend: AUG-CC-PVTZ-JKFIT
	 Reference Energy          =    -400.6299904433305414 [Eh]
	 Singles Energy            =      -0.0000000000000000 [Eh]
	 Same-Spin Energy          =      -0.4516254150780495 [Eh]
	 Opposite-Spin Energy      =      -1.4053641955066540 [Eh]
	 Correlation Energy        =      -1.8569896105847035 [Eh]
	 Total Energy              =    -402.4869800539152607 [Eh]

	 ================> DF-SCS-MP2 Energies <==================
	-----------------------------------------------------------
	 SCS Same-Spin Scale       =       0.3333333333333333 [-]
	 SCS Opposite-Spin Scale   =       1.2000000000000000 [-]
	 SCS Same-Spin Energy      =      -0.1505418050260165 [Eh]
	 SCS Opposite-Spin Energy  =      -1.6864370346079849 [Eh]
	 SCS Correlation Energy    =      -1.8369788396340014 [Eh]
	 SCS Total Energy          =    -402.4669692829645555 [Eh]
	-----------------------------------------------------------

  Dipole Moment: [D]
     X:    -0.8843      Y:     1.4757      Z:    -0.2771     Total:     1.7426

*** Psi4 exiting successfully. Buy a developer a beer!
