                               Psi4 1.3.2 release

  ==> Input File <==

--------------------------------------------------------------------------
#psi4
#
memory 32 gb

molecule  {
0 1
  C       -2.6260010    -1.3181790     0.0001460
  C       -0.1785650    -0.3909870     0.0002200
  C       -1.6028750    -0.2271810    -0.0000330
  C        0.4037930     0.9065250    -0.0001510
  C       -1.8343220     1.1308500    -0.0000640
  C        2.0432510    -1.3188980     0.0000320
  C        2.5978260    -0.0201320    -0.0000760
  C        0.6688440    -1.5149670    -0.0002860
  C        1.7894520     1.1098640     0.0002960
  N       -0.6328400     1.8116850    -0.0001020
  H        2.7093930    -2.1785160    -0.0003580
  H        3.6789480     0.0978590     0.0002690
  H        0.2537760    -2.5213680    -0.0000660
  H        2.2193714     2.1097325     0.2502850
  H       -3.6376700    -0.9013790    -0.0001930
  H       -2.5281620    -1.9588410     0.8832840
  H       -2.7737480     1.6710560    -0.0003610
  H       -0.5326520     2.8176750    -0.0001200
  H       -2.5278290    -1.9594320    -0.8825300
units angstrom
no_reorient  #important for SAPT in psi4, default
symmetry c1  #important for SAPT in psi4, default
}

set PROPERTIES_ORIGIN ["COM"]
properties('MP2/aug-cc-pvtz', properties = ['dipole'])
--------------------------------------------------------------------------

    Molecular point group: c1
  Charge       = 0
  Multiplicity = 1
  Basis Set: AUG-CC-PVTZ
    Blend: AUG-CC-PVTZ
  Basis Set: (AUG-CC-PVTZ AUX)
    Blend: AUG-CC-PVTZ-JKFIT

    Orbital Energies [Eh]
    ---------------------

    Doubly Occupied:

       1A    -15.600109     2A    -11.265716     3A    -11.264633
       4A    -11.234087     5A    -11.231408     6A    -11.230206
       7A    -11.222932     8A    -11.222017     9A    -11.221536
      10A    -11.221355    11A     -1.291839    12A     -1.127266
      13A     -1.072109    14A     -0.996931    15A     -0.985958
      16A     -0.931107    17A     -0.838222    18A     -0.804186
      19A     -0.754721    20A     -0.719443    21A     -0.659414
      22A     -0.643907    23A     -0.602266    24A     -0.593932
      25A     -0.588432    26A     -0.569932    27A     -0.551412
      28A     -0.542353    29A     -0.530008    30A     -0.497733
      31A     -0.476629    32A     -0.461173    33A     -0.374141
      34A     -0.298843    35A     -0.277969

  @DF-RHF Final Energy:  -400.63626052296269

   => Energetics <=

    Nuclear Repulsion Energy =            483.1483454462174336
    One-Electron Energy =               -1499.7613639185942702
    Two-Electron Energy =                 615.9767579494141501
    Total Energy =                       -400.6362605229626297
  Basis Set: (AUG-CC-PVTZ AUX)
    Blend: AUG-CC-PVTZ-RI
    Molecular point group: c1

    Geometry (in Angstrom), charge = 0, multiplicity = 1:

       Center              X                  Y                   Z               Mass
    ------------   -----------------  -----------------  -----------------  -----------------
         C           -2.649743393634    -1.339591367154    -0.001774659699    12.000000000000
         C           -0.202307393634    -0.412399367154    -0.001700659699    12.000000000000
         C           -1.626617393634    -0.248593367154    -0.001953659699    12.000000000000
         C            0.380050606366     0.885112632846    -0.002071659699    12.000000000000
         C           -1.858064393634     1.109437632846    -0.001984659699    12.000000000000
         C            2.019508606366    -1.340310367154    -0.001888659699    12.000000000000
         C            2.574083606366    -0.041544367154    -0.001996659699    12.000000000000
         C            0.645101606366    -1.536379367154    -0.002206659699    12.000000000000
         C            1.765709606366     1.088451632846    -0.001624659699    12.000000000000
         N           -0.656582393634     1.790272632846    -0.002022659699    14.003074004430
         H            2.685650606366    -2.199928367154    -0.002278659699     1.007825032230
         H            3.655205606366     0.076446632846    -0.001651659699     1.007825032230
         H            0.230033606366    -2.542780367154    -0.001986659699     1.007825032230
         H            2.195629006366     2.088320132846     0.248364340301     1.007825032230
         H           -3.661412393634    -0.922791367154    -0.002113659699     1.007825032230
         H           -2.551904393634    -1.980253367154     0.881363340301     1.007825032230
         H           -2.797490393634     1.649643632846    -0.002281659699     1.007825032230
         H           -0.556394393634     2.796262632846    -0.002040659699     1.007825032230
         H           -2.551571393634    -1.980844367154    -0.884450659699     1.007825032230

  Basis Set: AUG-CC-PVTZ
    Blend: AUG-CC-PVTZ
  Basis Set: (AUG-CC-PVTZ AUX)
    Blend: AUG-CC-PVTZ-JKFIT
	 Reference Energy          =    -400.6362605229626865 [Eh]
	 Singles Energy            =      -0.0000000000000000 [Eh]
	 Same-Spin Energy          =      -0.4518985075473267 [Eh]
	 Opposite-Spin Energy      =      -1.4045909518426503 [Eh]
	 Correlation Energy        =      -1.8564894593899770 [Eh]
	 Total Energy              =    -402.4927499823526773 [Eh]

	 ================> DF-SCS-MP2 Energies <==================
	-----------------------------------------------------------
	 SCS Same-Spin Scale       =       0.3333333333333333 [-]
	 SCS Opposite-Spin Scale   =       1.2000000000000000 [-]
	 SCS Same-Spin Energy      =      -0.1506328358491089 [Eh]
	 SCS Opposite-Spin Energy  =      -1.6855091422111803 [Eh]
	 SCS Correlation Energy    =      -1.8361419780602892 [Eh]
	 SCS Total Energy          =    -402.4724025010229980 [Eh]
	-----------------------------------------------------------

  Dipole Moment: [D]
     X:    -0.9848      Y:     1.7516      Z:     0.1625     Total:     2.0160

*** Psi4 exiting successfully. Buy a developer a beer!
