                               Psi4 1.3.2 release

  ==> Input File <==

--------------------------------------------------------------------------
#psi4
#
memory 32 gb

molecule  {
0 1
  C       -2.6260010    -1.3181790     0.0001460
  C       -0.1785650    -0.3909870     0.0002200
  C       -1.6028750    -0.2271810    -0.0000330
  C        0.4037930     0.9065250    -0.0001510
  C       -1.8343220     1.1308500    -0.0000640
  C        2.0432510    -1.3188980     0.0000320
  C        2.5978260    -0.0201320    -0.0000760
  C        0.6688440    -1.5149670    -0.0002860
  C        1.7894520     1.1098640     0.0002960
  N       -0.6328400     1.8116850    -0.0001020
  H        2.7093926    -2.1785226     0.0496420
  H        3.6789480     0.0978590     0.0002690
  H        0.2537760    -2.5213680    -0.0000660
  H        2.2194000     2.1097800     0.0002850
  H       -3.6376700    -0.9013790    -0.0001930
  H       -2.5281620    -1.9588410     0.8832840
  H       -2.7737480     1.6710560    -0.0003610
  H       -0.5326520     2.8176750    -0.0001200
  H       -2.5278290    -1.9594320    -0.8825300
units angstrom
no_reorient  #important for SAPT in psi4, default
symmetry c1  #important for SAPT in psi4, default
}

set PROPERTIES_ORIGIN ["COM"]
properties('MP2/aug-cc-pvtz', properties = ['dipole'])
--------------------------------------------------------------------------

    Molecular point group: c1
  Charge       = 0
  Multiplicity = 1
  Basis Set: AUG-CC-PVTZ
    Blend: AUG-CC-PVTZ
  Basis Set: (AUG-CC-PVTZ AUX)
    Blend: AUG-CC-PVTZ-JKFIT

    Orbital Energies [Eh]
    ---------------------

    Doubly Occupied:

       1A    -15.599957     2A    -11.265300     3A    -11.264553
       4A    -11.231864     5A    -11.230668     6A    -11.229469
       7A    -11.222736     8A    -11.221820     9A    -11.221367
      10A    -11.221154    11A     -1.291695    12A     -1.126999
      13A     -1.072133    14A     -0.997302    15A     -0.985700
      16A     -0.930953    17A     -0.838966    18A     -0.803911
      19A     -0.755789    20A     -0.720062    21A     -0.659932
      22A     -0.644492    23A     -0.603515    24A     -0.592709
      25A     -0.591930    26A     -0.569717    27A     -0.551392
      28A     -0.542294    29A     -0.529692    30A     -0.497630
      31A     -0.475770    32A     -0.462941    33A     -0.374550
      34A     -0.298632    35A     -0.277742

  @DF-RHF Final Energy:  -400.64004349864229

   => Energetics <=

    Nuclear Repulsion Energy =            483.2537539238686577
    One-Electron Energy =               -1499.9769244554629495
    Two-Electron Energy =                 616.0831270329520066
    Total Energy =                       -400.6400434986422852
  Basis Set: (AUG-CC-PVTZ AUX)
    Blend: AUG-CC-PVTZ-RI
    Molecular point group: c1

    Geometry (in Angstrom), charge = 0, multiplicity = 1:

       Center              X                  Y                   Z               Mass
    ------------   -----------------  -----------------  -----------------  -----------------
         C           -2.649743610464    -1.339591681635    -0.000236858332    12.000000000000
         C           -0.202307610464    -0.412399681635    -0.000162858332    12.000000000000
         C           -1.626617610464    -0.248593681635    -0.000415858332    12.000000000000
         C            0.380050389536     0.885112318365    -0.000533858332    12.000000000000
         C           -1.858064610464     1.109437318365    -0.000446858332    12.000000000000
         C            2.019508389536    -1.340310681635    -0.000350858332    12.000000000000
         C            2.574083389536    -0.041544681635    -0.000458858332    12.000000000000
         C            0.645101389536    -1.536379681635    -0.000668858332    12.000000000000
         C            1.765709389536     1.088451318365    -0.000086858332    12.000000000000
         N           -0.656582610464     1.790272318365    -0.000484858332    14.003074004430
         H            2.685649989536    -2.199935281635     0.049259141668     1.007825032230
         H            3.655205389536     0.076446318365    -0.000113858332     1.007825032230
         H            0.230033389536    -2.542780681635    -0.000448858332     1.007825032230
         H            2.195657389536     2.088367318365    -0.000097858332     1.007825032230
         H           -3.661412610464    -0.922791681635    -0.000575858332     1.007825032230
         H           -2.551904610464    -1.980253681635     0.882901141668     1.007825032230
         H           -2.797490610464     1.649643318365    -0.000743858332     1.007825032230
         H           -0.556394610464     2.796262318365    -0.000502858332     1.007825032230
         H           -2.551571610464    -1.980844681635    -0.882912858332     1.007825032230

  Basis Set: AUG-CC-PVTZ
    Blend: AUG-CC-PVTZ
  Basis Set: (AUG-CC-PVTZ AUX)
    Blend: AUG-CC-PVTZ-JKFIT
	 Reference Energy          =    -400.6400434986422852 [Eh]
	 Singles Energy            =      -0.0000000000000000 [Eh]
	 Same-Spin Energy          =      -0.4516958051701055 [Eh]
	 Opposite-Spin Energy      =      -1.4041357533208976 [Eh]
	 Correlation Energy        =      -1.8558315584910030 [Eh]
	 Total Energy              =    -402.4958750571332757 [Eh]

	 ================> DF-SCS-MP2 Energies <==================
	-----------------------------------------------------------
	 SCS Same-Spin Scale       =       0.3333333333333333 [-]
	 SCS Opposite-Spin Scale   =       1.2000000000000000 [-]
	 SCS Same-Spin Energy      =      -0.1505652683900351 [Eh]
	 SCS Opposite-Spin Energy  =      -1.6849629039850771 [Eh]
	 SCS Correlation Energy    =      -1.8355281723751122 [Eh]
	 SCS Total Energy          =    -402.4755716710174056 [Eh]
	-----------------------------------------------------------

  Dipole Moment: [D]
     X:    -0.9596      Y:     1.8067      Z:     0.0323     Total:     2.0460

*** Psi4 exiting successfully. Buy a developer a beer!
