                               Psi4 1.3.2 release

  ==> Input File <==

--------------------------------------------------------------------------
#psi4
#
memory 32 gb

molecule  {
0 1
  C       -2.6260010    -1.3181790     0.0001460
  C       -0.1785650    -0.3909870     0.0002200
  C       -1.6028750    -0.2271810    -0.0000330
  C        0.4037930     0.9065250    -0.0001510
  C       -1.8343220     1.1308500    -0.0000640
  C        2.0432510    -1.3188980     0.0000320
  C        2.5978260    -0.0201320    -0.0000760
  C        0.6688270    -1.5149577    -0.2002860
  C        1.7894520     1.1098640     0.0002960
  N       -0.6328400     1.8116850    -0.0001020
  H        2.7093930    -2.1785160    -0.0003580
  H        3.6789480     0.0978590     0.0002690
  H        0.2537760    -2.5213680    -0.0000660
  H        2.2194000     2.1097800     0.0002850
  H       -3.6376700    -0.9013790    -0.0001930
  H       -2.5281620    -1.9588410     0.8832840
  H       -2.7737480     1.6710560    -0.0003610
  H       -0.5326520     2.8176750    -0.0001200
  H       -2.5278290    -1.9594320    -0.8825300
units angstrom
no_reorient  #important for SAPT in psi4, default
symmetry c1  #important for SAPT in psi4, default
}

set PROPERTIES_ORIGIN ["COM"]
properties('MP2/aug-cc-pvtz', properties = ['dipole'])
--------------------------------------------------------------------------

    Molecular point group: c1
  Charge       = 0
  Multiplicity = 1
  Basis Set: AUG-CC-PVTZ
    Blend: AUG-CC-PVTZ
  Basis Set: (AUG-CC-PVTZ AUX)
    Blend: AUG-CC-PVTZ-JKFIT

    Orbital Energies [Eh]
    ---------------------

    Doubly Occupied:

       1A    -15.600344     2A    -11.265493     3A    -11.265123
       4A    -11.234010     5A    -11.233417     6A    -11.229384
       7A    -11.224809     8A    -11.224538     9A    -11.222111
      10A    -11.221150    11A     -1.292063    12A     -1.125568
      13A     -1.072177    14A     -0.995631    15A     -0.985432
      16A     -0.930784    17A     -0.838545    18A     -0.802303
      19A     -0.754994    20A     -0.718951    21A     -0.659525
      22A     -0.644024    23A     -0.602034    24A     -0.594392
      25A     -0.586341    26A     -0.568543    27A     -0.551242
      28A     -0.542035    29A     -0.528945    30A     -0.495617
      31A     -0.475762    32A     -0.459813    33A     -0.373947
      34A     -0.297788    35A     -0.278397

  @DF-RHF Final Energy:  -400.62761292757421

   => Energetics <=

    Nuclear Repulsion Energy =            482.8020360176166150
    One-Electron Energy =               -1499.0688415984982385
    Two-Electron Energy =                 615.6391926533074184
    Total Energy =                       -400.6276129275742051
  Basis Set: (AUG-CC-PVTZ AUX)
    Blend: AUG-CC-PVTZ-RI
    Molecular point group: c1

    Geometry (in Angstrom), charge = 0, multiplicity = 1:

       Center              X                  Y                   Z               Mass
    ------------   -----------------  -----------------  -----------------  -----------------
         C           -2.649742057161    -1.339592583813     0.018457929438    12.000000000000
         C           -0.202306057161    -0.412400583813     0.018531929438    12.000000000000
         C           -1.626616057161    -0.248594583813     0.018278929438    12.000000000000
         C            0.380051942839     0.885111416187     0.018160929438    12.000000000000
         C           -1.858063057161     1.109436416187     0.018247929438    12.000000000000
         C            2.019509942839    -1.340311583813     0.018343929438    12.000000000000
         C            2.574084942839    -0.041545583813     0.018235929438    12.000000000000
         C            0.645085942839    -1.536371283813    -0.181974070562    12.000000000000
         C            1.765710942839     1.088450416187     0.018607929438    12.000000000000
         N           -0.656581057161     1.790271416187     0.018209929438    14.003074004430
         H            2.685651942839    -2.199929583813     0.017953929438     1.007825032230
         H            3.655206942839     0.076445416187     0.018580929438     1.007825032230
         H            0.230034942839    -2.542781583813     0.018245929438     1.007825032230
         H            2.195658942839     2.088366416187     0.018596929438     1.007825032230
         H           -3.661411057161    -0.922792583813     0.018118929438     1.007825032230
         H           -2.551903057161    -1.980254583813     0.901595929438     1.007825032230
         H           -2.797489057161     1.649642416187     0.017950929438     1.007825032230
         H           -0.556393057161     2.796261416187     0.018191929438     1.007825032230
         H           -2.551570057161    -1.980845583813    -0.864218070562     1.007825032230

  Basis Set: AUG-CC-PVTZ
    Blend: AUG-CC-PVTZ
  Basis Set: (AUG-CC-PVTZ AUX)
    Blend: AUG-CC-PVTZ-JKFIT
	 Reference Energy          =    -400.6276129275742051 [Eh]
	 Singles Energy            =      -0.0000000000000000 [Eh]
	 Same-Spin Energy          =      -0.4524347374067568 [Eh]
	 Opposite-Spin Energy      =      -1.4058987567198593 [Eh]
	 Correlation Energy        =      -1.8583334941266161 [Eh]
	 Total Energy              =    -402.4859464217008167 [Eh]

	 ================> DF-SCS-MP2 Energies <==================
	-----------------------------------------------------------
	 SCS Same-Spin Scale       =       0.3333333333333333 [-]
	 SCS Opposite-Spin Scale   =       1.2000000000000000 [-]
	 SCS Same-Spin Energy      =      -0.1508115791355856 [Eh]
	 SCS Opposite-Spin Energy  =      -1.6870785080638311 [Eh]
	 SCS Correlation Energy    =      -1.8378900871994166 [Eh]
	 SCS Total Energy          =    -402.4655030147736170 [Eh]
	-----------------------------------------------------------

  Dipole Moment: [D]
     X:    -0.9210      Y:     1.8991      Z:     0.1364     Total:     2.1151

*** Psi4 exiting successfully. Buy a developer a beer!
