                               Psi4 1.3.2 release

  ==> Input File <==

--------------------------------------------------------------------------
#psi4
#
memory 32 gb

molecule  {
0 1
  C       -2.6260010    -1.3181790     0.0001460
  C       -0.1785650    -0.3909870     0.0002200
  C       -1.6028750    -0.2271810    -0.0000330
  C        0.4037930     0.9065250    -0.0001510
  C       -1.8343220     1.1308500    -0.0000640
  C        2.0432510    -1.3188980     0.0000320
  C        2.5978260    -0.0201320    -0.0000760
  C        0.6688440    -1.5149670    -0.0002860
  C        1.7894520     1.1098640     0.0002960
  N       -0.6328400     1.8116850    -0.0001020
  H        2.7093930    -2.1785160    -0.0003580
  H        3.6789480     0.0978590     0.0002690
  H        0.2537760    -2.5213680    -0.0000660
  H        2.2193828     2.1097515     0.1502850
  H       -3.6376700    -0.9013790    -0.0001930
  H       -2.5281620    -1.9588410     0.8832840
  H       -2.7737480     1.6710560    -0.0003610
  H       -0.5326520     2.8176750    -0.0001200
  H       -2.5278290    -1.9594320    -0.8825300
units angstrom
no_reorient  #important for SAPT in psi4, default
symmetry c1  #important for SAPT in psi4, default
}

set PROPERTIES_ORIGIN ["COM"]
properties('MP2/aug-cc-pvtz', properties = ['dipole'])
--------------------------------------------------------------------------

    Molecular point group: c1
  Charge       = 0
  Multiplicity = 1
  Basis Set: AUG-CC-PVTZ
    Blend: AUG-CC-PVTZ
  Basis Set: (AUG-CC-PVTZ AUX)
    Blend: AUG-CC-PVTZ-JKFIT

    Orbital Energies [Eh]
    ---------------------

    Doubly Occupied:

       1A    -15.600001     2A    -11.265431     3A    -11.264574
       4A    -11.232657     5A    -11.230920     6A    -11.229731
       7A    -11.222798     8A    -11.221883     9A    -11.221421
      10A    -11.221163    11A     -1.291736    12A     -1.127089
      13A     -1.072113    14A     -0.997165    15A     -0.985792
      16A     -0.931001    17A     -0.838693    18A     -0.804022
      19A     -0.755386    20A     -0.719817    21A     -0.659738
      22A     -0.644346    23A     -0.603003    24A     -0.593458
      25A     -0.590425    26A     -0.569789    27A     -0.551391
      28A     -0.542322    29A     -0.529810    30A     -0.497675
      31A     -0.476113    32A     -0.462342    33A     -0.374390
      34A     -0.298709    35A     -0.277816

  @DF-RHF Final Energy:  -400.63885644261865

   => Energetics <=

    Nuclear Repulsion Energy =            483.2179087583825208
    One-Electron Energy =               -1499.9040869404800560
    Two-Electron Energy =                 616.0473217394788890
    Total Energy =                       -400.6388564426187031
  Basis Set: (AUG-CC-PVTZ AUX)
    Blend: AUG-CC-PVTZ-RI
    Molecular point group: c1

    Geometry (in Angstrom), charge = 0, multiplicity = 1:

       Center              X                  Y                   Z               Mass
    ------------   -----------------  -----------------  -----------------  -----------------
         C           -2.649743481289    -1.339591513245    -0.001005759016    12.000000000000
         C           -0.202307481289    -0.412399513245    -0.000931759016    12.000000000000
         C           -1.626617481289    -0.248593513245    -0.001184759016    12.000000000000
         C            0.380050518711     0.885112486755    -0.001302759016    12.000000000000
         C           -1.858064481289     1.109437486755    -0.001215759016    12.000000000000
         C            2.019508518711    -1.340310513245    -0.001119759016    12.000000000000
         C            2.574083518711    -0.041544513245    -0.001227759016    12.000000000000
         C            0.645101518711    -1.536379513245    -0.001437759016    12.000000000000
         C            1.765709518711     1.088451486755    -0.000855759016    12.000000000000
         N           -0.656582481289     1.790272486755    -0.001253759016    14.003074004430
         H            2.685650518711    -2.199928513245    -0.001509759016     1.007825032230
         H            3.655205518711     0.076446486755    -0.000882759016     1.007825032230
         H            0.230033518711    -2.542780513245    -0.001217759016     1.007825032230
         H            2.195640318711     2.088338986755     0.149133240984     1.007825032230
         H           -3.661412481289    -0.922791513245    -0.001344759016     1.007825032230
         H           -2.551904481289    -1.980253513245     0.882132240984     1.007825032230
         H           -2.797490481289     1.649643486755    -0.001512759016     1.007825032230
         H           -0.556394481289     2.796262486755    -0.001271759016     1.007825032230
         H           -2.551571481289    -1.980844513245    -0.883681759016     1.007825032230

  Basis Set: AUG-CC-PVTZ
    Blend: AUG-CC-PVTZ
  Basis Set: (AUG-CC-PVTZ AUX)
    Blend: AUG-CC-PVTZ-JKFIT
	 Reference Energy          =    -400.6388564426186463 [Eh]
	 Singles Energy            =      -0.0000000000000000 [Eh]
	 Same-Spin Energy          =      -0.4517644983002852 [Eh]
	 Opposite-Spin Energy      =      -1.4042732549188610 [Eh]
	 Correlation Energy        =      -1.8560377532191463 [Eh]
	 Total Energy              =    -402.4948941958377873 [Eh]

	 ================> DF-SCS-MP2 Energies <==================
	-----------------------------------------------------------
	 SCS Same-Spin Scale       =       0.3333333333333333 [-]
	 SCS Opposite-Spin Scale   =       1.2000000000000000 [-]
	 SCS Same-Spin Energy      =      -0.1505881661000951 [Eh]
	 SCS Opposite-Spin Energy  =      -1.6851279059026332 [Eh]
	 SCS Correlation Energy    =      -1.8357160720027283 [Eh]
	 SCS Total Energy          =    -402.4745725146213999 [Eh]
	-----------------------------------------------------------

  Dipole Moment: [D]
     X:    -0.9675      Y:     1.7854      Z:     0.0988     Total:     2.0331

*** Psi4 exiting successfully. Buy a developer a beer!
