                               Psi4 1.3.2 release

  ==> Input File <==

--------------------------------------------------------------------------
#psi4
#
memory 32 gb

molecule  {
0 1
  C       -2.6260010    -1.3181790     0.0001460
  C       -0.1785650    -0.3909870     0.0002200
  C       -1.6028750    -0.2271810    -0.0000330
  C        0.4037930     0.9065250    -0.0001510
  C       -1.8343220     1.1308500    -0.0000640
  C        2.0432510    -1.3188980     0.0000320
  C        2.5978260    -0.0201320    -0.0000760
  C        0.6688440    -1.5149670    -0.0002860
  C        1.7894520     1.1098640     0.0002960
  N       -0.6328400     1.8116850    -0.0001020
  H        2.7093930    -2.1785160    -0.0003580
  H        3.6789480     0.0978590     0.0002690
  H        0.2537682    -2.5213360    -0.2500660
  H        2.2194000     2.1097800     0.0002850
  H       -3.6376700    -0.9013790    -0.0001930
  H       -2.5281620    -1.9588410     0.8832840
  H       -2.7737480     1.6710560    -0.0003610
  H       -0.5326520     2.8176750    -0.0001200
  H       -2.5278290    -1.9594320    -0.8825300
units angstrom
no_reorient  #important for SAPT in psi4, default
symmetry c1  #important for SAPT in psi4, default
}

set PROPERTIES_ORIGIN ["COM"]
properties('MP2/aug-cc-pvtz', properties = ['dipole'])
--------------------------------------------------------------------------

    Molecular point group: c1
  Charge       = 0
  Multiplicity = 1
  Basis Set: AUG-CC-PVTZ
    Blend: AUG-CC-PVTZ
  Basis Set: (AUG-CC-PVTZ AUX)
    Blend: AUG-CC-PVTZ-JKFIT

    Orbital Energies [Eh]
    ---------------------

    Doubly Occupied:

       1A    -15.600143     2A    -11.265467     3A    -11.264784
       4A    -11.233007     5A    -11.232485     6A    -11.229703
       7A    -11.222910     8A    -11.221998     9A    -11.221691
      10A    -11.221268    11A     -1.291883    12A     -1.127129
      13A     -1.072201    14A     -0.996884    15A     -0.985865
      16A     -0.930781    17A     -0.838293    18A     -0.804149
      19A     -0.755295    20A     -0.718338    21A     -0.659375
      22A     -0.644806    23A     -0.602697    24A     -0.593323
      25A     -0.588866    26A     -0.569605    27A     -0.551324
      28A     -0.542101    29A     -0.529602    30A     -0.497656
      31A     -0.477329    32A     -0.459803    33A     -0.374195
      34A     -0.298836    35A     -0.277822

  @DF-RHF Final Energy:  -400.63604900228950

   => Energetics <=

    Nuclear Repulsion Energy =            483.1459207810386829
    One-Electron Energy =               -1499.7607088463107630
    Two-Electron Energy =                 615.9787390629825268
    Total Energy =                       -400.6360490022894965
  Basis Set: (AUG-CC-PVTZ AUX)
    Blend: AUG-CC-PVTZ-RI
    Molecular point group: c1

    Geometry (in Angstrom), charge = 0, multiplicity = 1:

       Center              X                  Y                   Z               Mass
    ------------   -----------------  -----------------  -----------------  -----------------
         C           -2.649743553566    -1.339591978430     0.002069843719    12.000000000000
         C           -0.202307553566    -0.412399978430     0.002143843719    12.000000000000
         C           -1.626617553566    -0.248593978430     0.001890843719    12.000000000000
         C            0.380050446434     0.885112021570     0.001772843719    12.000000000000
         C           -1.858064553566     1.109437021570     0.001859843719    12.000000000000
         C            2.019508446434    -1.340310978430     0.001955843719    12.000000000000
         C            2.574083446434    -0.041544978430     0.001847843719    12.000000000000
         C            0.645101446434    -1.536379978430     0.001637843719    12.000000000000
         C            1.765709446434     1.088451021570     0.002219843719    12.000000000000
         N           -0.656582553566     1.790272021570     0.001821843719    14.003074004430
         H            2.685650446434    -2.199928978430     0.001565843719     1.007825032230
         H            3.655205446434     0.076446021570     0.002192843719     1.007825032230
         H            0.230025646434    -2.542748978430    -0.248142156281     1.007825032230
         H            2.195657446434     2.088367021570     0.002208843719     1.007825032230
         H           -3.661412553566    -0.922791978430     0.001730843719     1.007825032230
         H           -2.551904553566    -1.980253978430     0.885207843719     1.007825032230
         H           -2.797490553566     1.649643021570     0.001562843719     1.007825032230
         H           -0.556394553566     2.796262021570     0.001803843719     1.007825032230
         H           -2.551571553566    -1.980844978430    -0.880606156281     1.007825032230

  Basis Set: AUG-CC-PVTZ
    Blend: AUG-CC-PVTZ
  Basis Set: (AUG-CC-PVTZ AUX)
    Blend: AUG-CC-PVTZ-JKFIT
	 Reference Energy          =    -400.6360490022894965 [Eh]
	 Singles Energy            =      -0.0000000000000000 [Eh]
	 Same-Spin Energy          =      -0.4519525322511266 [Eh]
	 Opposite-Spin Energy      =      -1.4046609010267490 [Eh]
	 Correlation Energy        =      -1.8566134332778756 [Eh]
	 Total Energy              =    -402.4926624355673539 [Eh]

	 ================> DF-SCS-MP2 Energies <==================
	-----------------------------------------------------------
	 SCS Same-Spin Scale       =       0.3333333333333333 [-]
	 SCS Opposite-Spin Scale   =       1.2000000000000000 [-]
	 SCS Same-Spin Energy      =      -0.1506508440837089 [Eh]
	 SCS Opposite-Spin Energy  =      -1.6855930812320987 [Eh]
	 SCS Correlation Energy    =      -1.8362439253158076 [Eh]
	 SCS Total Energy          =    -402.4722929276052810 [Eh]
	-----------------------------------------------------------

  Dipole Moment: [D]
     X:    -0.9380      Y:     1.8546      Z:    -0.1516     Total:     2.0838

*** Psi4 exiting successfully. Buy a developer a beer!
