                               Psi4 1.3.2 release

  ==> Input File <==

--------------------------------------------------------------------------
#psi4
#
memory 32 gb

molecule  {
0 1
  C       -2.6260010    -1.3181790     0.0001460
  C       -0.1785650    -0.3909870     0.0002200
  C       -1.6028750    -0.2271810    -0.0000330
  C        0.4037930     0.9065250    -0.0001510
  C       -1.8343220     1.1308500    -0.0000640
  C        2.0432510    -1.3188980     0.0000320
  C        2.5978260    -0.0201320    -0.0000760
  C        0.6688312    -1.5149600    -0.1502860
  C        1.7894520     1.1098640     0.0002960
  N       -0.6328400     1.8116850    -0.0001020
  H        2.7093930    -2.1785160    -0.0003580
  H        3.6789480     0.0978590     0.0002690
  H        0.2537760    -2.5213680    -0.0000660
  H        2.2194000     2.1097800     0.0002850
  H       -3.6376700    -0.9013790    -0.0001930
  H       -2.5281620    -1.9588410     0.8832840
  H       -2.7737480     1.6710560    -0.0003610
  H       -0.5326520     2.8176750    -0.0001200
  H       -2.5278290    -1.9594320    -0.8825300
units angstrom
no_reorient  #important for SAPT in psi4, default
symmetry c1  #important for SAPT in psi4, default
}

set PROPERTIES_ORIGIN ["COM"]
properties('MP2/aug-cc-pvtz', properties = ['dipole'])
--------------------------------------------------------------------------

    Molecular point group: c1
  Charge       = 0
  Multiplicity = 1
  Basis Set: AUG-CC-PVTZ
    Blend: AUG-CC-PVTZ
  Basis Set: (AUG-CC-PVTZ AUX)
    Blend: AUG-CC-PVTZ-JKFIT

    Orbital Energies [Eh]
    ---------------------

    Doubly Occupied:

       1A    -15.600160     2A    -11.265183     3A    -11.265069
       4A    -11.233044     5A    -11.232230     6A    -11.229412
       7A    -11.223588     8A    -11.223185     9A    -11.222131
      10A    -11.221258    11A     -1.291888    12A     -1.126172
      13A     -1.072148    14A     -0.996360    15A     -0.985548
      16A     -0.930851    17A     -0.838732    18A     -0.802989
      19A     -0.755317    20A     -0.719400    21A     -0.659671
      22A     -0.644274    23A     -0.602620    24A     -0.594151
      25A     -0.588280    26A     -0.569045    27A     -0.551297
      28A     -0.542154    29A     -0.529292    30A     -0.496523
      31A     -0.475812    32A     -0.461191    33A     -0.374196
      34A     -0.298143    35A     -0.278098

  @DF-RHF Final Energy:  -400.63313167094549

   => Energetics <=

    Nuclear Repulsion Energy =            482.9998322028086477
    One-Electron Energy =               -1499.4670994958041774
    Two-Electron Energy =                 615.8341356220499847
    Total Energy =                       -400.6331316709455450
  Basis Set: (AUG-CC-PVTZ AUX)
    Blend: AUG-CC-PVTZ-RI
    Molecular point group: c1

    Geometry (in Angstrom), charge = 0, multiplicity = 1:

       Center              X                  Y                   Z               Mass
    ------------   -----------------  -----------------  -----------------  -----------------
         C           -2.649742441678    -1.339592373244     0.013880345081    12.000000000000
         C           -0.202306441678    -0.412400373244     0.013954345081    12.000000000000
         C           -1.626616441678    -0.248594373244     0.013701345081    12.000000000000
         C            0.380051558322     0.885111626756     0.013583345081    12.000000000000
         C           -1.858063441678     1.109436626756     0.013670345081    12.000000000000
         C            2.019509558322    -1.340311373244     0.013766345081    12.000000000000
         C            2.574084558322    -0.041545373244     0.013658345081    12.000000000000
         C            0.645089758322    -1.536373373244    -0.136551654919    12.000000000000
         C            1.765710558322     1.088450626756     0.014030345081    12.000000000000
         N           -0.656581441678     1.790271626756     0.013632345081    14.003074004430
         H            2.685651558322    -2.199929373244     0.013376345081     1.007825032230
         H            3.655206558322     0.076445626756     0.014003345081     1.007825032230
         H            0.230034558322    -2.542781373244     0.013668345081     1.007825032230
         H            2.195658558322     2.088366626756     0.014019345081     1.007825032230
         H           -3.661411441678    -0.922792373244     0.013541345081     1.007825032230
         H           -2.551903441678    -1.980254373244     0.897018345081     1.007825032230
         H           -2.797489441678     1.649642626756     0.013373345081     1.007825032230
         H           -0.556393441678     2.796261626756     0.013614345081     1.007825032230
         H           -2.551570441678    -1.980845373244    -0.868795654919     1.007825032230

  Basis Set: AUG-CC-PVTZ
    Blend: AUG-CC-PVTZ
  Basis Set: (AUG-CC-PVTZ AUX)
    Blend: AUG-CC-PVTZ-JKFIT
	 Reference Energy          =    -400.6331316709454882 [Eh]
	 Singles Energy            =      -0.0000000000000000 [Eh]
	 Same-Spin Energy          =      -0.4521143781474684 [Eh]
	 Opposite-Spin Energy      =      -1.4050410925985533 [Eh]
	 Correlation Energy        =      -1.8571554707460216 [Eh]
	 Total Energy              =    -402.4902871416915104 [Eh]

	 ================> DF-SCS-MP2 Energies <==================
	-----------------------------------------------------------
	 SCS Same-Spin Scale       =       0.3333333333333333 [-]
	 SCS Opposite-Spin Scale   =       1.2000000000000000 [-]
	 SCS Same-Spin Energy      =      -0.1507047927158228 [Eh]
	 SCS Opposite-Spin Energy  =      -1.6860493111182639 [Eh]
	 SCS Correlation Energy    =      -1.8367541038340867 [Eh]
	 SCS Total Energy          =    -402.4698857747795842 [Eh]
	-----------------------------------------------------------

  Dipole Moment: [D]
     X:    -0.9367      Y:     1.8582      Z:     0.1006     Total:     2.0834

*** Psi4 exiting successfully. Buy a developer a beer!
