                               Psi4 1.3.2 release

  ==> Input File <==

--------------------------------------------------------------------------
#psi4
#
memory 32 gb

molecule  {
0 1
  C       -2.6260010    -1.3181790     0.0001460
  C       -0.1785650    -0.3909870     0.0002200
  C       -1.6028750    -0.2271810    -0.0000330
  C        0.4037930     0.9065250    -0.0001510
  C       -1.8343220     1.1308500    -0.0000640
  C        2.0432510    -1.3188980     0.0000320
  C        2.5978260    -0.0201320    -0.0000760
  C        0.6688440    -1.5149670    -0.0002860
  C        1.7894520     1.1098640     0.0002960
  N       -0.6328400     1.8116850    -0.0001020
  H        2.7093930    -2.1785160    -0.0003580
  H        3.6789596     0.0978874    -0.2497310
  H        0.2537760    -2.5213680    -0.0000660
  H        2.2194000     2.1097800     0.0002850
  H       -3.6376700    -0.9013790    -0.0001930
  H       -2.5281620    -1.9588410     0.8832840
  H       -2.7737480     1.6710560    -0.0003610
  H       -0.5326520     2.8176750    -0.0001200
  H       -2.5278290    -1.9594320    -0.8825300
units angstrom
no_reorient  #important for SAPT in psi4, default
symmetry c1  #important for SAPT in psi4, default
}

set PROPERTIES_ORIGIN ["COM"]
properties('MP2/aug-cc-pvtz', properties = ['dipole'])
--------------------------------------------------------------------------

    Molecular point group: c1
  Charge       = 0
  Multiplicity = 1
  Basis Set: AUG-CC-PVTZ
    Blend: AUG-CC-PVTZ
  Basis Set: (AUG-CC-PVTZ AUX)
    Blend: AUG-CC-PVTZ-JKFIT

    Orbital Energies [Eh]
    ---------------------

    Doubly Occupied:

       1A    -15.600244     2A    -11.265493     3A    -11.265032
       4A    -11.232767     5A    -11.231492     6A    -11.230767
       7A    -11.223121     8A    -11.222229     9A    -11.221628
      10A    -11.221490    11A     -1.292010    12A     -1.127106
      13A     -1.072335    14A     -0.997569    15A     -0.985228
      16A     -0.931065    17A     -0.838851    18A     -0.802638
      19A     -0.756126    20A     -0.719685    21A     -0.658521
      22A     -0.643359    23A     -0.603410    24A     -0.592988
      25A     -0.592055    26A     -0.569828    27A     -0.551777
      28A     -0.542118    29A     -0.527524    30A     -0.497886
      31A     -0.476778    32A     -0.460315    33A     -0.374504
      34A     -0.298809    35A     -0.277875

  @DF-RHF Final Energy:  -400.63603511090508

   => Energetics <=

    Nuclear Repulsion Energy =            483.1522043367378956
    One-Electron Energy =               -1499.7672343384363103
    Two-Electron Energy =                 615.9789948907932740
    Total Energy =                       -400.6360351109051408
  Basis Set: (AUG-CC-PVTZ AUX)
    Blend: AUG-CC-PVTZ-RI
    Molecular point group: c1

    Geometry (in Angstrom), charge = 0, multiplicity = 1:

       Center              X                  Y                   Z               Mass
    ------------   -----------------  -----------------  -----------------  -----------------
         C           -2.649743702732    -1.339591950750     0.002069843719    12.000000000000
         C           -0.202307702732    -0.412399950750     0.002143843719    12.000000000000
         C           -1.626617702732    -0.248593950750     0.001890843719    12.000000000000
         C            0.380050297268     0.885112049250     0.001772843719    12.000000000000
         C           -1.858064702732     1.109437049250     0.001859843719    12.000000000000
         C            2.019508297268    -1.340310950750     0.001955843719    12.000000000000
         C            2.574083297268    -0.041544950750     0.001847843719    12.000000000000
         C            0.645101297268    -1.536379950750     0.001637843719    12.000000000000
         C            1.765709297268     1.088451049250     0.002219843719    12.000000000000
         N           -0.656582702732     1.790272049250     0.001821843719    14.003074004430
         H            2.685650297268    -2.199928950750     0.001565843719     1.007825032230
         H            3.655216897268     0.076474449250    -0.247807156281     1.007825032230
         H            0.230033297268    -2.542780950750     0.001857843719     1.007825032230
         H            2.195657297268     2.088367049250     0.002208843719     1.007825032230
         H           -3.661412702732    -0.922791950750     0.001730843719     1.007825032230
         H           -2.551904702732    -1.980253950750     0.885207843719     1.007825032230
         H           -2.797490702732     1.649643049250     0.001562843719     1.007825032230
         H           -0.556394702732     2.796262049250     0.001803843719     1.007825032230
         H           -2.551571702732    -1.980844950750    -0.880606156281     1.007825032230

  Basis Set: AUG-CC-PVTZ
    Blend: AUG-CC-PVTZ
  Basis Set: (AUG-CC-PVTZ AUX)
    Blend: AUG-CC-PVTZ-JKFIT
	 Reference Energy          =    -400.6360351109050839 [Eh]
	 Singles Energy            =      -0.0000000000000000 [Eh]
	 Same-Spin Energy          =      -0.4519274410055921 [Eh]
	 Opposite-Spin Energy      =      -1.4046458491222626 [Eh]
	 Correlation Energy        =      -1.8565732901278547 [Eh]
	 Total Energy              =    -402.4926084010329532 [Eh]

	 ================> DF-SCS-MP2 Energies <==================
	-----------------------------------------------------------
	 SCS Same-Spin Scale       =       0.3333333333333333 [-]
	 SCS Opposite-Spin Scale   =       1.2000000000000000 [-]
	 SCS Same-Spin Energy      =      -0.1506424803351973 [Eh]
	 SCS Opposite-Spin Energy  =      -1.6855750189467151 [Eh]
	 SCS Correlation Energy    =      -1.8362174992819125 [Eh]
	 SCS Total Energy          =    -402.4722526101870130 [Eh]
	-----------------------------------------------------------

  Dipole Moment: [D]
     X:    -1.0263      Y:     1.8004      Z:    -0.1611     Total:     2.0786

*** Psi4 exiting successfully. Buy a developer a beer!
