                               Psi4 1.3.2 release

  ==> Input File <==

--------------------------------------------------------------------------
#psi4
#
memory 32 gb

molecule  {
0 1
  C       -2.6260010    -1.3181790     0.0001460
  C       -0.1785650    -0.3909870     0.0002200
  C       -1.6028750    -0.2271810    -0.0000330
  C        0.4037930     0.9065250    -0.0001510
  C       -1.8343220     1.1308500    -0.0000640
  C        2.0432510    -1.3188980     0.0000320
  C        2.5978260    -0.0201320    -0.0000760
  C        0.6688440    -1.5149670    -0.0002860
  C        1.7894520     1.1098640     0.0002960
  N       -0.6328400     1.8116850    -0.0001020
  H        2.7093930    -2.1785160    -0.0003580
  H        3.6789480     0.0978590     0.0002690
  H        0.2537760    -2.5213680    -0.0000660
  H        2.2193771     2.1097420     0.2002850
  H       -3.6376700    -0.9013790    -0.0001930
  H       -2.5281620    -1.9588410     0.8832840
  H       -2.7737480     1.6710560    -0.0003610
  H       -0.5326520     2.8176750    -0.0001200
  H       -2.5278290    -1.9594320    -0.8825300
units angstrom
no_reorient  #important for SAPT in psi4, default
symmetry c1  #important for SAPT in psi4, default
}

set PROPERTIES_ORIGIN ["COM"]
properties('MP2/aug-cc-pvtz', properties = ['dipole'])
--------------------------------------------------------------------------

    Molecular point group: c1
  Charge       = 0
  Multiplicity = 1
  Basis Set: AUG-CC-PVTZ
    Blend: AUG-CC-PVTZ
  Basis Set: (AUG-CC-PVTZ AUX)
    Blend: AUG-CC-PVTZ-JKFIT

    Orbital Energies [Eh]
    ---------------------

    Doubly Occupied:

       1A    -15.600048     2A    -11.265555     3A    -11.264599
       4A    -11.233284     5A    -11.231135     6A    -11.229942
       7A    -11.222856     8A    -11.221941     9A    -11.221471
      10A    -11.221247    11A     -1.291781    12A     -1.127166
      13A     -1.072110    14A     -0.997059    15A     -0.985864
      16A     -0.931047    17A     -0.838479    18A     -0.804093
      19A     -0.755083    20A     -0.719648    21A     -0.659586
      22A     -0.644149    23A     -0.602656    24A     -0.593711
      25A     -0.589533    26A     -0.569852    27A     -0.551400
      28A     -0.542337    29A     -0.529897    30A     -0.497701
      31A     -0.476355    32A     -0.461817    33A     -0.374279
      34A     -0.298767    35A     -0.277883

  @DF-RHF Final Energy:  -400.63775259433078

   => Energetics <=

    Nuclear Repulsion Energy =            483.1871723422823948
    One-Electron Energy =               -1499.8411864080737814
    Two-Electron Energy =                 616.0162614714606661
    Total Energy =                       -400.6377525943307774
  Basis Set: (AUG-CC-PVTZ AUX)
    Blend: AUG-CC-PVTZ-RI
    Molecular point group: c1

    Geometry (in Angstrom), charge = 0, multiplicity = 1:

       Center              X                  Y                   Z               Mass
    ------------   -----------------  -----------------  -----------------  -----------------
         C           -2.649743437462    -1.339591440200    -0.001390209358    12.000000000000
         C           -0.202307437462    -0.412399440200    -0.001316209358    12.000000000000
         C           -1.626617437462    -0.248593440200    -0.001569209358    12.000000000000
         C            0.380050562538     0.885112559800    -0.001687209358    12.000000000000
         C           -1.858064437462     1.109437559800    -0.001600209358    12.000000000000
         C            2.019508562538    -1.340310440200    -0.001504209358    12.000000000000
         C            2.574083562538    -0.041544440200    -0.001612209358    12.000000000000
         C            0.645101562538    -1.536379440200    -0.001822209358    12.000000000000
         C            1.765709562538     1.088451559800    -0.001240209358    12.000000000000
         N           -0.656582437462     1.790272559800    -0.001638209358    14.003074004430
         H            2.685650562538    -2.199928440200    -0.001894209358     1.007825032230
         H            3.655205562538     0.076446559800    -0.001267209358     1.007825032230
         H            0.230033562538    -2.542780440200    -0.001602209358     1.007825032230
         H            2.195634662538     2.088329559800     0.198748790642     1.007825032230
         H           -3.661412437462    -0.922791440200    -0.001729209358     1.007825032230
         H           -2.551904437462    -1.980253440200     0.881747790642     1.007825032230
         H           -2.797490437462     1.649643559800    -0.001897209358     1.007825032230
         H           -0.556394437462     2.796262559800    -0.001656209358     1.007825032230
         H           -2.551571437462    -1.980844440200    -0.884066209358     1.007825032230

  Basis Set: AUG-CC-PVTZ
    Blend: AUG-CC-PVTZ
  Basis Set: (AUG-CC-PVTZ AUX)
    Blend: AUG-CC-PVTZ-JKFIT
	 Reference Energy          =    -400.6377525943307774 [Eh]
	 Singles Energy            =      -0.0000000000000000 [Eh]
	 Same-Spin Energy          =      -0.4518235381100597 [Eh]
	 Opposite-Spin Energy      =      -1.4044077658900620 [Eh]
	 Correlation Energy        =      -1.8562313040001217 [Eh]
	 Total Energy              =    -402.4939838983308960 [Eh]

	 ================> DF-SCS-MP2 Energies <==================
	-----------------------------------------------------------
	 SCS Same-Spin Scale       =       0.3333333333333333 [-]
	 SCS Opposite-Spin Scale   =       1.2000000000000000 [-]
	 SCS Same-Spin Energy      =      -0.1506078460366866 [Eh]
	 SCS Opposite-Spin Energy  =      -1.6852893190680744 [Eh]
	 SCS Correlation Energy    =      -1.8358971651047611 [Eh]
	 SCS Total Energy          =    -402.4736497594355455 [Eh]
	-----------------------------------------------------------

  Dipole Moment: [D]
     X:    -0.9751      Y:     1.7705      Z:     0.1310     Total:     2.0255

*** Psi4 exiting successfully. Buy a developer a beer!
