                               Psi4 1.3.2 release

  ==> Input File <==

--------------------------------------------------------------------------
#psi4
#
memory 32 gb

molecule  {
0 1
  C       -2.6260010    -1.3181790     0.0001460
  C       -0.1785650    -0.3909870     0.0002200
  C       -1.6028750    -0.2271810    -0.0000330
  C        0.4037930     0.9065250    -0.0001510
  C       -1.8343220     1.1308500    -0.0000640
  C        2.0432510    -1.3188980     0.0000320
  C        2.5978260    -0.0201320    -0.0000760
  C        0.6688440    -1.5149670    -0.0002860
  C        1.7894520     1.1098640     0.0002960
  N       -0.6328400     1.8116850    -0.0001020
  H        2.7093930    -2.1785160    -0.0003580
  H        3.6789480     0.0978590     0.0002690
  H        0.2537760    -2.5213680    -0.0000660
  H        2.2194000     2.1097800     0.0002850
  H       -3.6376700    -0.9013790    -0.0001930
  H       -2.5281620    -1.9588410     0.8832840
  H       -2.7737480     1.6710560    -0.0003610
  H       -0.5326638     2.8176741    -0.3001200
  H       -2.5278290    -1.9594320    -0.8825300
units angstrom
no_reorient  #important for SAPT in psi4, default
symmetry c1  #important for SAPT in psi4, default
}

set PROPERTIES_ORIGIN ["COM"]
properties('MP2/aug-cc-pvtz', properties = ['dipole'])
--------------------------------------------------------------------------

    Molecular point group: c1
  Charge       = 0
  Multiplicity = 1
  Basis Set: AUG-CC-PVTZ
    Blend: AUG-CC-PVTZ
  Basis Set: (AUG-CC-PVTZ AUX)
    Blend: AUG-CC-PVTZ-JKFIT

    Orbital Energies [Eh]
    ---------------------

    Doubly Occupied:

       1A    -15.601682     2A    -11.264769     3A    -11.263841
       4A    -11.232036     5A    -11.230865     6A    -11.229661
       7A    -11.223522     8A    -11.222411     9A    -11.221835
      10A    -11.221611    11A     -1.289033    12A     -1.126394
      13A     -1.070930    14A     -0.996856    15A     -0.985483
      16A     -0.928625    17A     -0.838205    18A     -0.800858
      19A     -0.754693    20A     -0.713062    21A     -0.659710
      22A     -0.644741    23A     -0.605200    24A     -0.596650
      25A     -0.584439    26A     -0.569565    27A     -0.551478
      28A     -0.540632    29A     -0.529524    30A     -0.497911
      31A     -0.476175    32A     -0.462313    33A     -0.374773
      34A     -0.299414    35A     -0.278395

  @DF-RHF Final Energy:  -400.63616693618530

   => Energetics <=

    Nuclear Repulsion Energy =            483.0535453398534287
    One-Electron Energy =               -1499.6048382079904968
    Two-Electron Energy =                 615.9151259319518203
    Total Energy =                       -400.6361669361853046
  Basis Set: (AUG-CC-PVTZ AUX)
    Blend: AUG-CC-PVTZ-RI
    Molecular point group: c1

    Geometry (in Angstrom), charge = 0, multiplicity = 1:

       Center              X                  Y                   Z               Mass
    ------------   -----------------  -----------------  -----------------  -----------------
         C           -2.649743522810    -1.339591725462     0.002454294061    12.000000000000
         C           -0.202307522810    -0.412399725462     0.002528294061    12.000000000000
         C           -1.626617522810    -0.248593725462     0.002275294061    12.000000000000
         C            0.380050477190     0.885112274538     0.002157294061    12.000000000000
         C           -1.858064522810     1.109437274538     0.002244294061    12.000000000000
         C            2.019508477190    -1.340310725462     0.002340294061    12.000000000000
         C            2.574083477190    -0.041544725462     0.002232294061    12.000000000000
         C            0.645101477190    -1.536379725462     0.002022294061    12.000000000000
         C            1.765709477190     1.088451274538     0.002604294061    12.000000000000
         N           -0.656582522810     1.790272274538     0.002206294061    14.003074004430
         H            2.685650477190    -2.199928725462     0.001950294061     1.007825032230
         H            3.655205477190     0.076446274538     0.002577294061     1.007825032230
         H            0.230033477190    -2.542780725462     0.002242294061     1.007825032230
         H            2.195657477190     2.088367274538     0.002593294061     1.007825032230
         H           -3.661412522810    -0.922791725462     0.002115294061     1.007825032230
         H           -2.551904522810    -1.980253725462     0.885592294061     1.007825032230
         H           -2.797490522810     1.649643274538     0.001947294061     1.007825032230
         H           -0.556406322810     2.796261374538    -0.297811705939     1.007825032230
         H           -2.551571522810    -1.980844725462    -0.880221705939     1.007825032230

  Basis Set: AUG-CC-PVTZ
    Blend: AUG-CC-PVTZ
  Basis Set: (AUG-CC-PVTZ AUX)
    Blend: AUG-CC-PVTZ-JKFIT
	 Reference Energy          =    -400.6361669361853046 [Eh]
	 Singles Energy            =      -0.0000000000000000 [Eh]
	 Same-Spin Energy          =      -0.4519150720412208 [Eh]
	 Opposite-Spin Energy      =      -1.4048196131750956 [Eh]
	 Correlation Energy        =      -1.8567346852163165 [Eh]
	 Total Energy              =    -402.4929016214016428 [Eh]

	 ================> DF-SCS-MP2 Energies <==================
	-----------------------------------------------------------
	 SCS Same-Spin Scale       =       0.3333333333333333 [-]
	 SCS Opposite-Spin Scale   =       1.2000000000000000 [-]
	 SCS Same-Spin Energy      =      -0.1506383573470736 [Eh]
	 SCS Opposite-Spin Energy  =      -1.6857835358101148 [Eh]
	 SCS Correlation Energy    =      -1.8364218931571883 [Eh]
	 SCS Total Energy          =    -402.4725888293424987 [Eh]
	-----------------------------------------------------------

  Dipole Moment: [D]
     X:    -0.9446      Y:     1.7135      Z:    -0.4174     Total:     2.0006

*** Psi4 exiting successfully. Buy a developer a beer!
