                               Psi4 1.3.2 release

  ==> Input File <==

--------------------------------------------------------------------------
#psi4
#
memory 32 gb

molecule  {
0 1
  C       -2.6260010    -1.3181790     0.0001460
  C       -0.1785650    -0.3909870     0.0002200
  C       -1.6028750    -0.2271810    -0.0000330
  C        0.4037930     0.9065250    -0.0001510
  C       -1.8343220     1.1308500    -0.0000640
  C        2.0432510    -1.3188980     0.0000320
  C        2.5978260    -0.0201320    -0.0000760
  C        0.6688440    -1.5149670    -0.0002860
  C        1.7894520     1.1098640     0.0002960
  N       -0.6328465     1.8116910     0.0498980
  H        2.7093930    -2.1785160    -0.0003580
  H        3.6789480     0.0978590     0.0002690
  H        0.2537760    -2.5213680    -0.0000660
  H        2.2194000     2.1097800     0.0002850
  H       -3.6376700    -0.9013790    -0.0001930
  H       -2.5281620    -1.9588410     0.8832840
  H       -2.7737480     1.6710560    -0.0003610
  H       -0.5326520     2.8176750    -0.0001200
  H       -2.5278290    -1.9594320    -0.8825300
units angstrom
no_reorient  #important for SAPT in psi4, default
symmetry c1  #important for SAPT in psi4, default
}

set PROPERTIES_ORIGIN ["COM"]
properties('MP2/aug-cc-pvtz', properties = ['dipole'])
--------------------------------------------------------------------------

    Molecular point group: c1
  Charge       = 0
  Multiplicity = 1
  Basis Set: AUG-CC-PVTZ
    Blend: AUG-CC-PVTZ
  Basis Set: (AUG-CC-PVTZ AUX)
    Blend: AUG-CC-PVTZ-JKFIT

    Orbital Energies [Eh]
    ---------------------

    Doubly Occupied:

       1A    -15.599887     2A    -11.265317     3A    -11.264548
       4A    -11.231904     5A    -11.230709     6A    -11.229512
       7A    -11.222893     8A    -11.221944     9A    -11.221471
      10A    -11.221172    11A     -1.291216    12A     -1.127004
      13A     -1.072124    14A     -0.997328    15A     -0.985680
      16A     -0.930838    17A     -0.838842    18A     -0.803839
      19A     -0.755677    20A     -0.719609    21A     -0.659755
      22A     -0.644669    23A     -0.603584    24A     -0.593746
      25A     -0.590657    26A     -0.569687    27A     -0.551415
      28A     -0.542231    29A     -0.529710    30A     -0.497696
      31A     -0.475814    32A     -0.463089    33A     -0.374584
      34A     -0.298776    35A     -0.277852

  @DF-RHF Final Energy:  -400.63982131184105

   => Energetics <=

    Nuclear Repulsion Energy =            483.2226778430879222
    One-Electron Energy =               -1499.9154365422384672
    Two-Electron Energy =                 616.0529373873094983
    Total Energy =                       -400.6398213118410467
  Basis Set: (AUG-CC-PVTZ AUX)
    Blend: AUG-CC-PVTZ-RI
    Molecular point group: c1

    Geometry (in Angstrom), charge = 0, multiplicity = 1:

       Center              X                  Y                   Z               Mass
    ------------   -----------------  -----------------  -----------------  -----------------
         C           -2.649742919121    -1.339592373385    -0.005194095700    12.000000000000
         C           -0.202306919121    -0.412400373385    -0.005120095700    12.000000000000
         C           -1.626616919121    -0.248594373385    -0.005373095700    12.000000000000
         C            0.380051080879     0.885111626615    -0.005491095700    12.000000000000
         C           -1.858063919121     1.109436626615    -0.005404095700    12.000000000000
         C            2.019509080879    -1.340311373385    -0.005308095700    12.000000000000
         C            2.574084080879    -0.041545373385    -0.005416095700    12.000000000000
         C            0.645102080879    -1.536380373385    -0.005626095700    12.000000000000
         C            1.765710080879     1.088450626615    -0.005044095700    12.000000000000
         N           -0.656588419121     1.790277626615     0.044557904300    14.003074004430
         H            2.685651080879    -2.199929373385    -0.005698095700     1.007825032230
         H            3.655206080879     0.076445626615    -0.005071095700     1.007825032230
         H            0.230034080879    -2.542781373385    -0.005406095700     1.007825032230
         H            2.195658080879     2.088366626615    -0.005055095700     1.007825032230
         H           -3.661411919121    -0.922792373385    -0.005533095700     1.007825032230
         H           -2.551903919121    -1.980254373385     0.877943904300     1.007825032230
         H           -2.797489919121     1.649642626615    -0.005701095700     1.007825032230
         H           -0.556393919121     2.796261626615    -0.005460095700     1.007825032230
         H           -2.551570919121    -1.980845373385    -0.887870095700     1.007825032230

  Basis Set: AUG-CC-PVTZ
    Blend: AUG-CC-PVTZ
  Basis Set: (AUG-CC-PVTZ AUX)
    Blend: AUG-CC-PVTZ-JKFIT
	 Reference Energy          =    -400.6398213118410467 [Eh]
	 Singles Energy            =      -0.0000000000000000 [Eh]
	 Same-Spin Energy          =      -0.4516839428801634 [Eh]
	 Opposite-Spin Energy      =      -1.4041544801292658 [Eh]
	 Correlation Energy        =      -1.8558384230094291 [Eh]
	 Total Energy              =    -402.4956597348504488 [Eh]

	 ================> DF-SCS-MP2 Energies <==================
	-----------------------------------------------------------
	 SCS Same-Spin Scale       =       0.3333333333333333 [-]
	 SCS Opposite-Spin Scale   =       1.2000000000000000 [-]
	 SCS Same-Spin Energy      =      -0.1505613142933878 [Eh]
	 SCS Opposite-Spin Energy  =      -1.6849853761551190 [Eh]
	 SCS Correlation Energy    =      -1.8355466904485067 [Eh]
	 SCS Total Energy          =    -402.4753680022895423 [Eh]
	-----------------------------------------------------------

  Dipole Moment: [D]
     X:    -0.9545      Y:     1.7908      Z:    -0.0526     Total:     2.0300

*** Psi4 exiting successfully. Buy a developer a beer!
