                               Psi4 1.3.2 release

  ==> Input File <==

--------------------------------------------------------------------------
#psi4
#
memory 32 gb

molecule  {
0 1
  C       -2.6260010    -1.3181790     0.0001460
  C       -0.1785650    -0.3909870     0.0002200
  C       -1.6028750    -0.2271810    -0.0000330
  C        0.4037930     0.9065250    -0.0001510
  C       -1.8343220     1.1308500    -0.0000640
  C        2.0432510    -1.3188980     0.0000320
  C        2.5978260    -0.0201320    -0.0000760
  C        0.6688440    -1.5149670    -0.0002860
  C        1.7894520     1.1098640     0.0002960
  N       -0.6328659     1.8117089     0.1998980
  H        2.7093930    -2.1785160    -0.0003580
  H        3.6789480     0.0978590     0.0002690
  H        0.2537760    -2.5213680    -0.0000660
  H        2.2194000     2.1097800     0.0002850
  H       -3.6376700    -0.9013790    -0.0001930
  H       -2.5281620    -1.9588410     0.8832840
  H       -2.7737480     1.6710560    -0.0003610
  H       -0.5326520     2.8176750    -0.0001200
  H       -2.5278290    -1.9594320    -0.8825300
units angstrom
no_reorient  #important for SAPT in psi4, default
symmetry c1  #important for SAPT in psi4, default
}

set PROPERTIES_ORIGIN ["COM"]
properties('MP2/aug-cc-pvtz', properties = ['dipole'])
--------------------------------------------------------------------------

    Molecular point group: c1
  Charge       = 0
  Multiplicity = 1
  Basis Set: AUG-CC-PVTZ
    Blend: AUG-CC-PVTZ
  Basis Set: (AUG-CC-PVTZ AUX)
    Blend: AUG-CC-PVTZ-JKFIT

    Orbital Energies [Eh]
    ---------------------

    Doubly Occupied:

       1A    -15.599447     2A    -11.265913     3A    -11.264606
       4A    -11.232616     5A    -11.231690     6A    -11.230395
       7A    -11.225462     8A    -11.224067     9A    -11.222844
      10A    -11.222817    11A     -1.284474    12A     -1.127132
      13A     -1.072200    14A     -0.997640    15A     -0.985343
      16A     -0.929450    17A     -0.836932    18A     -0.802603
      19A     -0.754063    20A     -0.712941    21A     -0.656781
      22A     -0.645513    23A     -0.604328    24A     -0.596485
      25A     -0.584955    26A     -0.569287    27A     -0.551957
      28A     -0.541005    29A     -0.529651    30A     -0.498448
      31A     -0.476639    32A     -0.463592    33A     -0.375279
      34A     -0.300958    35A     -0.279428

  @DF-RHF Final Energy:  -400.63387721162923

   => Energetics <=

    Nuclear Repulsion Energy =            482.7002825176841725
    One-Electron Energy =               -1498.8744409206715318
    Two-Electron Energy =                 615.5402811913581900
    Total Energy =                       -400.6338772116291693
  Basis Set: (AUG-CC-PVTZ AUX)
    Blend: AUG-CC-PVTZ-RI
    Molecular point group: c1

    Geometry (in Angstrom), charge = 0, multiplicity = 1:

       Center              X                  Y                   Z               Mass
    ------------   -----------------  -----------------  -----------------  -----------------
         C           -2.649740846546    -1.339594285709    -0.021219158828    12.000000000000
         C           -0.202304846546    -0.412402285709    -0.021145158828    12.000000000000
         C           -1.626614846546    -0.248596285709    -0.021398158828    12.000000000000
         C            0.380053153454     0.885109714291    -0.021516158828    12.000000000000
         C           -1.858061846546     1.109434714291    -0.021429158828    12.000000000000
         C            2.019511153454    -1.340313285709    -0.021333158828    12.000000000000
         C            2.574086153454    -0.041547285709    -0.021441158828    12.000000000000
         C            0.645104153454    -1.536382285709    -0.021651158828    12.000000000000
         C            1.765712153454     1.088448714291    -0.021069158828    12.000000000000
         N           -0.656605746546     1.790293614291     0.178532841172    14.003074004430
         H            2.685653153454    -2.199931285709    -0.021723158828     1.007825032230
         H            3.655208153454     0.076443714291    -0.021096158828     1.007825032230
         H            0.230036153454    -2.542783285709    -0.021431158828     1.007825032230
         H            2.195660153454     2.088364714291    -0.021080158828     1.007825032230
         H           -3.661409846546    -0.922794285709    -0.021558158828     1.007825032230
         H           -2.551901846546    -1.980256285709     0.861918841172     1.007825032230
         H           -2.797487846546     1.649640714291    -0.021726158828     1.007825032230
         H           -0.556391846546     2.796259714291    -0.021485158828     1.007825032230
         H           -2.551568846546    -1.980847285709    -0.903895158828     1.007825032230

  Basis Set: AUG-CC-PVTZ
    Blend: AUG-CC-PVTZ
  Basis Set: (AUG-CC-PVTZ AUX)
    Blend: AUG-CC-PVTZ-JKFIT
	 Reference Energy          =    -400.6338772116292262 [Eh]
	 Singles Energy            =      -0.0000000000000000 [Eh]
	 Same-Spin Energy          =      -0.4516383307847982 [Eh]
	 Opposite-Spin Energy      =      -1.4048485905560955 [Eh]
	 Correlation Energy        =      -1.8564869213408937 [Eh]
	 Total Energy              =    -402.4903641329701145 [Eh]

	 ================> DF-SCS-MP2 Energies <==================
	-----------------------------------------------------------
	 SCS Same-Spin Scale       =       0.3333333333333333 [-]
	 SCS Opposite-Spin Scale   =       1.2000000000000000 [-]
	 SCS Same-Spin Energy      =      -0.1505461102615994 [Eh]
	 SCS Opposite-Spin Energy  =      -1.6858183086673144 [Eh]
	 SCS Correlation Energy    =      -1.8363644189289139 [Eh]
	 SCS Total Energy          =    -402.4702416305581210 [Eh]
	-----------------------------------------------------------

  Dipole Moment: [D]
     X:    -0.9095      Y:     1.5897      Z:    -0.2178     Total:     1.8444

*** Psi4 exiting successfully. Buy a developer a beer!
