                               Psi4 1.3.2 release

  ==> Input File <==

--------------------------------------------------------------------------
#psi4
#
memory 32 gb

molecule  {
0 1
  C       -2.6260010    -1.3181790     0.0001460
  C       -0.1785650    -0.3909870     0.0002200
  C       -1.6028750    -0.2271810    -0.0000330
  C        0.4037930     0.9065250    -0.0001510
  C       -1.8343220     1.1308500    -0.0000640
  C        2.0432510    -1.3188980     0.0000320
  C        2.5978260    -0.0201320    -0.0000760
  C        0.6688440    -1.5149670    -0.0002860
  C        1.7894520     1.1098640     0.0002960
  N       -0.6328530     1.8116969     0.0998980
  H        2.7093930    -2.1785160    -0.0003580
  H        3.6789480     0.0978590     0.0002690
  H        0.2537760    -2.5213680    -0.0000660
  H        2.2194000     2.1097800     0.0002850
  H       -3.6376700    -0.9013790    -0.0001930
  H       -2.5281620    -1.9588410     0.8832840
  H       -2.7737480     1.6710560    -0.0003610
  H       -0.5326520     2.8176750    -0.0001200
  H       -2.5278290    -1.9594320    -0.8825300
units angstrom
no_reorient  #important for SAPT in psi4, default
symmetry c1  #important for SAPT in psi4, default
}

set PROPERTIES_ORIGIN ["COM"]
properties('MP2/aug-cc-pvtz', properties = ['dipole'])
--------------------------------------------------------------------------

    Molecular point group: c1
  Charge       = 0
  Multiplicity = 1
  Basis Set: AUG-CC-PVTZ
    Blend: AUG-CC-PVTZ
  Basis Set: (AUG-CC-PVTZ AUX)
    Blend: AUG-CC-PVTZ-JKFIT

    Orbital Energies [Eh]
    ---------------------

    Doubly Occupied:

       1A    -15.599746     2A    -11.265441     3A    -11.264560
       4A    -11.232048     5A    -11.230910     6A    -11.229694
       7A    -11.223406     8A    -11.222366     9A    -11.221784
      10A    -11.221511    11A     -1.289840    12A     -1.127034
      13A     -1.072135    14A     -0.997376    15A     -0.985615
      16A     -0.930535    17A     -0.838418    18A     -0.803567
      19A     -0.755315    20A     -0.718282    21A     -0.659149
      22A     -0.644841    23A     -0.603796    24A     -0.594858
      25A     -0.588862    26A     -0.569615    27A     -0.551521
      28A     -0.542013    29A     -0.529729    30A     -0.497857
      31A     -0.475989    32A     -0.463190    33A     -0.374722
      34A     -0.299196    35A     -0.278203

  @DF-RHF Final Energy:  -400.63868821767528

   => Energetics <=

    Nuclear Repulsion Energy =            483.1170360273942492
    One-Electron Energy =               -1499.7051973116308545
    Two-Electron Energy =                 615.9494730665612678
    Total Energy =                       -400.6386882176752806
  Basis Set: (AUG-CC-PVTZ AUX)
    Blend: AUG-CC-PVTZ-RI
    Molecular point group: c1

    Geometry (in Angstrom), charge = 0, multiplicity = 1:

       Center              X                  Y                   Z               Mass
    ------------   -----------------  -----------------  -----------------  -----------------
         C           -2.649742224701    -1.339593003704    -0.010535783409    12.000000000000
         C           -0.202306224701    -0.412401003704    -0.010461783409    12.000000000000
         C           -1.626616224701    -0.248595003704    -0.010714783409    12.000000000000
         C            0.380051775299     0.885110996296    -0.010832783409    12.000000000000
         C           -1.858063224701     1.109435996296    -0.010745783409    12.000000000000
         C            2.019509775299    -1.340312003704    -0.010649783409    12.000000000000
         C            2.574084775299    -0.041546003704    -0.010757783409    12.000000000000
         C            0.645102775299    -1.536381003704    -0.010967783409    12.000000000000
         C            1.765710775299     1.088449996296    -0.010385783409    12.000000000000
         N           -0.656594224701     1.790282896296     0.089216216591    14.003074004430
         H            2.685651775299    -2.199930003704    -0.011039783409     1.007825032230
         H            3.655206775299     0.076444996296    -0.010412783409     1.007825032230
         H            0.230034775299    -2.542782003704    -0.010747783409     1.007825032230
         H            2.195658775299     2.088365996296    -0.010396783409     1.007825032230
         H           -3.661411224701    -0.922793003704    -0.010874783409     1.007825032230
         H           -2.551903224701    -1.980255003704     0.872602216591     1.007825032230
         H           -2.797489224701     1.649641996296    -0.011042783409     1.007825032230
         H           -0.556393224701     2.796260996296    -0.010801783409     1.007825032230
         H           -2.551570224701    -1.980846003704    -0.893211783409     1.007825032230

  Basis Set: AUG-CC-PVTZ
    Blend: AUG-CC-PVTZ
  Basis Set: (AUG-CC-PVTZ AUX)
    Blend: AUG-CC-PVTZ-JKFIT
	 Reference Energy          =    -400.6386882176752806 [Eh]
	 Singles Energy            =      -0.0000000000000000 [Eh]
	 Same-Spin Energy          =      -0.4516721519609602 [Eh]
	 Opposite-Spin Energy      =      -1.4042628312081709 [Eh]
	 Correlation Energy        =      -1.8559349831691310 [Eh]
	 Total Energy              =    -402.4946232008443872 [Eh]

	 ================> DF-SCS-MP2 Energies <==================
	-----------------------------------------------------------
	 SCS Same-Spin Scale       =       0.3333333333333333 [-]
	 SCS Opposite-Spin Scale   =       1.2000000000000000 [-]
	 SCS Same-Spin Energy      =      -0.1505573839869867 [Eh]
	 SCS Opposite-Spin Energy  =      -1.6851153974498050 [Eh]
	 SCS Correlation Energy    =      -1.8356727814367917 [Eh]
	 SCS Total Energy          =    -402.4743609991120934 [Eh]
	-----------------------------------------------------------

  Dipole Moment: [D]
     X:    -0.9452      Y:     1.7495      Z:    -0.1059     Total:     1.9913

*** Psi4 exiting successfully. Buy a developer a beer!
