                               Psi4 1.3.2 release

  ==> Input File <==

--------------------------------------------------------------------------
#psi4
#
memory 32 gb

molecule  {
0 1
  C       -2.6260010    -1.3181790     0.0001460
  C       -0.1785650    -0.3909870     0.0002200
  C       -1.6028750    -0.2271810    -0.0000330
  C        0.4037930     0.9065250    -0.0001510
  C       -1.8343399     1.1308772     0.2499360
  C        2.0432510    -1.3188980     0.0000320
  C        2.5978260    -0.0201320    -0.0000760
  C        0.6688440    -1.5149670    -0.0002860
  C        1.7894520     1.1098640     0.0002960
  N       -0.6328400     1.8116850    -0.0001020
  H        2.7093930    -2.1785160    -0.0003580
  H        3.6789480     0.0978590     0.0002690
  H        0.2537760    -2.5213680    -0.0000660
  H        2.2194000     2.1097800     0.0002850
  H       -3.6376700    -0.9013790    -0.0001930
  H       -2.5281620    -1.9588410     0.8832840
  H       -2.7737480     1.6710560    -0.0003610
  H       -0.5326520     2.8176750    -0.0001200
  H       -2.5278290    -1.9594320    -0.8825300
units angstrom
no_reorient  #important for SAPT in psi4, default
symmetry c1  #important for SAPT in psi4, default
}

set PROPERTIES_ORIGIN ["COM"]
properties('MP2/aug-cc-pvtz', properties = ['dipole'])
--------------------------------------------------------------------------

    Molecular point group: c1
  Charge       = 0
  Multiplicity = 1
  Basis Set: AUG-CC-PVTZ
    Blend: AUG-CC-PVTZ
  Basis Set: (AUG-CC-PVTZ AUX)
    Blend: AUG-CC-PVTZ-JKFIT

    Orbital Energies [Eh]
    ---------------------

    Doubly Occupied:

       1A    -15.597647     2A    -11.267562     3A    -11.265590
       4A    -11.233643     5A    -11.233323     6A    -11.232003
       7A    -11.231393     8A    -11.223425     9A    -11.223106
      10A    -11.222624    11A     -1.284995    12A     -1.127852
      13A     -1.071907    14A     -0.998261    15A     -0.985661
      16A     -0.929631    17A     -0.837372    18A     -0.804015
      19A     -0.753184    20A     -0.716910    21A     -0.655242
      22A     -0.641370    23A     -0.604281    24A     -0.594992
      25A     -0.590811    26A     -0.561801    27A     -0.551989
      28A     -0.540470    29A     -0.529049    30A     -0.497395
      31A     -0.477790    32A     -0.462711    33A     -0.374281
      34A     -0.299267    35A     -0.279284

  @DF-RHF Final Energy:  -400.62221709067433

   => Energetics <=

    Nuclear Repulsion Energy =            482.5041175992725471
    One-Electron Energy =               -1498.4509958711714717
    Two-Electron Energy =                 615.3246611812245419
    Total Energy =                       -400.6222170906743258
  Basis Set: (AUG-CC-PVTZ AUX)
    Blend: AUG-CC-PVTZ-RI
    Molecular point group: c1

    Geometry (in Angstrom), charge = 0, multiplicity = 1:

       Center              X                  Y                   Z               Mass
    ------------   -----------------  -----------------  -----------------  -----------------
         C           -2.649741974765    -1.339594222588    -0.022740329776    12.000000000000
         C           -0.202305974765    -0.412402222588    -0.022666329776    12.000000000000
         C           -1.626615974765    -0.248596222588    -0.022919329776    12.000000000000
         C            0.380052025235     0.885109777412    -0.023037329776    12.000000000000
         C           -1.858080874765     1.109461977412     0.227049670224    12.000000000000
         C            2.019510025235    -1.340313222588    -0.022854329776    12.000000000000
         C            2.574085025235    -0.041547222588    -0.022962329776    12.000000000000
         C            0.645103025235    -1.536382222588    -0.023172329776    12.000000000000
         C            1.765711025235     1.088448777412    -0.022590329776    12.000000000000
         N           -0.656580974765     1.790269777412    -0.022988329776    14.003074004430
         H            2.685652025235    -2.199931222588    -0.023244329776     1.007825032230
         H            3.655207025235     0.076443777412    -0.022617329776     1.007825032230
         H            0.230035025235    -2.542783222588    -0.022952329776     1.007825032230
         H            2.195659025235     2.088364777412    -0.022601329776     1.007825032230
         H           -3.661410974765    -0.922794222588    -0.023079329776     1.007825032230
         H           -2.551902974765    -1.980256222588     0.860397670224     1.007825032230
         H           -2.797488974765     1.649640777412    -0.023247329776     1.007825032230
         H           -0.556392974765     2.796259777412    -0.023006329776     1.007825032230
         H           -2.551569974765    -1.980847222588    -0.905416329776     1.007825032230

  Basis Set: AUG-CC-PVTZ
    Blend: AUG-CC-PVTZ
  Basis Set: (AUG-CC-PVTZ AUX)
    Blend: AUG-CC-PVTZ-JKFIT
	 Reference Energy          =    -400.6222170906743258 [Eh]
	 Singles Energy            =      -0.0000000000000000 [Eh]
	 Same-Spin Energy          =      -0.4527461484067605 [Eh]
	 Opposite-Spin Energy      =      -1.4071685697399370 [Eh]
	 Correlation Energy        =      -1.8599147181466975 [Eh]
	 Total Energy              =    -402.4821318088210091 [Eh]

	 ================> DF-SCS-MP2 Energies <==================
	-----------------------------------------------------------
	 SCS Same-Spin Scale       =       0.3333333333333333 [-]
	 SCS Opposite-Spin Scale   =       1.2000000000000000 [-]
	 SCS Same-Spin Energy      =      -0.1509153828022535 [Eh]
	 SCS Opposite-Spin Energy  =      -1.6886022836879244 [Eh]
	 SCS Correlation Energy    =      -1.8395176664901780 [Eh]
	 SCS Total Energy          =    -402.4617347571644927 [Eh]
	-----------------------------------------------------------

  Dipole Moment: [D]
     X:    -0.7536      Y:     1.5953      Z:    -0.1789     Total:     1.7734

*** Psi4 exiting successfully. Buy a developer a beer!
