                               Psi4 1.3.2 release

  ==> Input File <==

--------------------------------------------------------------------------
#psi4
#
memory 32 gb

molecule  {
0 1
  C       -2.6260010    -1.3181790     0.0001460
  C       -0.1785650    -0.3909870     0.0002200
  C       -1.6028750    -0.2271810    -0.0000330
  C        0.4037930     0.9065250    -0.0001510
  C       -1.8343220     1.1308500    -0.0000640
  C        2.0432510    -1.3188980     0.0000320
  C        2.5978260    -0.0201320    -0.0000760
  C        0.6688440    -1.5149670    -0.0002860
  C        1.7894520     1.1098640     0.0002960
  N       -0.6328400     1.8116850    -0.0001020
  H        2.7093930    -2.1785160    -0.0003580
  H        3.6789480     0.0978590     0.0002690
  H        0.2537760    -2.5213680    -0.0000660
  H        2.2194000     2.1097800     0.0002850
  H       -3.6376700    -0.9013790    -0.0001930
  H       -2.5281620    -1.9588410     0.8832840
  H       -2.7737480     1.6710560    -0.0003610
  H       -0.5326598     2.8176744    -0.2001200
  H       -2.5278290    -1.9594320    -0.8825300
units angstrom
no_reorient  #important for SAPT in psi4, default
symmetry c1  #important for SAPT in psi4, default
}

set PROPERTIES_ORIGIN ["COM"]
properties('MP2/aug-cc-pvtz', properties = ['dipole'])
--------------------------------------------------------------------------

    Molecular point group: c1
  Charge       = 0
  Multiplicity = 1
  Basis Set: AUG-CC-PVTZ
    Blend: AUG-CC-PVTZ
  Basis Set: (AUG-CC-PVTZ AUX)
    Blend: AUG-CC-PVTZ-JKFIT

    Orbital Energies [Eh]
    ---------------------

    Doubly Occupied:

       1A    -15.600724     2A    -11.265038     3A    -11.264216
       4A    -11.231938     5A    -11.230744     6A    -11.229548
       7A    -11.223083     8A    -11.222078     9A    -11.221586
      10A    -11.221311    11A     -1.290440    12A     -1.126705
      13A     -1.071554    14A     -0.997085    15A     -0.985602
      16A     -0.929845    17A     -0.838599    18A     -0.802474
      19A     -0.755267    20A     -0.716970    21A     -0.659843
      22A     -0.644675    23A     -0.604388    24A     -0.595729
      25A     -0.587197    26A     -0.569650    27A     -0.551420
      28A     -0.541559    29A     -0.529644    30A     -0.497764
      31A     -0.475958    32A     -0.462716    33A     -0.374644
      34A     -0.298992    35A     -0.278039

  @DF-RHF Final Energy:  -400.63870260768442

   => Energetics <=

    Nuclear Repulsion Energy =            483.1646530780370767
    One-Electron Energy =               -1499.8126544830290641
    Two-Electron Energy =                 616.0092987973075651
    Total Energy =                       -400.6387026076844222
  Basis Set: (AUG-CC-PVTZ AUX)
    Blend: AUG-CC-PVTZ-RI
    Molecular point group: c1

    Geometry (in Angstrom), charge = 0, multiplicity = 1:

       Center              X                  Y                   Z               Mass
    ------------   -----------------  -----------------  -----------------  -----------------
         C           -2.649743553566    -1.339591727769     0.001685393377    12.000000000000
         C           -0.202307553566    -0.412399727769     0.001759393377    12.000000000000
         C           -1.626617553566    -0.248593727769     0.001506393377    12.000000000000
         C            0.380050446434     0.885112272231     0.001388393377    12.000000000000
         C           -1.858064553566     1.109437272231     0.001475393377    12.000000000000
         C            2.019508446434    -1.340310727769     0.001571393377    12.000000000000
         C            2.574083446434    -0.041544727769     0.001463393377    12.000000000000
         C            0.645101446434    -1.536379727769     0.001253393377    12.000000000000
         C            1.765709446434     1.088451272231     0.001835393377    12.000000000000
         N           -0.656582553566     1.790272272231     0.001437393377    14.003074004430
         H            2.685650446434    -2.199928727769     0.001181393377     1.007825032230
         H            3.655205446434     0.076446272231     0.001808393377     1.007825032230
         H            0.230033446434    -2.542780727769     0.001473393377     1.007825032230
         H            2.195657446434     2.088367272231     0.001824393377     1.007825032230
         H           -3.661412553566    -0.922791727769     0.001346393377     1.007825032230
         H           -2.551904553566    -1.980253727769     0.884823393377     1.007825032230
         H           -2.797490553566     1.649643272231     0.001178393377     1.007825032230
         H           -0.556402353566     2.796261672231    -0.198580606623     1.007825032230
         H           -2.551571553566    -1.980844727769    -0.880990606623     1.007825032230

  Basis Set: AUG-CC-PVTZ
    Blend: AUG-CC-PVTZ
  Basis Set: (AUG-CC-PVTZ AUX)
    Blend: AUG-CC-PVTZ-JKFIT
	 Reference Energy          =    -400.6387026076844222 [Eh]
	 Singles Energy            =      -0.0000000000000000 [Eh]
	 Same-Spin Energy          =      -0.4517887393478984 [Eh]
	 Opposite-Spin Energy      =      -1.4044236861673847 [Eh]
	 Correlation Energy        =      -1.8562124255152832 [Eh]
	 Total Energy              =    -402.4949150331997316 [Eh]

	 ================> DF-SCS-MP2 Energies <==================
	-----------------------------------------------------------
	 SCS Same-Spin Scale       =       0.3333333333333333 [-]
	 SCS Opposite-Spin Scale   =       1.2000000000000000 [-]
	 SCS Same-Spin Energy      =      -0.1505962464492995 [Eh]
	 SCS Opposite-Spin Energy  =      -1.6853084234008615 [Eh]
	 SCS Correlation Energy    =      -1.8359046698501609 [Eh]
	 SCS Total Energy          =    -402.4746072775345738 [Eh]
	-----------------------------------------------------------

  Dipole Moment: [D]
     X:    -0.9516      Y:     1.7631      Z:    -0.2813     Total:     2.0232

*** Psi4 exiting successfully. Buy a developer a beer!
