                               Psi4 1.3.2 release

  ==> Input File <==

--------------------------------------------------------------------------
#psi4
#
memory 32 gb

molecule  {
0 1
  C       -2.6260010    -1.3181790     0.0001460
  C       -0.1785650    -0.3909870     0.0002200
  C       -1.6028750    -0.2271810    -0.0000330
  C        0.4037930     0.9065250    -0.0001510
  C       -1.8343220     1.1308500    -0.0000640
  C        2.0432510    -1.3188980     0.0000320
  C        2.5978260    -0.0201320    -0.0000760
  C        0.6688440    -1.5149670    -0.0002860
  C        1.7894520     1.1098640     0.0002960
  N       -0.6328400     1.8116850    -0.0001020
  H        2.7093930    -2.1785160    -0.0003580
  H        3.6789480     0.0978590     0.0002690
  H        0.2537760    -2.5213680    -0.0000660
  H        2.2194000     2.1097800     0.0002850
  H       -3.6376700    -0.9013790    -0.0001930
  H       -2.5281620    -1.9588410     0.8832840
  H       -2.7737734     1.6710749     0.1996390
  H       -0.5326520     2.8176750    -0.0001200
  H       -2.5278290    -1.9594320    -0.8825300
units angstrom
no_reorient  #important for SAPT in psi4, default
symmetry c1  #important for SAPT in psi4, default
}

set PROPERTIES_ORIGIN ["COM"]
properties('MP2/aug-cc-pvtz', properties = ['dipole'])
--------------------------------------------------------------------------

    Molecular point group: c1
  Charge       = 0
  Multiplicity = 1
  Basis Set: AUG-CC-PVTZ
    Blend: AUG-CC-PVTZ
  Basis Set: (AUG-CC-PVTZ AUX)
    Blend: AUG-CC-PVTZ-JKFIT

    Orbital Energies [Eh]
    ---------------------

    Doubly Occupied:

       1A    -15.599738     2A    -11.265675     3A    -11.265621
       4A    -11.232029     5A    -11.231005     6A    -11.229824
       7A    -11.223250     8A    -11.222076     9A    -11.221616
      10A    -11.221278    11A     -1.291636    12A     -1.127208
      13A     -1.072318    14A     -0.997525    15A     -0.985543
      16A     -0.930823    17A     -0.838072    18A     -0.803780
      19A     -0.755358    20A     -0.719640    21A     -0.659313
      22A     -0.643377    23A     -0.603712    24A     -0.592930
      25A     -0.592737    26A     -0.567030    27A     -0.551246
      28A     -0.542442    29A     -0.529493    30A     -0.497712
      31A     -0.476024    32A     -0.462901    33A     -0.374699
      34A     -0.298762    35A     -0.277976

  @DF-RHF Final Energy:  -400.63789262607668

   => Energetics <=

    Nuclear Repulsion Energy =            483.1867052011414216
    One-Electron Energy =               -1499.8404609716610594
    Two-Electron Energy =                 616.0158631444429602
    Total Energy =                       -400.6378926260766775
  Basis Set: (AUG-CC-PVTZ AUX)
    Blend: AUG-CC-PVTZ-RI
    Molecular point group: c1

    Geometry (in Angstrom), charge = 0, multiplicity = 1:

       Center              X                  Y                   Z               Mass
    ------------   -----------------  -----------------  -----------------  -----------------
         C           -2.649743418239    -1.339591877704    -0.001390209358    12.000000000000
         C           -0.202307418239    -0.412399877704    -0.001316209358    12.000000000000
         C           -1.626617418239    -0.248593877704    -0.001569209358    12.000000000000
         C            0.380050581761     0.885112122296    -0.001687209358    12.000000000000
         C           -1.858064418239     1.109437122296    -0.001600209358    12.000000000000
         C            2.019508581761    -1.340310877704    -0.001504209358    12.000000000000
         C            2.574083581761    -0.041544877704    -0.001612209358    12.000000000000
         C            0.645101581761    -1.536379877704    -0.001822209358    12.000000000000
         C            1.765709581761     1.088451122296    -0.001240209358    12.000000000000
         N           -0.656582418239     1.790272122296    -0.001638209358    14.003074004430
         H            2.685650581761    -2.199928877704    -0.001894209358     1.007825032230
         H            3.655205581761     0.076446122296    -0.001267209358     1.007825032230
         H            0.230033581761    -2.542780877704    -0.001602209358     1.007825032230
         H            2.195657581761     2.088367122296    -0.001251209358     1.007825032230
         H           -3.661412418239    -0.922791877704    -0.001729209358     1.007825032230
         H           -2.551904418239    -1.980253877704     0.881747790642     1.007825032230
         H           -2.797515818239     1.649662022296     0.198102790642     1.007825032230
         H           -0.556394418239     2.796262122296    -0.001656209358     1.007825032230
         H           -2.551571418239    -1.980844877704    -0.884066209358     1.007825032230

  Basis Set: AUG-CC-PVTZ
    Blend: AUG-CC-PVTZ
  Basis Set: (AUG-CC-PVTZ AUX)
    Blend: AUG-CC-PVTZ-JKFIT
	 Reference Energy          =    -400.6378926260766775 [Eh]
	 Singles Energy            =      -0.0000000000000000 [Eh]
	 Same-Spin Energy          =      -0.4518497145879622 [Eh]
	 Opposite-Spin Energy      =      -1.4044960670652102 [Eh]
	 Correlation Energy        =      -1.8563457816531725 [Eh]
	 Total Energy              =    -402.4942384077298243 [Eh]

	 ================> DF-SCS-MP2 Energies <==================
	-----------------------------------------------------------
	 SCS Same-Spin Scale       =       0.3333333333333333 [-]
	 SCS Opposite-Spin Scale   =       1.2000000000000000 [-]
	 SCS Same-Spin Energy      =      -0.1506165715293207 [Eh]
	 SCS Opposite-Spin Energy  =      -1.6853952804782522 [Eh]
	 SCS Correlation Energy    =      -1.8360118520075730 [Eh]
	 SCS Total Energy          =    -402.4739044780842505 [Eh]
	-----------------------------------------------------------

  Dipole Moment: [D]
     X:    -0.9180      Y:     1.7757      Z:     0.1570     Total:     2.0051

*** Psi4 exiting successfully. Buy a developer a beer!
