                               Psi4 1.3.2 release

  ==> Input File <==

--------------------------------------------------------------------------
#psi4
#
memory 32 gb

molecule  {
0 1
  C       -2.6260010    -1.3181790     0.0001460
  C       -0.1785650    -0.3909870     0.0002200
  C       -1.6028750    -0.2271810    -0.0000330
  C        0.4037930     0.9065250    -0.0001510
  C       -1.8343220     1.1308500    -0.0000640
  C        2.0432510    -1.3188980     0.0000320
  C        2.5978260    -0.0201320    -0.0000760
  C        0.6688397    -1.5149647    -0.0502860
  C        1.7894520     1.1098640     0.0002960
  N       -0.6328400     1.8116850    -0.0001020
  H        2.7093930    -2.1785160    -0.0003580
  H        3.6789480     0.0978590     0.0002690
  H        0.2537760    -2.5213680    -0.0000660
  H        2.2194000     2.1097800     0.0002850
  H       -3.6376700    -0.9013790    -0.0001930
  H       -2.5281620    -1.9588410     0.8832840
  H       -2.7737480     1.6710560    -0.0003610
  H       -0.5326520     2.8176750    -0.0001200
  H       -2.5278290    -1.9594320    -0.8825300
units angstrom
no_reorient  #important for SAPT in psi4, default
symmetry c1  #important for SAPT in psi4, default
}

set PROPERTIES_ORIGIN ["COM"]
properties('MP2/aug-cc-pvtz', properties = ['dipole'])
--------------------------------------------------------------------------

    Molecular point group: c1
  Charge       = 0
  Multiplicity = 1
  Basis Set: AUG-CC-PVTZ
    Blend: AUG-CC-PVTZ
  Basis Set: (AUG-CC-PVTZ AUX)
    Blend: AUG-CC-PVTZ-JKFIT

    Orbital Energies [Eh]
    ---------------------

    Doubly Occupied:

       1A    -15.599964     2A    -11.265262     3A    -11.264600
       4A    -11.231982     5A    -11.230822     6A    -11.229447
       7A    -11.222770     8A    -11.221884     9A    -11.221358
      10A    -11.221295    11A     -1.291701    12A     -1.126897
      13A     -1.072122    14A     -0.997205    15A     -0.985683
      16A     -0.930931    17A     -0.838958    18A     -0.803822
      19A     -0.755743    20A     -0.719972    21A     -0.659919
      22A     -0.644571    23A     -0.603397    24A     -0.593204
      25A     -0.591188    26A     -0.569634    27A     -0.551370
      28A     -0.542284    29A     -0.529656    30A     -0.497516
      31A     -0.475768    32A     -0.462840    33A     -0.374498
      34A     -0.298579    35A     -0.277770

  @DF-RHF Final Energy:  -400.63940292551695

   => Energetics <=

    Nuclear Repulsion Energy =            483.2289663525010610
    One-Electron Energy =               -1499.9275140344389001
    Two-Electron Energy =                 616.0591447564208920
    Total Energy =                       -400.6394029255169471
  Basis Set: (AUG-CC-PVTZ AUX)
    Blend: AUG-CC-PVTZ-RI
    Molecular point group: c1

    Geometry (in Angstrom), charge = 0, multiplicity = 1:

       Center              X                  Y                   Z               Mass
    ------------   -----------------  -----------------  -----------------  -----------------
         C           -2.649743219868    -1.339591942951     0.004725176367    12.000000000000
         C           -0.202307219868    -0.412399942951     0.004799176367    12.000000000000
         C           -1.626617219868    -0.248593942951     0.004546176367    12.000000000000
         C            0.380050780132     0.885112057049     0.004428176367    12.000000000000
         C           -1.858064219868     1.109437057049     0.004515176367    12.000000000000
         C            2.019508780132    -1.340310942951     0.004611176367    12.000000000000
         C            2.574083780132    -0.041544942951     0.004503176367    12.000000000000
         C            0.645097480132    -1.536377642951    -0.045706823633    12.000000000000
         C            1.765709780132     1.088451057049     0.004875176367    12.000000000000
         N           -0.656582219868     1.790272057049     0.004477176367    14.003074004430
         H            2.685650780132    -2.199928942951     0.004221176367     1.007825032230
         H            3.655205780132     0.076446057049     0.004848176367     1.007825032230
         H            0.230033780132    -2.542780942951     0.004513176367     1.007825032230
         H            2.195657780132     2.088367057049     0.004864176367     1.007825032230
         H           -3.661412219868    -0.922791942951     0.004386176367     1.007825032230
         H           -2.551904219868    -1.980253942951     0.887863176367     1.007825032230
         H           -2.797490219868     1.649643057049     0.004218176367     1.007825032230
         H           -0.556394219868     2.796262057049     0.004459176367     1.007825032230
         H           -2.551571219868    -1.980844942951    -0.877950823633     1.007825032230

  Basis Set: AUG-CC-PVTZ
    Blend: AUG-CC-PVTZ
  Basis Set: (AUG-CC-PVTZ AUX)
    Blend: AUG-CC-PVTZ-JKFIT
	 Reference Energy          =    -400.6394029255169471 [Eh]
	 Singles Energy            =      -0.0000000000000000 [Eh]
	 Same-Spin Energy          =      -0.4517377705487014 [Eh]
	 Opposite-Spin Energy      =      -1.4041712033625837 [Eh]
	 Correlation Energy        =      -1.8559089739112851 [Eh]
	 Total Energy              =    -402.4953118994282590 [Eh]

	 ================> DF-SCS-MP2 Energies <==================
	-----------------------------------------------------------
	 SCS Same-Spin Scale       =       0.3333333333333333 [-]
	 SCS Opposite-Spin Scale   =       1.2000000000000000 [-]
	 SCS Same-Spin Energy      =      -0.1505792568495671 [Eh]
	 SCS Opposite-Spin Energy  =      -1.6850054440351003 [Eh]
	 SCS Correlation Energy    =      -1.8355847008846675 [Eh]
	 SCS Total Energy          =    -402.4749876264016279 [Eh]
	-----------------------------------------------------------

  Dipole Moment: [D]
     X:    -0.9553      Y:     1.8109      Z:     0.0328     Total:     2.0477

*** Psi4 exiting successfully. Buy a developer a beer!
