                               Psi4 1.3.2 release

  ==> Input File <==

--------------------------------------------------------------------------
#psi4
#
memory 32 gb

molecule  {
0 1
  C       -2.6260010    -1.3181790     0.0001460
  C       -0.1785650    -0.3909870     0.0002200
  C       -1.6028750    -0.2271810    -0.0000330
  C        0.4037930     0.9065250    -0.0001510
  C       -1.8343220     1.1308500    -0.0000640
  C        2.0432510    -1.3188980     0.0000320
  C        2.5978260    -0.0201320    -0.0000760
  C        0.6688440    -1.5149670    -0.0002860
  C        1.7894520     1.1098640     0.0002960
  N       -0.6328400     1.8116850    -0.0001020
  H        2.7093930    -2.1785160    -0.0003580
  H        3.6789480     0.0978590     0.0002690
  H        0.2537760    -2.5213680    -0.0000660
  H        2.2194000     2.1097800     0.0002850
  H       -3.6376700    -0.9013790    -0.0001930
  H       -2.5281620    -1.9588410     0.8832840
  H       -2.7737544     1.6710607     0.0496390
  H       -0.5326520     2.8176750    -0.0001200
  H       -2.5278290    -1.9594320    -0.8825300
units angstrom
no_reorient  #important for SAPT in psi4, default
symmetry c1  #important for SAPT in psi4, default
}

set PROPERTIES_ORIGIN ["COM"]
properties('MP2/aug-cc-pvtz', properties = ['dipole'])
--------------------------------------------------------------------------

    Molecular point group: c1
  Charge       = 0
  Multiplicity = 1
  Basis Set: AUG-CC-PVTZ
    Blend: AUG-CC-PVTZ
  Basis Set: (AUG-CC-PVTZ AUX)
    Blend: AUG-CC-PVTZ-JKFIT

    Orbital Energies [Eh]
    ---------------------

    Doubly Occupied:

       1A    -15.599927     2A    -11.265297     3A    -11.264614
       4A    -11.231866     5A    -11.230665     6A    -11.229475
       7A    -11.222754     8A    -11.221826     9A    -11.221375
      10A    -11.221072    11A     -1.291676    12A     -1.127007
      13A     -1.072133    14A     -0.997327    15A     -0.985691
      16A     -0.930934    17A     -0.838928    18A     -0.803922
      19A     -0.755774    20A     -0.720023    21A     -0.659913
      22A     -0.644537    23A     -0.603518    24A     -0.592716
      25A     -0.591996    26A     -0.569535    27A     -0.551373
      28A     -0.542311    29A     -0.529690    30A     -0.497645
      31A     -0.475772    32A     -0.463045    33A     -0.374548
      34A     -0.298645    35A     -0.277746

  @DF-RHF Final Energy:  -400.64005950336201

   => Energetics <=

    Nuclear Repulsion Energy =            483.2535609692816934
    One-Electron Energy =               -1499.9766847773455538
    Two-Electron Energy =                 616.0830643047017929
    Total Energy =                       -400.6400595033620675
  Basis Set: (AUG-CC-PVTZ AUX)
    Blend: AUG-CC-PVTZ-RI
    Molecular point group: c1

    Geometry (in Angstrom), charge = 0, multiplicity = 1:

       Center              X                  Y                   Z               Mass
    ------------   -----------------  -----------------  -----------------  -----------------
         C           -2.649743564330    -1.339591768520    -0.000236858332    12.000000000000
         C           -0.202307564330    -0.412399768520    -0.000162858332    12.000000000000
         C           -1.626617564330    -0.248593768520    -0.000415858332    12.000000000000
         C            0.380050435670     0.885112231480    -0.000533858332    12.000000000000
         C           -1.858064564330     1.109437231480    -0.000446858332    12.000000000000
         C            2.019508435670    -1.340310768520    -0.000350858332    12.000000000000
         C            2.574083435670    -0.041544768520    -0.000458858332    12.000000000000
         C            0.645101435670    -1.536379768520    -0.000668858332    12.000000000000
         C            1.765709435670     1.088451231480    -0.000086858332    12.000000000000
         N           -0.656582564330     1.790272231480    -0.000484858332    14.003074004430
         H            2.685650435670    -2.199928768520    -0.000740858332     1.007825032230
         H            3.655205435670     0.076446231480    -0.000113858332     1.007825032230
         H            0.230033435670    -2.542780768520    -0.000448858332     1.007825032230
         H            2.195657435670     2.088367231480    -0.000097858332     1.007825032230
         H           -3.661412564330    -0.922791768520    -0.000575858332     1.007825032230
         H           -2.551904564330    -1.980253768520     0.882901141668     1.007825032230
         H           -2.797496964330     1.649647931480     0.049256141668     1.007825032230
         H           -0.556394564330     2.796262231480    -0.000502858332     1.007825032230
         H           -2.551571564330    -1.980844768520    -0.882912858332     1.007825032230

  Basis Set: AUG-CC-PVTZ
    Blend: AUG-CC-PVTZ
  Basis Set: (AUG-CC-PVTZ AUX)
    Blend: AUG-CC-PVTZ-JKFIT
	 Reference Energy          =    -400.6400595033620107 [Eh]
	 Singles Energy            =      -0.0000000000000000 [Eh]
	 Same-Spin Energy          =      -0.4516984711788887 [Eh]
	 Opposite-Spin Energy      =      -1.4041475318667120 [Eh]
	 Correlation Energy        =      -1.8558460030456008 [Eh]
	 Total Energy              =    -402.4959055064076097 [Eh]

	 ================> DF-SCS-MP2 Energies <==================
	-----------------------------------------------------------
	 SCS Same-Spin Scale       =       0.3333333333333333 [-]
	 SCS Opposite-Spin Scale   =       1.2000000000000000 [-]
	 SCS Same-Spin Energy      =      -0.1505661570596296 [Eh]
	 SCS Opposite-Spin Energy  =      -1.6849770382400544 [Eh]
	 SCS Correlation Energy    =      -1.8355431952996839 [Eh]
	 SCS Total Energy          =    -402.4756026986617030 [Eh]
	-----------------------------------------------------------

  Dipole Moment: [D]
     X:    -0.9551      Y:     1.8029      Z:     0.0397     Total:     2.0407

*** Psi4 exiting successfully. Buy a developer a beer!
