                               Psi4 1.3.2 release

  ==> Input File <==

--------------------------------------------------------------------------
#psi4
#
memory 32 gb

molecule  {
0 1
  C       -2.6260010    -1.3181790     0.0001460
  C       -0.1785650    -0.3909870     0.0002200
  C       -1.6028750    -0.2271810    -0.0000330
  C        0.4037930     0.9065250    -0.0001510
  C       -1.8343220     1.1308500    -0.0000640
  C        2.0432510    -1.3188980     0.0000320
  C        2.5978260    -0.0201320    -0.0000760
  C        0.6688440    -1.5149670    -0.0002860
  C        1.7894520     1.1098640     0.0002960
  N       -0.6328400     1.8116850    -0.0001020
  H        2.7093930    -2.1785160    -0.0003580
  H        3.6789480     0.0978590     0.0002690
  H        0.2537698    -2.5213424    -0.2000660
  H        2.2194000     2.1097800     0.0002850
  H       -3.6376700    -0.9013790    -0.0001930
  H       -2.5281620    -1.9588410     0.8832840
  H       -2.7737480     1.6710560    -0.0003610
  H       -0.5326520     2.8176750    -0.0001200
  H       -2.5278290    -1.9594320    -0.8825300
units angstrom
no_reorient  #important for SAPT in psi4, default
symmetry c1  #important for SAPT in psi4, default
}

set PROPERTIES_ORIGIN ["COM"]
properties('MP2/aug-cc-pvtz', properties = ['dipole'])
--------------------------------------------------------------------------

    Molecular point group: c1
  Charge       = 0
  Multiplicity = 1
  Basis Set: AUG-CC-PVTZ
    Blend: AUG-CC-PVTZ
  Basis Set: (AUG-CC-PVTZ AUX)
    Blend: AUG-CC-PVTZ-JKFIT

    Orbital Energies [Eh]
    ---------------------

    Doubly Occupied:

       1A    -15.600069     2A    -11.265397     3A    -11.264697
       4A    -11.232259     5A    -11.232166     6A    -11.229612
       7A    -11.222834     8A    -11.221928     9A    -11.221463
      10A    -11.221307    11A     -1.291809    12A     -1.127077
      13A     -1.072171    14A     -0.997028    15A     -0.985806
      16A     -0.930836    17A     -0.838526    18A     -0.804070
      19A     -0.755459    20A     -0.718926    21A     -0.659574
      22A     -0.644734    23A     -0.602944    24A     -0.593226
      25A     -0.589868    26A     -0.569649    27A     -0.551344
      28A     -0.542175    29A     -0.529638    30A     -0.497656
      31A     -0.476851    32A     -0.460888    33A     -0.374315
      34A     -0.298763    35A     -0.277787

  @DF-RHF Final Energy:  -400.63761596161396

   => Energetics <=

    Nuclear Repulsion Energy =            483.1856283900205540
    One-Electron Energy =               -1499.8407838884431840
    Two-Electron Energy =                 616.0175395368086129
    Total Energy =                       -400.6376159616139603
  Basis Set: (AUG-CC-PVTZ AUX)
    Blend: AUG-CC-PVTZ-RI
    Molecular point group: c1

    Geometry (in Angstrom), charge = 0, multiplicity = 1:

       Center              X                  Y                   Z               Mass
    ------------   -----------------  -----------------  -----------------  -----------------
         C           -2.649743565868    -1.339591929221     0.001685393377    12.000000000000
         C           -0.202307565868    -0.412399929221     0.001759393377    12.000000000000
         C           -1.626617565868    -0.248593929221     0.001506393377    12.000000000000
         C            0.380050434132     0.885112070779     0.001388393377    12.000000000000
         C           -1.858064565868     1.109437070779     0.001475393377    12.000000000000
         C            2.019508434132    -1.340310929221     0.001571393377    12.000000000000
         C            2.574083434132    -0.041544929221     0.001463393377    12.000000000000
         C            0.645101434132    -1.536379929221     0.001253393377    12.000000000000
         C            1.765709434132     1.088451070779     0.001835393377    12.000000000000
         N           -0.656582565868     1.790272070779     0.001437393377    14.003074004430
         H            2.685650434132    -2.199928929221     0.001181393377     1.007825032230
         H            3.655205434132     0.076446070779     0.001808393377     1.007825032230
         H            0.230027234132    -2.542755329221    -0.198526606623     1.007825032230
         H            2.195657434132     2.088367070779     0.001824393377     1.007825032230
         H           -3.661412565868    -0.922791929221     0.001346393377     1.007825032230
         H           -2.551904565868    -1.980253929221     0.884823393377     1.007825032230
         H           -2.797490565868     1.649643070779     0.001178393377     1.007825032230
         H           -0.556394565868     2.796262070779     0.001419393377     1.007825032230
         H           -2.551571565868    -1.980844929221    -0.880990606623     1.007825032230

  Basis Set: AUG-CC-PVTZ
    Blend: AUG-CC-PVTZ
  Basis Set: (AUG-CC-PVTZ AUX)
    Blend: AUG-CC-PVTZ-JKFIT
	 Reference Energy          =    -400.6376159616139603 [Eh]
	 Singles Energy            =      -0.0000000000000000 [Eh]
	 Same-Spin Energy          =      -0.4518587359726870 [Eh]
	 Opposite-Spin Energy      =      -1.4044528631600015 [Eh]
	 Correlation Energy        =      -1.8563115991326886 [Eh]
	 Total Energy              =    -402.4939275607466698 [Eh]

	 ================> DF-SCS-MP2 Energies <==================
	-----------------------------------------------------------
	 SCS Same-Spin Scale       =       0.3333333333333333 [-]
	 SCS Opposite-Spin Scale   =       1.2000000000000000 [-]
	 SCS Same-Spin Energy      =      -0.1506195786575623 [Eh]
	 SCS Opposite-Spin Energy  =      -1.6853434357920019 [Eh]
	 SCS Correlation Energy    =      -1.8359630144495642 [Eh]
	 SCS Total Energy          =    -402.4735789760635498 [Eh]
	-----------------------------------------------------------

  Dipole Moment: [D]
     X:    -0.9450      Y:     1.8368      Z:    -0.1223     Total:     2.0693

*** Psi4 exiting successfully. Buy a developer a beer!
