                               Psi4 1.3.2 release

  ==> Input File <==

--------------------------------------------------------------------------
#psi4
#
memory 32 gb

molecule  {
0 1
  C       -2.6260010    -1.3181790     0.0001460
  C       -0.1785650    -0.3909870     0.0002200
  C       -1.6028750    -0.2271810    -0.0000330
  C        0.4037930     0.9065250    -0.0001510
  C       -1.8343220     1.1308500    -0.0000640
  C        2.0432510    -1.3188980     0.0000320
  C        2.5978260    -0.0201320    -0.0000760
  C        0.6688440    -1.5149670    -0.0002860
  C        1.7894520     1.1098640     0.0002960
  N       -0.6328400     1.8116850    -0.0001020
  H        2.7093930    -2.1785160    -0.0003580
  H        3.6789480     0.0978590     0.0002690
  H        0.2537760    -2.5213680    -0.0000660
  H        2.2194000     2.1097800     0.0002850
  H       -3.6376700    -0.9013790    -0.0001930
  H       -2.5281620    -1.9588410     0.8832840
  H       -2.7737798     1.6710796     0.2496390
  H       -0.5326520     2.8176750    -0.0001200
  H       -2.5278290    -1.9594320    -0.8825300
units angstrom
no_reorient  #important for SAPT in psi4, default
symmetry c1  #important for SAPT in psi4, default
}

set PROPERTIES_ORIGIN ["COM"]
properties('MP2/aug-cc-pvtz', properties = ['dipole'])
--------------------------------------------------------------------------

    Molecular point group: c1
  Charge       = 0
  Multiplicity = 1
  Basis Set: AUG-CC-PVTZ
    Blend: AUG-CC-PVTZ
  Basis Set: (AUG-CC-PVTZ AUX)
    Blend: AUG-CC-PVTZ-JKFIT

    Orbital Energies [Eh]
    ---------------------

    Doubly Occupied:

       1A    -15.599634     2A    -11.266292     3A    -11.265822
       4A    -11.232129     5A    -11.231205     6A    -11.230028
       7A    -11.223565     8A    -11.222222     9A    -11.221737
      10A    -11.221400    11A     -1.291616    12A     -1.127329
      13A     -1.072430    14A     -0.997644    15A     -0.985467
      16A     -0.930765    17A     -0.837608    18A     -0.803704
      19A     -0.755129    20A     -0.719430    21A     -0.659021
      22A     -0.642660    23A     -0.603827    24A     -0.593114
      25A     -0.593057    26A     -0.565650    27A     -0.551145
      28A     -0.542503    29A     -0.529342    30A     -0.497745
      31A     -0.476170    32A     -0.462813    33A     -0.374789
      34A     -0.298834    35A     -0.278114

  @DF-RHF Final Energy:  -400.63647125882090

   => Energetics <=

    Nuclear Repulsion Energy =            483.1476697195479346
    One-Electron Energy =               -1499.7604024216627749
    Two-Electron Energy =                 615.9762614432938790
    Total Energy =                       -400.6364712588209613
  Basis Set: (AUG-CC-PVTZ AUX)
    Blend: AUG-CC-PVTZ-RI
    Molecular point group: c1

    Geometry (in Angstrom), charge = 0, multiplicity = 1:

       Center              X                  Y                   Z               Mass
    ------------   -----------------  -----------------  -----------------  -----------------
         C           -2.649743369030    -1.339591913843    -0.001774659699    12.000000000000
         C           -0.202307369030    -0.412399913843    -0.001700659699    12.000000000000
         C           -1.626617369030    -0.248593913843    -0.001953659699    12.000000000000
         C            0.380050630970     0.885112086157    -0.002071659699    12.000000000000
         C           -1.858064369030     1.109437086157    -0.001984659699    12.000000000000
         C            2.019508630970    -1.340310913843    -0.001888659699    12.000000000000
         C            2.574083630970    -0.041544913843    -0.001996659699    12.000000000000
         C            0.645101630970    -1.536379913843    -0.002206659699    12.000000000000
         C            1.765709630970     1.088451086157    -0.001624659699    12.000000000000
         N           -0.656582369030     1.790272086157    -0.002022659699    14.003074004430
         H            2.685650630970    -2.199928913843    -0.002278659699     1.007825032230
         H            3.655205630970     0.076446086157    -0.001651659699     1.007825032230
         H            0.230033630970    -2.542780913843    -0.001986659699     1.007825032230
         H            2.195657630970     2.088367086157    -0.001635659699     1.007825032230
         H           -3.661412369030    -0.922791913843    -0.002113659699     1.007825032230
         H           -2.551904369030    -1.980253913843     0.881363340301     1.007825032230
         H           -2.797522169030     1.649666686157     0.247718340301     1.007825032230
         H           -0.556394369030     2.796262086157    -0.002040659699     1.007825032230
         H           -2.551571369030    -1.980844913843    -0.884450659699     1.007825032230

  Basis Set: AUG-CC-PVTZ
    Blend: AUG-CC-PVTZ
  Basis Set: (AUG-CC-PVTZ AUX)
    Blend: AUG-CC-PVTZ-JKFIT
	 Reference Energy          =    -400.6364712588209045 [Eh]
	 Singles Energy            =      -0.0000000000000000 [Eh]
	 Same-Spin Energy          =      -0.4519385480831956 [Eh]
	 Opposite-Spin Energy      =      -1.4047123624665709 [Eh]
	 Correlation Energy        =      -1.8566509105497666 [Eh]
	 Total Energy              =    -402.4931221693706789 [Eh]

	 ================> DF-SCS-MP2 Energies <==================
	-----------------------------------------------------------
	 SCS Same-Spin Scale       =       0.3333333333333333 [-]
	 SCS Opposite-Spin Scale   =       1.2000000000000000 [-]
	 SCS Same-Spin Energy      =      -0.1506461826943985 [Eh]
	 SCS Opposite-Spin Energy  =      -1.6856548349598850 [Eh]
	 SCS Correlation Energy    =      -1.8363010176542836 [Eh]
	 SCS Total Energy          =    -402.4727722764752116 [Eh]
	-----------------------------------------------------------

  Dipole Moment: [D]
     X:    -0.8961      Y:     1.7599      Z:     0.1947     Total:     1.9845

*** Psi4 exiting successfully. Buy a developer a beer!
