                               Psi4 1.3.2 release

  ==> Input File <==

--------------------------------------------------------------------------
#psi4
#
memory 32 gb

molecule  {
0 1
  C       -2.6260010    -1.3181790     0.0001460
  C       -0.1785650    -0.3909870     0.0002200
  C       -1.6028750    -0.2271810    -0.0000330
  C        0.4037930     0.9065250    -0.0001510
  C       -1.8343220     1.1308500    -0.0000640
  C        2.0432510    -1.3188980     0.0000320
  C        2.5978260    -0.0201320    -0.0000760
  C        0.6688440    -1.5149670    -0.0002860
  C        1.7894520     1.1098640     0.0002960
  N       -0.6328400     1.8116850    -0.0001020
  H        2.7093923    -2.1785291     0.0996420
  H        3.6789480     0.0978590     0.0002690
  H        0.2537760    -2.5213680    -0.0000660
  H        2.2194000     2.1097800     0.0002850
  H       -3.6376700    -0.9013790    -0.0001930
  H       -2.5281620    -1.9588410     0.8832840
  H       -2.7737480     1.6710560    -0.0003610
  H       -0.5326520     2.8176750    -0.0001200
  H       -2.5278290    -1.9594320    -0.8825300
units angstrom
no_reorient  #important for SAPT in psi4, default
symmetry c1  #important for SAPT in psi4, default
}

set PROPERTIES_ORIGIN ["COM"]
properties('MP2/aug-cc-pvtz', properties = ['dipole'])
--------------------------------------------------------------------------

    Molecular point group: c1
  Charge       = 0
  Multiplicity = 1
  Basis Set: AUG-CC-PVTZ
    Blend: AUG-CC-PVTZ
  Basis Set: (AUG-CC-PVTZ AUX)
    Blend: AUG-CC-PVTZ-JKFIT

    Orbital Energies [Eh]
    ---------------------

    Doubly Occupied:

       1A    -15.600008     2A    -11.265374     3A    -11.264582
       4A    -11.231889     5A    -11.230746     6A    -11.229521
       7A    -11.222774     8A    -11.221854     9A    -11.221450
      10A    -11.221391    11A     -1.291743    12A     -1.127018
      13A     -1.072168    14A     -0.997267    15A     -0.985695
      16A     -0.930985    17A     -0.838900    18A     -0.803847
      19A     -0.755746    20A     -0.720099    21A     -0.659855
      22A     -0.644131    23A     -0.603547    24A     -0.592728
      25A     -0.591898    26A     -0.569738    27A     -0.551430
      28A     -0.542274    29A     -0.529664    30A     -0.497592
      31A     -0.475814    32A     -0.462599    33A     -0.374588
      34A     -0.298622    35A     -0.277776

  @DF-RHF Final Energy:  -400.63958311240481

   => Energetics <=

    Nuclear Repulsion Energy =            483.2407303801048215
    One-Electron Energy =               -1499.9500013379370102
    Two-Electron Energy =                 616.0696878454273246
    Total Energy =                       -400.6395831124048073
  Basis Set: (AUG-CC-PVTZ AUX)
    Blend: AUG-CC-PVTZ-RI
    Molecular point group: c1

    Geometry (in Angstrom), charge = 0, multiplicity = 1:

       Center              X                  Y                   Z               Mass
    ------------   -----------------  -----------------  -----------------  -----------------
         C           -2.649743608158    -1.339591631656    -0.000621308674    12.000000000000
         C           -0.202307608158    -0.412399631656    -0.000547308674    12.000000000000
         C           -1.626617608158    -0.248593631656    -0.000800308674    12.000000000000
         C            0.380050391842     0.885112368344    -0.000918308674    12.000000000000
         C           -1.858064608158     1.109437368344    -0.000831308674    12.000000000000
         C            2.019508391842    -1.340310631656    -0.000735308674    12.000000000000
         C            2.574083391842    -0.041544631656    -0.000843308674    12.000000000000
         C            0.645101391842    -1.536379631656    -0.001053308674    12.000000000000
         C            1.765709391842     1.088451368344    -0.000471308674    12.000000000000
         N           -0.656582608158     1.790272368344    -0.000869308674    14.003074004430
         H            2.685649691842    -2.199941731656     0.098874691326     1.007825032230
         H            3.655205391842     0.076446368344    -0.000498308674     1.007825032230
         H            0.230033391842    -2.542780631656    -0.000833308674     1.007825032230
         H            2.195657391842     2.088367368344    -0.000482308674     1.007825032230
         H           -3.661412608158    -0.922791631656    -0.000960308674     1.007825032230
         H           -2.551904608158    -1.980253631656     0.882516691326     1.007825032230
         H           -2.797490608158     1.649643368344    -0.001128308674     1.007825032230
         H           -0.556394608158     2.796262368344    -0.000887308674     1.007825032230
         H           -2.551571608158    -1.980844631656    -0.883297308674     1.007825032230

  Basis Set: AUG-CC-PVTZ
    Blend: AUG-CC-PVTZ
  Basis Set: (AUG-CC-PVTZ AUX)
    Blend: AUG-CC-PVTZ-JKFIT
	 Reference Energy          =    -400.6395831124048073 [Eh]
	 Singles Energy            =      -0.0000000000000000 [Eh]
	 Same-Spin Energy          =      -0.4517185150592584 [Eh]
	 Opposite-Spin Energy      =      -1.4041741936160275 [Eh]
	 Correlation Energy        =      -1.8558927086752859 [Eh]
	 Total Energy              =    -402.4954758210801060 [Eh]

	 ================> DF-SCS-MP2 Energies <==================
	-----------------------------------------------------------
	 SCS Same-Spin Scale       =       0.3333333333333333 [-]
	 SCS Opposite-Spin Scale   =       1.2000000000000000 [-]
	 SCS Same-Spin Energy      =      -0.1505728383530861 [Eh]
	 SCS Opposite-Spin Energy  =      -1.6850090323392328 [Eh]
	 SCS Correlation Energy    =      -1.8355818706923190 [Eh]
	 SCS Total Energy          =    -402.4751649830971019 [Eh]
	-----------------------------------------------------------

  Dipole Moment: [D]
     X:    -0.9654      Y:     1.8126      Z:     0.0644     Total:     2.0547

*** Psi4 exiting successfully. Buy a developer a beer!
