                               Psi4 1.3.2 release

  ==> Input File <==

--------------------------------------------------------------------------
#psi4
#
memory 32 gb

molecule  {
0 1
  C       -2.6260010    -1.3181790     0.0001460
  C       -0.1785650    -0.3909870     0.0002200
  C       -1.6028750    -0.2271810    -0.0000330
  C        0.4037930     0.9065250    -0.0001510
  C       -1.8343220     1.1308500    -0.0000640
  C        2.0432510    -1.3188980     0.0000320
  C        2.5978260    -0.0201320    -0.0000760
  C        0.6688440    -1.5149670    -0.0002860
  C        1.7894520     1.1098640     0.0002960
  N       -0.6328400     1.8116850    -0.0001020
  H        2.7093919    -2.1785357     0.1496420
  H        3.6789480     0.0978590     0.0002690
  H        0.2537760    -2.5213680    -0.0000660
  H        2.2194000     2.1097800     0.0002850
  H       -3.6376700    -0.9013790    -0.0001930
  H       -2.5281620    -1.9588410     0.8832840
  H       -2.7737480     1.6710560    -0.0003610
  H       -0.5326520     2.8176750    -0.0001200
  H       -2.5278290    -1.9594320    -0.8825300
units angstrom
no_reorient  #important for SAPT in psi4, default
symmetry c1  #important for SAPT in psi4, default
}

set PROPERTIES_ORIGIN ["COM"]
properties('MP2/aug-cc-pvtz', properties = ['dipole'])
--------------------------------------------------------------------------

    Molecular point group: c1
  Charge       = 0
  Multiplicity = 1
  Basis Set: AUG-CC-PVTZ
    Blend: AUG-CC-PVTZ
  Basis Set: (AUG-CC-PVTZ AUX)
    Blend: AUG-CC-PVTZ-JKFIT

    Orbital Energies [Eh]
    ---------------------

    Doubly Occupied:

       1A    -15.600093     2A    -11.265499     3A    -11.264631
       4A    -11.231931     5A    -11.230876     6A    -11.229609
       7A    -11.222838     8A    -11.221957     9A    -11.221882
      10A    -11.221445    11A     -1.291824    12A     -1.127051
      13A     -1.072228    14A     -0.997212    15A     -0.985689
      16A     -0.931040    17A     -0.838796    18A     -0.803744
      19A     -0.755678    20A     -0.720161    21A     -0.659741
      22A     -0.643529    23A     -0.603600    24A     -0.592762
      25A     -0.591843    26A     -0.569773    27A     -0.551492
      28A     -0.542241    29A     -0.529616    30A     -0.497523
      31A     -0.475889    32A     -0.462035    33A     -0.374651
      34A     -0.298605    35A     -0.277832

  @DF-RHF Final Energy:  -400.63879204101511

   => Energetics <=

    Nuclear Repulsion Energy =            483.2192049846963187
    One-Electron Energy =               -1499.9053635832576674
    Two-Electron Energy =                 616.0473665575462974
    Total Energy =                       -400.6387920410151082
  Basis Set: (AUG-CC-PVTZ AUX)
    Blend: AUG-CC-PVTZ-RI
    Molecular point group: c1

    Geometry (in Angstrom), charge = 0, multiplicity = 1:

       Center              X                  Y                   Z               Mass
    ------------   -----------------  -----------------  -----------------  -----------------
         C           -2.649743605082    -1.339591580909    -0.001005759016    12.000000000000
         C           -0.202307605082    -0.412399580909    -0.000931759016    12.000000000000
         C           -1.626617605082    -0.248593580909    -0.001184759016    12.000000000000
         C            0.380050394918     0.885112419091    -0.001302759016    12.000000000000
         C           -1.858064605082     1.109437419091    -0.001215759016    12.000000000000
         C            2.019508394918    -1.340310580909    -0.001119759016    12.000000000000
         C            2.574083394918    -0.041544580909    -0.001227759016    12.000000000000
         C            0.645101394918    -1.536379580909    -0.001437759016    12.000000000000
         C            1.765709394918     1.088451419091    -0.000855759016    12.000000000000
         N           -0.656582605082     1.790272419091    -0.001253759016    14.003074004430
         H            2.685649294918    -2.199948280909     0.148490240984     1.007825032230
         H            3.655205394918     0.076446419091    -0.000882759016     1.007825032230
         H            0.230033394918    -2.542780580909    -0.001217759016     1.007825032230
         H            2.195657394918     2.088367419091    -0.000866759016     1.007825032230
         H           -3.661412605082    -0.922791580909    -0.001344759016     1.007825032230
         H           -2.551904605082    -1.980253580909     0.882132240984     1.007825032230
         H           -2.797490605082     1.649643419091    -0.001512759016     1.007825032230
         H           -0.556394605082     2.796262419091    -0.001271759016     1.007825032230
         H           -2.551571605082    -1.980844580909    -0.883681759016     1.007825032230

  Basis Set: AUG-CC-PVTZ
    Blend: AUG-CC-PVTZ
  Basis Set: (AUG-CC-PVTZ AUX)
    Blend: AUG-CC-PVTZ-JKFIT
	 Reference Energy          =    -400.6387920410151082 [Eh]
	 Singles Energy            =      -0.0000000000000000 [Eh]
	 Same-Spin Energy          =      -0.4517563468120708 [Eh]
	 Opposite-Spin Energy      =      -1.4042526053616817 [Eh]
	 Correlation Energy        =      -1.8560089521737524 [Eh]
	 Total Energy              =    -402.4948009931888464 [Eh]

	 ================> DF-SCS-MP2 Energies <==================
	-----------------------------------------------------------
	 SCS Same-Spin Scale       =       0.3333333333333333 [-]
	 SCS Opposite-Spin Scale   =       1.2000000000000000 [-]
	 SCS Same-Spin Energy      =      -0.1505854489373569 [Eh]
	 SCS Opposite-Spin Energy  =      -1.6851031264340179 [Eh]
	 SCS Correlation Energy    =      -1.8356885753713748 [Eh]
	 SCS Total Energy          =    -402.4744806163864723 [Eh]
	-----------------------------------------------------------

  Dipole Moment: [D]
     X:    -0.9750      Y:     1.8224      Z:     0.0963     Total:     2.0691

*** Psi4 exiting successfully. Buy a developer a beer!
