                               Psi4 1.3.2 release

  ==> Input File <==

--------------------------------------------------------------------------
#psi4
#
memory 32 gb

molecule  {
0 1
  C       -2.6260010    -1.3181790     0.0001460
  C       -0.1785650    -0.3909870     0.0002200
  C       -1.6028750    -0.2271810    -0.0000330
  C        0.4037930     0.9065250    -0.0001510
  C       -1.8343220     1.1308500    -0.0000640
  C        2.0432510    -1.3188980     0.0000320
  C        2.5978260    -0.0201320    -0.0000760
  C        0.6688440    -1.5149670    -0.0002860
  C        1.7894520     1.1098640     0.0002960
  N       -0.6328400     1.8116850    -0.0001020
  H        2.7093930    -2.1785160    -0.0003580
  H        3.6789480     0.0978590     0.0002690
  H        0.2537760    -2.5213680    -0.0000660
  H        2.2194000     2.1097800     0.0002850
  H       -3.6376700    -0.9013790    -0.0001930
  H       -2.5281620    -1.9588410     0.8832840
  H       -2.7737480     1.6710560    -0.0003610
  H       -0.5326540     2.8176749    -0.0501200
  H       -2.5278290    -1.9594320    -0.8825300
units angstrom
no_reorient  #important for SAPT in psi4, default
symmetry c1  #important for SAPT in psi4, default
}

set PROPERTIES_ORIGIN ["COM"]
properties('MP2/aug-cc-pvtz', properties = ['dipole'])
--------------------------------------------------------------------------

    Molecular point group: c1
  Charge       = 0
  Multiplicity = 1
  Basis Set: AUG-CC-PVTZ
    Blend: AUG-CC-PVTZ
  Basis Set: (AUG-CC-PVTZ AUX)
    Blend: AUG-CC-PVTZ-JKFIT

    Orbital Energies [Eh]
    ---------------------

    Doubly Occupied:

       1A    -15.599990     2A    -11.265260     3A    -11.264522
       4A    -11.231861     5A    -11.230649     6A    -11.229458
       7A    -11.222746     8A    -11.221826     9A    -11.221372
      10A    -11.221074    11A     -1.291599    12A     -1.126974
      13A     -1.072084    14A     -0.997298    15A     -0.985695
      16A     -0.930870    17A     -0.838962    18A     -0.803837
      19A     -0.755767    20A     -0.719859    21A     -0.659951
      22A     -0.644616    23A     -0.603566    24A     -0.593431
      25A     -0.591097    26A     -0.569707    27A     -0.551383
      28A     -0.542255    29A     -0.529699    30A     -0.497648
      31A     -0.475769    32A     -0.463033    33A     -0.374545
      34A     -0.298659    35A     -0.277751

  @DF-RHF Final Energy:  -400.64011636360948

   => Energetics <=

    Nuclear Repulsion Energy =            483.2521183190810916
    One-Electron Energy =               -1499.9748423635571726
    Two-Electron Energy =                 616.0826076808666585
    Total Energy =                       -400.6401163636094225
  Basis Set: (AUG-CC-PVTZ AUX)
    Blend: AUG-CC-PVTZ-RI
    Molecular point group: c1

    Geometry (in Angstrom), charge = 0, multiplicity = 1:

       Center              X                  Y                   Z               Mass
    ------------   -----------------  -----------------  -----------------  -----------------
         C           -2.649743598162    -1.339591731613     0.000532042352    12.000000000000
         C           -0.202307598162    -0.412399731613     0.000606042352    12.000000000000
         C           -1.626617598162    -0.248593731613     0.000353042352    12.000000000000
         C            0.380050401838     0.885112268387     0.000235042352    12.000000000000
         C           -1.858064598162     1.109437268387     0.000322042352    12.000000000000
         C            2.019508401838    -1.340310731613     0.000418042352    12.000000000000
         C            2.574083401838    -0.041544731613     0.000310042352    12.000000000000
         C            0.645101401838    -1.536379731613     0.000100042352    12.000000000000
         C            1.765709401838     1.088451268387     0.000682042352    12.000000000000
         N           -0.656582598162     1.790272268387     0.000284042352    14.003074004430
         H            2.685650401838    -2.199928731613     0.000028042352     1.007825032230
         H            3.655205401838     0.076446268387     0.000655042352     1.007825032230
         H            0.230033401838    -2.542780731613     0.000320042352     1.007825032230
         H            2.195657401838     2.088367268387     0.000671042352     1.007825032230
         H           -3.661412598162    -0.922791731613     0.000193042352     1.007825032230
         H           -2.551904598162    -1.980253731613     0.883670042352     1.007825032230
         H           -2.797490598162     1.649643268387     0.000025042352     1.007825032230
         H           -0.556396598162     2.796262168387    -0.049733957648     1.007825032230
         H           -2.551571598162    -1.980844731613    -0.882143957648     1.007825032230

  Basis Set: AUG-CC-PVTZ
    Blend: AUG-CC-PVTZ
  Basis Set: (AUG-CC-PVTZ AUX)
    Blend: AUG-CC-PVTZ-JKFIT
	 Reference Energy          =    -400.6401163636094793 [Eh]
	 Singles Energy            =      -0.0000000000000000 [Eh]
	 Same-Spin Energy          =      -0.4516945643712522 [Eh]
	 Opposite-Spin Energy      =      -1.4041432353682564 [Eh]
	 Correlation Energy        =      -1.8558377997395086 [Eh]
	 Total Energy              =    -402.4959541633489835 [Eh]

	 ================> DF-SCS-MP2 Energies <==================
	-----------------------------------------------------------
	 SCS Same-Spin Scale       =       0.3333333333333333 [-]
	 SCS Opposite-Spin Scale   =       1.2000000000000000 [-]
	 SCS Same-Spin Energy      =      -0.1505648547904174 [Eh]
	 SCS Opposite-Spin Energy  =      -1.6849718824419075 [Eh]
	 SCS Correlation Energy    =      -1.8355367372323248 [Eh]
	 SCS Total Energy          =    -402.4756531008417824 [Eh]
	-----------------------------------------------------------

  Dipole Moment: [D]
     X:    -0.9573      Y:     1.8021      Z:    -0.0710     Total:     2.0418

*** Psi4 exiting successfully. Buy a developer a beer!
