                               Psi4 1.3.2 release

  ==> Input File <==

--------------------------------------------------------------------------
#psi4
#
memory 32 gb

molecule  {
0 1
  C       -2.6260010    -1.3181790     0.0001460
  C       -0.1785650    -0.3909870     0.0002200
  C       -1.6028750    -0.2271810    -0.0000330
  C        0.4037930     0.9065250    -0.0001510
  C       -1.8343220     1.1308500    -0.0000640
  C        2.0432510    -1.3188980     0.0000320
  C        2.5978260    -0.0201320    -0.0000760
  C        0.6688185    -1.5149531    -0.3002860
  C        1.7894520     1.1098640     0.0002960
  N       -0.6328400     1.8116850    -0.0001020
  H        2.7093930    -2.1785160    -0.0003580
  H        3.6789480     0.0978590     0.0002690
  H        0.2537760    -2.5213680    -0.0000660
  H        2.2194000     2.1097800     0.0002850
  H       -3.6376700    -0.9013790    -0.0001930
  H       -2.5281620    -1.9588410     0.8832840
  H       -2.7737480     1.6710560    -0.0003610
  H       -0.5326520     2.8176750    -0.0001200
  H       -2.5278290    -1.9594320    -0.8825300
units angstrom
no_reorient  #important for SAPT in psi4, default
symmetry c1  #important for SAPT in psi4, default
}

set PROPERTIES_ORIGIN ["COM"]
properties('MP2/aug-cc-pvtz', properties = ['dipole'])
--------------------------------------------------------------------------

    Molecular point group: c1
  Charge       = 0
  Multiplicity = 1
  Basis Set: AUG-CC-PVTZ
    Blend: AUG-CC-PVTZ
  Basis Set: (AUG-CC-PVTZ AUX)
    Blend: AUG-CC-PVTZ-JKFIT

    Orbital Energies [Eh]
    ---------------------

    Doubly Occupied:

       1A    -15.600916     2A    -11.266721     3A    -11.265014
       4A    -11.236852     5A    -11.236581     6A    -11.229846
       7A    -11.228729     8A    -11.227302     9A    -11.221951
      10A    -11.220843    11A     -1.292594    12A     -1.123981
      13A     -1.072278    14A     -0.993619    15A     -0.985052
      16A     -0.930596    17A     -0.838028    18A     -0.800543
      19A     -0.754277    20A     -0.717891    21A     -0.659390
      22A     -0.643376    23A     -0.600730    24A     -0.594495
      25A     -0.581596    26A     -0.567186    27A     -0.551114
      28A     -0.541666    29A     -0.527780    30A     -0.492834
      31A     -0.475246    32A     -0.456037    33A     -0.373290
      34A     -0.296890    35A     -0.279297

  @DF-RHF Final Energy:  -400.61169359057936

   => Energetics <=

    Nuclear Repulsion Energy =            482.2492087988832168
    One-Electron Energy =               -1497.9527191445688459
    Two-Electron Energy =                 615.0918167551061515
    Total Energy =                       -400.6116935905794207
  Basis Set: (AUG-CC-PVTZ AUX)
    Blend: AUG-CC-PVTZ-RI
    Molecular point group: c1

    Geometry (in Angstrom), charge = 0, multiplicity = 1:

       Center              X                  Y                   Z               Mass
    ------------   -----------------  -----------------  -----------------  -----------------
         C           -2.649741278972    -1.339593004951     0.027613098152    12.000000000000
         C           -0.202305278972    -0.412401004951     0.027687098152    12.000000000000
         C           -1.626615278972    -0.248595004951     0.027434098152    12.000000000000
         C            0.380052721028     0.885110995049     0.027316098152    12.000000000000
         C           -1.858062278972     1.109435995049     0.027403098152    12.000000000000
         C            2.019510721028    -1.340312004951     0.027499098152    12.000000000000
         C            2.574085721028    -0.041546004951     0.027391098152    12.000000000000
         C            0.645078221028    -1.536367104951    -0.272818901848    12.000000000000
         C            1.765711721028     1.088449995049     0.027763098152    12.000000000000
         N           -0.656580278972     1.790270995049     0.027365098152    14.003074004430
         H            2.685652721028    -2.199930004951     0.027109098152     1.007825032230
         H            3.655207721028     0.076444995049     0.027736098152     1.007825032230
         H            0.230035721028    -2.542782004951     0.027401098152     1.007825032230
         H            2.195659721028     2.088365995049     0.027752098152     1.007825032230
         H           -3.661410278972    -0.922793004951     0.027274098152     1.007825032230
         H           -2.551902278972    -1.980255004951     0.910751098152     1.007825032230
         H           -2.797488278972     1.649641995049     0.027106098152     1.007825032230
         H           -0.556392278972     2.796260995049     0.027347098152     1.007825032230
         H           -2.551569278972    -1.980846004951    -0.855062901848     1.007825032230

  Basis Set: AUG-CC-PVTZ
    Blend: AUG-CC-PVTZ
  Basis Set: (AUG-CC-PVTZ AUX)
    Blend: AUG-CC-PVTZ-JKFIT
	 Reference Energy          =    -400.6116935905793639 [Eh]
	 Singles Energy            =      -0.0000000000000000 [Eh]
	 Same-Spin Energy          =      -0.4533126397382938 [Eh]
	 Opposite-Spin Energy      =      -1.4083515266559963 [Eh]
	 Correlation Energy        =      -1.8616641663942901 [Eh]
	 Total Energy              =    -402.4733577569736553 [Eh]

	 ================> DF-SCS-MP2 Energies <==================
	-----------------------------------------------------------
	 SCS Same-Spin Scale       =       0.3333333333333333 [-]
	 SCS Opposite-Spin Scale   =       1.2000000000000000 [-]
	 SCS Same-Spin Energy      =      -0.1511042132460979 [Eh]
	 SCS Opposite-Spin Energy  =      -1.6900218319871956 [Eh]
	 SCS Correlation Energy    =      -1.8411260452332936 [Eh]
	 SCS Total Energy          =    -402.4528196358126593 [Eh]
	-----------------------------------------------------------

  Dipole Moment: [D]
     X:    -0.8788      Y:     2.0138      Z:     0.2122     Total:     2.2074

*** Psi4 exiting successfully. Buy a developer a beer!
