                               Psi4 1.3.2 release

  ==> Input File <==

--------------------------------------------------------------------------
#psi4
#
memory 32 gb

molecule  {
0 1
  C       -2.6260010    -1.3181790     0.0001460
  C       -0.1785650    -0.3909870     0.0002200
  C       -1.6028750    -0.2271810    -0.0000330
  C        0.4037930     0.9065250    -0.0001510
  C       -1.8343220     1.1308500    -0.0000640
  C        2.0432510    -1.3188980     0.0000320
  C        2.5978260    -0.0201320    -0.0000760
  C        0.6688440    -1.5149670    -0.0002860
  C        1.7894520     1.1098640     0.0002960
  N       -0.6328400     1.8116850    -0.0001020
  H        2.7093930    -2.1785160    -0.0003580
  H        3.6789550     0.0978760    -0.1497310
  H        0.2537760    -2.5213680    -0.0000660
  H        2.2194000     2.1097800     0.0002850
  H       -3.6376700    -0.9013790    -0.0001930
  H       -2.5281620    -1.9588410     0.8832840
  H       -2.7737480     1.6710560    -0.0003610
  H       -0.5326520     2.8176750    -0.0001200
  H       -2.5278290    -1.9594320    -0.8825300
units angstrom
no_reorient  #important for SAPT in psi4, default
symmetry c1  #important for SAPT in psi4, default
}

set PROPERTIES_ORIGIN ["COM"]
properties('MP2/aug-cc-pvtz', properties = ['dipole'])
--------------------------------------------------------------------------

    Molecular point group: c1
  Charge       = 0
  Multiplicity = 1
  Basis Set: AUG-CC-PVTZ
    Blend: AUG-CC-PVTZ
  Basis Set: (AUG-CC-PVTZ AUX)
    Blend: AUG-CC-PVTZ-JKFIT

    Orbital Energies [Eh]
    ---------------------

    Doubly Occupied:

       1A    -15.600049     2A    -11.265351     3A    -11.264719
       4A    -11.232123     5A    -11.230687     6A    -11.230249
       7A    -11.222862     8A    -11.221961     9A    -11.221457
      10A    -11.221211    11A     -1.291797    12A     -1.127029
      13A     -1.072195    14A     -0.997402    15A     -0.985519
      16A     -0.930984    17A     -0.838928    18A     -0.803442
      19A     -0.755918    20A     -0.719904    21A     -0.659383
      22A     -0.644179    23A     -0.603467    24A     -0.592804
      25A     -0.591981    26A     -0.569750    27A     -0.551529
      28A     -0.542214    29A     -0.528938    30A     -0.497731
      31A     -0.476166    32A     -0.462024    33A     -0.374523
      34A     -0.298696    35A     -0.277780

  @DF-RHF Final Energy:  -400.63877471949053

   => Energetics <=

    Nuclear Repulsion Energy =            483.2192980408521521
    One-Electron Energy =               -1499.9062387632527589
    Two-Electron Energy =                 616.0481660029099658
    Total Energy =                       -400.6387747194905842
  Basis Set: (AUG-CC-PVTZ AUX)
    Blend: AUG-CC-PVTZ-RI
    Molecular point group: c1

    Geometry (in Angstrom), charge = 0, multiplicity = 1:

       Center              X                  Y                   Z               Mass
    ------------   -----------------  -----------------  -----------------  -----------------
         C           -2.649743667363    -1.339591863095     0.001300943035    12.000000000000
         C           -0.202307667363    -0.412399863095     0.001374943035    12.000000000000
         C           -1.626617667363    -0.248593863095     0.001121943035    12.000000000000
         C            0.380050332637     0.885112136905     0.001003943035    12.000000000000
         C           -1.858064667363     1.109437136905     0.001090943035    12.000000000000
         C            2.019508332637    -1.340310863095     0.001186943035    12.000000000000
         C            2.574083332637    -0.041544863095     0.001078943035    12.000000000000
         C            0.645101332637    -1.536379863095     0.000868943035    12.000000000000
         C            1.765709332637     1.088451136905     0.001450943035    12.000000000000
         N           -0.656582667363     1.790272136905     0.001052943035    14.003074004430
         H            2.685650332637    -2.199928863095     0.000796943035     1.007825032230
         H            3.655212332637     0.076463136905    -0.148576056965     1.007825032230
         H            0.230033332637    -2.542780863095     0.001088943035     1.007825032230
         H            2.195657332637     2.088367136905     0.001439943035     1.007825032230
         H           -3.661412667363    -0.922791863095     0.000961943035     1.007825032230
         H           -2.551904667363    -1.980253863095     0.884438943035     1.007825032230
         H           -2.797490667363     1.649643136905     0.000793943035     1.007825032230
         H           -0.556394667363     2.796262136905     0.001034943035     1.007825032230
         H           -2.551571667363    -1.980844863095    -0.881375056965     1.007825032230

  Basis Set: AUG-CC-PVTZ
    Blend: AUG-CC-PVTZ
  Basis Set: (AUG-CC-PVTZ AUX)
    Blend: AUG-CC-PVTZ-JKFIT
	 Reference Energy          =    -400.6387747194905273 [Eh]
	 Singles Energy            =      -0.0000000000000000 [Eh]
	 Same-Spin Energy          =      -0.4517755399669966 [Eh]
	 Opposite-Spin Energy      =      -1.4042890647101118 [Eh]
	 Correlation Energy        =      -1.8560646046771083 [Eh]
	 Total Energy              =    -402.4948393241676285 [Eh]

	 ================> DF-SCS-MP2 Energies <==================
	-----------------------------------------------------------
	 SCS Same-Spin Scale       =       0.3333333333333333 [-]
	 SCS Opposite-Spin Scale   =       1.2000000000000000 [-]
	 SCS Same-Spin Energy      =      -0.1505918466556655 [Eh]
	 SCS Opposite-Spin Energy  =      -1.6851468776521341 [Eh]
	 SCS Correlation Energy    =      -1.8357387243077996 [Eh]
	 SCS Total Energy          =    -402.4745134437983438 [Eh]
	-----------------------------------------------------------

  Dipole Moment: [D]
     X:    -0.9826      Y:     1.8032      Z:    -0.0981     Total:     2.0559

*** Psi4 exiting successfully. Buy a developer a beer!
