                               Psi4 1.3.2 release

  ==> Input File <==

--------------------------------------------------------------------------
#psi4
#
memory 32 gb

molecule  {
0 1
  C       -2.6260010    -1.3181790     0.0001460
  C       -0.1785650    -0.3909870     0.0002200
  C       -1.6028750    -0.2271810    -0.0000330
  C        0.4037930     0.9065250    -0.0001510
  C       -1.8343434     1.1308827     0.2999360
  C        2.0432510    -1.3188980     0.0000320
  C        2.5978260    -0.0201320    -0.0000760
  C        0.6688440    -1.5149670    -0.0002860
  C        1.7894520     1.1098640     0.0002960
  N       -0.6328400     1.8116850    -0.0001020
  H        2.7093930    -2.1785160    -0.0003580
  H        3.6789480     0.0978590     0.0002690
  H        0.2537760    -2.5213680    -0.0000660
  H        2.2194000     2.1097800     0.0002850
  H       -3.6376700    -0.9013790    -0.0001930
  H       -2.5281620    -1.9588410     0.8832840
  H       -2.7737480     1.6710560    -0.0003610
  H       -0.5326520     2.8176750    -0.0001200
  H       -2.5278290    -1.9594320    -0.8825300
units angstrom
no_reorient  #important for SAPT in psi4, default
symmetry c1  #important for SAPT in psi4, default
}

set PROPERTIES_ORIGIN ["COM"]
properties('MP2/aug-cc-pvtz', properties = ['dipole'])
--------------------------------------------------------------------------

    Molecular point group: c1
  Charge       = 0
  Multiplicity = 1
  Basis Set: AUG-CC-PVTZ
    Blend: AUG-CC-PVTZ
  Basis Set: (AUG-CC-PVTZ AUX)
    Blend: AUG-CC-PVTZ-JKFIT

    Orbital Energies [Eh]
    ---------------------

    Doubly Occupied:

       1A    -15.596583     2A    -11.268609     3A    -11.265954
       4A    -11.235242     5A    -11.234978     6A    -11.234543
       7A    -11.232589     8A    -11.224250     9A    -11.223634
      10A    -11.223327    11A     -1.282233    12A     -1.128249
      13A     -1.071901    14A     -0.998760    15A     -0.985666
      16A     -0.928994    17A     -0.836822    18A     -0.804085
      19A     -0.752256    20A     -0.715881    21A     -0.653500
      22A     -0.640176    23A     -0.604453    24A     -0.595664
      25A     -0.590511    26A     -0.559524    27A     -0.551933
      28A     -0.539475    29A     -0.528184    30A     -0.497077
      31A     -0.478654    32A     -0.462577    33A     -0.374224
      34A     -0.299623    35A     -0.279988

  @DF-RHF Final Energy:  -400.61428685783426

   => Energetics <=

    Nuclear Repulsion Energy =            482.1824202745647199
    One-Electron Energy =               -1497.7931764841382574
    Two-Electron Energy =                 614.9964693517392789
    Total Energy =                       -400.6142868578342586
  Basis Set: (AUG-CC-PVTZ AUX)
    Blend: AUG-CC-PVTZ-RI
    Molecular point group: c1

    Geometry (in Angstrom), charge = 0, multiplicity = 1:

       Center              X                  Y                   Z               Mass
    ------------   -----------------  -----------------  -----------------  -----------------
         C           -2.649741654334    -1.339594726122    -0.027317914133    12.000000000000
         C           -0.202305654334    -0.412402726122    -0.027243914133    12.000000000000
         C           -1.626615654334    -0.248596726122    -0.027496914133    12.000000000000
         C            0.380052345666     0.885109273878    -0.027614914133    12.000000000000
         C           -1.858084054334     1.109466973878     0.272472085867    12.000000000000
         C            2.019510345666    -1.340313726122    -0.027431914133    12.000000000000
         C            2.574085345666    -0.041547726122    -0.027539914133    12.000000000000
         C            0.645103345666    -1.536382726122    -0.027749914133    12.000000000000
         C            1.765711345666     1.088448273878    -0.027167914133    12.000000000000
         N           -0.656580654334     1.790269273878    -0.027565914133    14.003074004430
         H            2.685652345666    -2.199931726122    -0.027821914133     1.007825032230
         H            3.655207345666     0.076443273878    -0.027194914133     1.007825032230
         H            0.230035345666    -2.542783726122    -0.027529914133     1.007825032230
         H            2.195659345666     2.088364273878    -0.027178914133     1.007825032230
         H           -3.661410654334    -0.922794726122    -0.027656914133     1.007825032230
         H           -2.551902654334    -1.980256726122     0.855820085867     1.007825032230
         H           -2.797488654334     1.649640273878    -0.027824914133     1.007825032230
         H           -0.556392654334     2.796259273878    -0.027583914133     1.007825032230
         H           -2.551569654334    -1.980847726122    -0.909993914133     1.007825032230

  Basis Set: AUG-CC-PVTZ
    Blend: AUG-CC-PVTZ
  Basis Set: (AUG-CC-PVTZ AUX)
    Blend: AUG-CC-PVTZ-JKFIT
	 Reference Energy          =    -400.6142868578342586 [Eh]
	 Singles Energy            =      -0.0000000000000000 [Eh]
	 Same-Spin Energy          =      -0.4531532906094094 [Eh]
	 Opposite-Spin Energy      =      -1.4084732217442766 [Eh]
	 Correlation Energy        =      -1.8616265123536859 [Eh]
	 Total Energy              =    -402.4759133701879250 [Eh]

	 ================> DF-SCS-MP2 Energies <==================
	-----------------------------------------------------------
	 SCS Same-Spin Scale       =       0.3333333333333333 [-]
	 SCS Opposite-Spin Scale   =       1.2000000000000000 [-]
	 SCS Same-Spin Energy      =      -0.1510510968698031 [Eh]
	 SCS Opposite-Spin Energy  =      -1.6901678660931319 [Eh]
	 SCS Correlation Energy    =      -1.8412189629629350 [Eh]
	 SCS Total Energy          =    -402.4555058207972138 [Eh]
	-----------------------------------------------------------

  Dipole Moment: [D]
     X:    -0.6692      Y:     1.5136      Z:    -0.2180     Total:     1.6692

*** Psi4 exiting successfully. Buy a developer a beer!
