                               Psi4 1.3.2 release

  ==> Input File <==

--------------------------------------------------------------------------
#psi4
#
memory 32 gb

molecule  {
0 1
  C       -2.6260010    -1.3181790     0.0001460
  C       -0.1785650    -0.3909870     0.0002200
  C       -1.6028750    -0.2271810    -0.0000330
  C        0.4037930     0.9065250    -0.0001510
  C       -1.8343220     1.1308500    -0.0000640
  C        2.0432510    -1.3188980     0.0000320
  C        2.5978260    -0.0201320    -0.0000760
  C        0.6688440    -1.5149670    -0.0002860
  C        1.7894520     1.1098640     0.0002960
  N       -0.6328400     1.8116850    -0.0001020
  H        2.7093930    -2.1785160    -0.0003580
  H        3.6789480     0.0978590     0.0002690
  H        0.2537760    -2.5213680    -0.0000660
  H        2.2194000     2.1097800     0.0002850
  H       -3.6376700    -0.9013790    -0.0001930
  H       -2.5281620    -1.9588410     0.8832840
  H       -2.7737607     1.6710654     0.0996390
  H       -0.5326520     2.8176750    -0.0001200
  H       -2.5278290    -1.9594320    -0.8825300
units angstrom
no_reorient  #important for SAPT in psi4, default
symmetry c1  #important for SAPT in psi4, default
}

set PROPERTIES_ORIGIN ["COM"]
properties('MP2/aug-cc-pvtz', properties = ['dipole'])
--------------------------------------------------------------------------

    Molecular point group: c1
  Charge       = 0
  Multiplicity = 1
  Basis Set: AUG-CC-PVTZ
    Blend: AUG-CC-PVTZ
  Basis Set: (AUG-CC-PVTZ AUX)
    Blend: AUG-CC-PVTZ-JKFIT

    Orbital Energies [Eh]
    ---------------------

    Doubly Occupied:

       1A    -15.599888     2A    -11.265364     3A    -11.264826
       4A    -11.231899     5A    -11.230734     6A    -11.229546
       7A    -11.222849     8A    -11.221876     9A    -11.221428
      10A    -11.221113    11A     -1.291667    12A     -1.127047
      13A     -1.072170    14A     -0.997367    15A     -0.985659
      16A     -0.930910    17A     -0.838748    18A     -0.803892
      19A     -0.755687    20A     -0.719943    21A     -0.659781
      22A     -0.644310    23A     -0.603557    24A     -0.592759
      25A     -0.592158    26A     -0.569013    27A     -0.551352
      28A     -0.542340    29A     -0.529656    30A     -0.497659
      31A     -0.475823    32A     -0.463017    33A     -0.374578
      34A     -0.298668    35A     -0.277792

  @DF-RHF Final Energy:  -400.63964826253948

   => Energetics <=

    Nuclear Repulsion Energy =            483.2400080895171754
    One-Electron Energy =               -1499.9491625442615259
    Two-Electron Energy =                 616.0695061922048126
    Total Energy =                       -400.6396482625394810
  Basis Set: (AUG-CC-PVTZ AUX)
    Blend: AUG-CC-PVTZ-RI
    Molecular point group: c1

    Geometry (in Angstrom), charge = 0, multiplicity = 1:

       Center              X                  Y                   Z               Mass
    ------------   -----------------  -----------------  -----------------  -----------------
         C           -2.649743515890    -1.339591804659    -0.000621308674    12.000000000000
         C           -0.202307515890    -0.412399804659    -0.000547308674    12.000000000000
         C           -1.626617515890    -0.248593804659    -0.000800308674    12.000000000000
         C            0.380050484110     0.885112195341    -0.000918308674    12.000000000000
         C           -1.858064515890     1.109437195341    -0.000831308674    12.000000000000
         C            2.019508484110    -1.340310804659    -0.000735308674    12.000000000000
         C            2.574083484110    -0.041544804659    -0.000843308674    12.000000000000
         C            0.645101484110    -1.536379804659    -0.001053308674    12.000000000000
         C            1.765709484110     1.088451195341    -0.000471308674    12.000000000000
         N           -0.656582515890     1.790272195341    -0.000869308674    14.003074004430
         H            2.685650484110    -2.199928804659    -0.001125308674     1.007825032230
         H            3.655205484110     0.076446195341    -0.000498308674     1.007825032230
         H            0.230033484110    -2.542780804659    -0.000833308674     1.007825032230
         H            2.195657484110     2.088367195341    -0.000482308674     1.007825032230
         H           -3.661412515890    -0.922791804659    -0.000960308674     1.007825032230
         H           -2.551904515890    -1.980253804659     0.882516691326     1.007825032230
         H           -2.797503215890     1.649652595341     0.098871691326     1.007825032230
         H           -0.556394515890     2.796262195341    -0.000887308674     1.007825032230
         H           -2.551571515890    -1.980844804659    -0.883297308674     1.007825032230

  Basis Set: AUG-CC-PVTZ
    Blend: AUG-CC-PVTZ
  Basis Set: (AUG-CC-PVTZ AUX)
    Blend: AUG-CC-PVTZ-JKFIT
	 Reference Energy          =    -400.6396482625394810 [Eh]
	 Singles Energy            =      -0.0000000000000000 [Eh]
	 Same-Spin Energy          =      -0.4517289848913632 [Eh]
	 Opposite-Spin Energy      =      -1.4042153260581252 [Eh]
	 Correlation Energy        =      -1.8559443109494884 [Eh]
	 Total Energy              =    -402.4955925734889775 [Eh]

	 ================> DF-SCS-MP2 Energies <==================
	-----------------------------------------------------------
	 SCS Same-Spin Scale       =       0.3333333333333333 [-]
	 SCS Opposite-Spin Scale   =       1.2000000000000000 [-]
	 SCS Same-Spin Energy      =      -0.1505763282971211 [Eh]
	 SCS Opposite-Spin Energy  =      -1.6850583912697501 [Eh]
	 SCS Correlation Energy    =      -1.8356347195668712 [Eh]
	 SCS Total Energy          =    -402.4752829821063642 [Eh]
	-----------------------------------------------------------

  Dipole Moment: [D]
     X:    -0.9476      Y:     1.7974      Z:     0.0793     Total:     2.0335

*** Psi4 exiting successfully. Buy a developer a beer!
