                               Psi4 1.3.2 release

  ==> Input File <==

--------------------------------------------------------------------------
#psi4
#
memory 32 gb

molecule  {
0 1
  C       -2.6260010    -1.3181790     0.0001460
  C       -0.1785650    -0.3909870     0.0002200
  C       -1.6028750    -0.2271810    -0.0000330
  C        0.4037930     0.9065250    -0.0001510
  C       -1.8343220     1.1308500    -0.0000640
  C        2.0432510    -1.3188980     0.0000320
  C        2.5978260    -0.0201320    -0.0000760
  C        0.6688440    -1.5149670    -0.0002860
  C        1.7894520     1.1098640     0.0002960
  N       -0.6328400     1.8116850    -0.0001020
  H        2.7093930    -2.1785160    -0.0003580
  H        3.6789503     0.0978647    -0.0497310
  H        0.2537760    -2.5213680    -0.0000660
  H        2.2194000     2.1097800     0.0002850
  H       -3.6376700    -0.9013790    -0.0001930
  H       -2.5281620    -1.9588410     0.8832840
  H       -2.7737480     1.6710560    -0.0003610
  H       -0.5326520     2.8176750    -0.0001200
  H       -2.5278290    -1.9594320    -0.8825300
units angstrom
no_reorient  #important for SAPT in psi4, default
symmetry c1  #important for SAPT in psi4, default
}

set PROPERTIES_ORIGIN ["COM"]
properties('MP2/aug-cc-pvtz', properties = ['dipole'])
--------------------------------------------------------------------------

    Molecular point group: c1
  Charge       = 0
  Multiplicity = 1
  Basis Set: AUG-CC-PVTZ
    Blend: AUG-CC-PVTZ
  Basis Set: (AUG-CC-PVTZ AUX)
    Blend: AUG-CC-PVTZ-JKFIT

    Orbital Energies [Eh]
    ---------------------

    Doubly Occupied:

       1A    -15.599952     2A    -11.265283     3A    -11.264562
       4A    -11.231883     5A    -11.230647     6A    -11.229542
       7A    -11.222738     8A    -11.221826     9A    -11.221368
      10A    -11.221074    11A     -1.291692    12A     -1.126997
      13A     -1.072129    14A     -0.997323    15A     -0.985681
      16A     -0.930946    17A     -0.838981    18A     -0.803877
      19A     -0.755815    20A     -0.720033    21A     -0.659892
      22A     -0.644565    23A     -0.603500    24A     -0.592712
      25A     -0.591946    26A     -0.569715    27A     -0.551397
      28A     -0.542290    29A     -0.529619    30A     -0.497650
      31A     -0.475804    32A     -0.462937    33A     -0.374536
      34A     -0.298643    35A     -0.277736

  @DF-RHF Final Energy:  -400.64004165437706

   => Energetics <=

    Nuclear Repulsion Energy =            483.2537643933559934
    One-Electron Energy =               -1499.9770264079897970
    Two-Electron Energy =                 616.0832203602566324
    Total Energy =                       -400.6400416543771144
  Basis Set: (AUG-CC-PVTZ AUX)
    Blend: AUG-CC-PVTZ-RI
    Molecular point group: c1

    Geometry (in Angstrom), charge = 0, multiplicity = 1:

       Center              X                  Y                   Z               Mass
    ------------   -----------------  -----------------  -----------------  -----------------
         C           -2.649743631225    -1.339591776209     0.000532042352    12.000000000000
         C           -0.202307631225    -0.412399776209     0.000606042352    12.000000000000
         C           -1.626617631225    -0.248593776209     0.000353042352    12.000000000000
         C            0.380050368775     0.885112223791     0.000235042352    12.000000000000
         C           -1.858064631225     1.109437223791     0.000322042352    12.000000000000
         C            2.019508368775    -1.340310776209     0.000418042352    12.000000000000
         C            2.574083368775    -0.041544776209     0.000310042352    12.000000000000
         C            0.645101368775    -1.536379776209     0.000100042352    12.000000000000
         C            1.765709368775     1.088451223791     0.000682042352    12.000000000000
         N           -0.656582631225     1.790272223791     0.000284042352    14.003074004430
         H            2.685650368775    -2.199928776209     0.000028042352     1.007825032230
         H            3.655207668775     0.076451923791    -0.049344957648     1.007825032230
         H            0.230033368775    -2.542780776209     0.000320042352     1.007825032230
         H            2.195657368775     2.088367223791     0.000671042352     1.007825032230
         H           -3.661412631225    -0.922791776209     0.000193042352     1.007825032230
         H           -2.551904631225    -1.980253776209     0.883670042352     1.007825032230
         H           -2.797490631225     1.649643223791     0.000025042352     1.007825032230
         H           -0.556394631225     2.796262223791     0.000266042352     1.007825032230
         H           -2.551571631225    -1.980844776209    -0.882143957648     1.007825032230

  Basis Set: AUG-CC-PVTZ
    Blend: AUG-CC-PVTZ
  Basis Set: (AUG-CC-PVTZ AUX)
    Blend: AUG-CC-PVTZ-JKFIT
	 Reference Energy          =    -400.6400416543770575 [Eh]
	 Singles Energy            =      -0.0000000000000000 [Eh]
	 Same-Spin Energy          =      -0.4516979531229568 [Eh]
	 Opposite-Spin Energy      =      -1.4041398374766754 [Eh]
	 Correlation Energy        =      -1.8558377905996322 [Eh]
	 Total Energy              =    -402.4958794449767083 [Eh]

	 ================> DF-SCS-MP2 Energies <==================
	-----------------------------------------------------------
	 SCS Same-Spin Scale       =       0.3333333333333333 [-]
	 SCS Opposite-Spin Scale   =       1.2000000000000000 [-]
	 SCS Same-Spin Energy      =      -0.1505659843743189 [Eh]
	 SCS Opposite-Spin Energy  =      -1.6849678049720105 [Eh]
	 SCS Correlation Energy    =      -1.8355337893463295 [Eh]
	 SCS Total Energy          =    -402.4755754437234145 [Eh]
	-----------------------------------------------------------

  Dipole Moment: [D]
     X:    -0.9604      Y:     1.8046      Z:    -0.0330     Total:     2.0445

*** Psi4 exiting successfully. Buy a developer a beer!
