                               Psi4 1.3.2 release

  ==> Input File <==

--------------------------------------------------------------------------
#psi4
#
memory 32 gb

molecule  {
0 1
  O        0.1973020    -1.3235490    -0.2892290
  C       -1.0344600    -0.8194530     0.2767900
  C       -1.3316854     0.7251681    -0.1495569
  C       -0.1783580     1.4194390    -0.0692080
  C        1.1257810     0.8237890     0.1750290
  C        1.2576400    -0.5068660    -0.0292480
  H       -0.9620370    -0.9265990     1.3719500
  H       -1.8114290    -1.4891710    -0.0946800
  H       -2.2490060     0.9624120    -0.3801030
  H       -0.2469520     2.4774150    -0.3092500
  H        2.0071080     1.4278200     0.3572680
  H        2.2048620    -1.0348020    -0.0884010
units angstrom
no_reorient  #important for SAPT in psi4, default
symmetry c1  #important for SAPT in psi4, default
}

set PROPERTIES_ORIGIN ["COM"]
properties('MP2/aug-cc-pvtz', properties = ['dipole'])
--------------------------------------------------------------------------

    Molecular point group: c1
  Charge       = 0
  Multiplicity = 1
  Basis Set: AUG-CC-PVTZ
    Blend: AUG-CC-PVTZ
  Basis Set: (AUG-CC-PVTZ AUX)
    Blend: AUG-CC-PVTZ-JKFIT

    Orbital Energies [Eh]
    ---------------------

    Doubly Occupied:

       1A    -20.589382     2A    -11.303842     3A    -11.294113
       4A    -11.244469     5A    -11.230121     6A    -11.229042
       7A     -1.406533     8A     -1.091028     9A     -1.026165
      10A     -0.896916    11A     -0.845332    12A     -0.721622
      13A     -0.712236    14A     -0.652147    15A     -0.635219
      16A     -0.606456    17A     -0.562861    18A     -0.541500
      19A     -0.508195    20A     -0.450934    21A     -0.418164
      22A     -0.305905

  @DF-RHF Final Energy:  -267.71691294735211

   => Energetics <=

    Nuclear Repulsion Energy =            221.6318740225813713
    One-Electron Energy =                -802.1532137660760782
    Two-Electron Energy =                 312.8044267961426499
    Total Energy =                       -267.7169129473521139
  Basis Set: (AUG-CC-PVTZ AUX)
    Blend: AUG-CC-PVTZ-RI
    Molecular point group: c1

    Geometry (in Angstrom), charge = 0, multiplicity = 1:

       Center              X                  Y                   Z               Mass
    ------------   -----------------  -----------------  -----------------  -----------------
         O            0.195386987061    -1.323098444758    -0.273175834935    15.994914619570
         C           -1.036375012939    -0.819002444758     0.292843165065    12.000000000000
         C           -1.333600412939     0.725618655242    -0.133503734935    12.000000000000
         C           -0.180273012939     1.419889555242    -0.053154834935    12.000000000000
         C            1.123865987061     0.824239555242     0.191082165065    12.000000000000
         C            1.255724987061    -0.506415444758    -0.013194834935    12.000000000000
         H           -0.963952012939    -0.926148444758     1.388003165065     1.007825032230
         H           -1.813344012939    -1.488720444758    -0.078626834935     1.007825032230
         H           -2.250921012939     0.962862555242    -0.364049834935     1.007825032230
         H           -0.248867012939     2.477865555242    -0.293196834935     1.007825032230
         H            2.005192987061     1.428270555242     0.373321165065     1.007825032230
         H            2.202946987061    -1.034351444758    -0.072347834935     1.007825032230

  Basis Set: AUG-CC-PVTZ
    Blend: AUG-CC-PVTZ
  Basis Set: (AUG-CC-PVTZ AUX)
    Blend: AUG-CC-PVTZ-JKFIT
	 Reference Energy          =    -267.7169129473521139 [Eh]
	 Singles Energy            =      -0.0000000000000000 [Eh]
	 Same-Spin Energy          =      -0.2736086665280064 [Eh]
	 Opposite-Spin Energy      =      -0.8874190506190323 [Eh]
	 Correlation Energy        =      -1.1610277171470387 [Eh]
	 Total Energy              =    -268.8779406644991354 [Eh]

	 ================> DF-SCS-MP2 Energies <==================
	-----------------------------------------------------------
	 SCS Same-Spin Scale       =       0.3333333333333333 [-]
	 SCS Opposite-Spin Scale   =       1.2000000000000000 [-]
	 SCS Same-Spin Energy      =      -0.0912028888426688 [Eh]
	 SCS Opposite-Spin Energy  =      -1.0649028607428386 [Eh]
	 SCS Correlation Energy    =      -1.1561057495855074 [Eh]
	 SCS Total Energy          =    -268.8730186969376064 [Eh]
	-----------------------------------------------------------

  Dipole Moment: [D]
     X:    -0.2882      Y:     0.5753      Z:     0.4191     Total:     0.7679

*** Psi4 exiting successfully. Buy a developer a beer!
