                               Psi4 1.3.2 release

  ==> Input File <==

--------------------------------------------------------------------------
#psi4
#
memory 32 gb

molecule  {
0 1
  O        0.1973020    -1.3235490    -0.2892290
  C       -1.0344600    -0.8194530     0.2767900
  C       -1.2574290     0.6116450    -0.1105210
  C       -0.1783580     1.4194390    -0.0692080
  C        1.1257810     0.8237890     0.1750290
  C        1.2576400    -0.5068660    -0.0292480
  H       -0.9620370    -0.9265990     1.3719500
  H       -1.8114290    -1.4891710    -0.0946800
  H       -2.2490060     0.9624120    -0.3801030
  H       -0.2469520     2.4774150    -0.3092500
  H        2.0071080     1.4278200     0.3572680
  H        2.2920814    -1.0834139    -0.0938478
units angstrom
no_reorient  #important for SAPT in psi4, default
symmetry c1  #important for SAPT in psi4, default
}

set PROPERTIES_ORIGIN ["COM"]
properties('MP2/aug-cc-pvtz', properties = ['dipole'])
--------------------------------------------------------------------------

    Molecular point group: c1
  Charge       = 0
  Multiplicity = 1
  Basis Set: AUG-CC-PVTZ
    Blend: AUG-CC-PVTZ
  Basis Set: (AUG-CC-PVTZ AUX)
    Blend: AUG-CC-PVTZ-JKFIT

    Orbital Energies [Eh]
    ---------------------

    Doubly Occupied:

       1A    -20.588493     2A    -11.311763     3A    -11.291879
       4A    -11.242341     5A    -11.231699     6A    -11.226882
       7A     -1.408221     8A     -1.096949     9A     -1.032378
      10A     -0.898796    11A     -0.834672    12A     -0.710457
      13A     -0.702582    14A     -0.648592    15A     -0.631773
      16A     -0.601633    17A     -0.569475    18A     -0.529604
      19A     -0.508371    20A     -0.469568    21A     -0.419187
      22A     -0.302681

  @DF-RHF Final Energy:  -267.73064803101028

   => Energetics <=

    Nuclear Repulsion Energy =            223.0275028938951323
    One-Electron Energy =                -805.0003047334022312
    Two-Electron Energy =                 314.2421538084968802
    Total Energy =                       -267.7306480310102756
  Basis Set: (AUG-CC-PVTZ AUX)
    Blend: AUG-CC-PVTZ-RI
    Molecular point group: c1

    Geometry (in Angstrom), charge = 0, multiplicity = 1:

       Center              X                  Y                   Z               Mass
    ------------   -----------------  -----------------  -----------------  -----------------
         O            0.183454314677    -1.305896623555    -0.278818580619    15.994914619570
         C           -1.048307685323    -0.801800623555     0.287200419381    12.000000000000
         C           -1.271276685323     0.629297376445    -0.100110580619    12.000000000000
         C           -0.192205685323     1.437091376445    -0.058797580619    12.000000000000
         C            1.111933314677     0.841441376445     0.185439419381    12.000000000000
         C            1.243792314677    -0.489213623555    -0.018837580619    12.000000000000
         H           -0.975884685323    -0.908946623555     1.382360419381     1.007825032230
         H           -1.825276685323    -1.471518623555    -0.084269580619     1.007825032230
         H           -2.262853685323     0.980064376445    -0.369692580619     1.007825032230
         H           -0.260799685323     2.495067376445    -0.298839580619     1.007825032230
         H            1.993260314677     1.445472376445     0.367678419381     1.007825032230
         H            2.278233714677    -1.065761523555    -0.083437380619     1.007825032230

  Basis Set: AUG-CC-PVTZ
    Blend: AUG-CC-PVTZ
  Basis Set: (AUG-CC-PVTZ AUX)
    Blend: AUG-CC-PVTZ-JKFIT
	 Reference Energy          =    -267.7306480310102756 [Eh]
	 Singles Energy            =      -0.0000000000000000 [Eh]
	 Same-Spin Energy          =      -0.2743944380087129 [Eh]
	 Opposite-Spin Energy      =      -0.8876987786959113 [Eh]
	 Correlation Energy        =      -1.1620932167046243 [Eh]
	 Total Energy              =    -268.8927412477149232 [Eh]

	 ================> DF-SCS-MP2 Energies <==================
	-----------------------------------------------------------
	 SCS Same-Spin Scale       =       0.3333333333333333 [-]
	 SCS Opposite-Spin Scale   =       1.2000000000000000 [-]
	 SCS Same-Spin Energy      =      -0.0914648126695710 [Eh]
	 SCS Opposite-Spin Energy  =      -1.0652385344350934 [Eh]
	 SCS Correlation Energy    =      -1.1567033471046644 [Eh]
	 SCS Total Energy          =    -268.8873513781149427 [Eh]
	-----------------------------------------------------------

  Dipole Moment: [D]
     X:    -0.3644      Y:     0.6262      Z:     0.4190     Total:     0.8370

*** Psi4 exiting successfully. Buy a developer a beer!
