                               Psi4 1.3.2 release

  ==> Input File <==

--------------------------------------------------------------------------
#psi4
#
memory 32 gb

molecule  {
0 1
  O        0.1973020    -1.3235490    -0.2892290
  C       -0.8641249    -0.8891623     0.1985176
  C       -1.2574290     0.6116450    -0.1105210
  C       -0.1783580     1.4194390    -0.0692080
  C        1.1257810     0.8237890     0.1750290
  C        1.2576400    -0.5068660    -0.0292480
  H       -0.9620370    -0.9265990     1.3719500
  H       -1.8114290    -1.4891710    -0.0946800
  H       -2.2490060     0.9624120    -0.3801030
  H       -0.2469520     2.4774150    -0.3092500
  H        2.0071080     1.4278200     0.3572680
  H        2.2048620    -1.0348020    -0.0884010
units angstrom
no_reorient  #important for SAPT in psi4, default
symmetry c1  #important for SAPT in psi4, default
}

set PROPERTIES_ORIGIN ["COM"]
properties('MP2/aug-cc-pvtz', properties = ['dipole'])
--------------------------------------------------------------------------

    Molecular point group: c1
  Charge       = 0
  Multiplicity = 1
  Basis Set: AUG-CC-PVTZ
    Blend: AUG-CC-PVTZ
  Basis Set: (AUG-CC-PVTZ AUX)
    Blend: AUG-CC-PVTZ-JKFIT

    Orbital Energies [Eh]
    ---------------------

    Doubly Occupied:

       1A    -20.602106     2A    -11.305876     3A    -11.296277
       4A    -11.237805     5A    -11.236420     6A    -11.233766
       7A     -1.490071     8A     -1.100194     9A     -1.037057
      10A     -0.896900    11A     -0.852815    12A     -0.735172
      13A     -0.714111    14A     -0.680830    15A     -0.650357
      16A     -0.613359    17A     -0.587138    18A     -0.535585
      19A     -0.466889    20A     -0.444308    21A     -0.423401
      22A     -0.304042

  @DF-RHF Final Energy:  -267.70038403677961

   => Energetics <=

    Nuclear Repulsion Energy =            226.1513701549617679
    One-Electron Energy =                -810.8145468380388365
    Two-Electron Energy =                 316.9627926462974301
    Total Energy =                       -267.7003840367796101
  Basis Set: (AUG-CC-PVTZ AUX)
    Blend: AUG-CC-PVTZ-RI
    Molecular point group: c1

    Geometry (in Angstrom), charge = 0, multiplicity = 1:

       Center              X                  Y                   Z               Mass
    ------------   -----------------  -----------------  -----------------  -----------------
         O            0.159611374126    -1.296297630259    -0.267436838130    15.994914619570
         C           -0.901815525874    -0.861910930259     0.220309761870    12.000000000000
         C           -1.295119625874     0.638896369741    -0.088728838130    12.000000000000
         C           -0.216048625874     1.446690369741    -0.047415838130    12.000000000000
         C            1.088090374126     0.851040369741     0.196821161870    12.000000000000
         C            1.219949374126    -0.479614630259    -0.007455838130    12.000000000000
         H           -0.999727625874    -0.899347630259     1.393742161870     1.007825032230
         H           -1.849119625874    -1.461919630259    -0.072887838130     1.007825032230
         H           -2.286696625874     0.989663369741    -0.358310838130     1.007825032230
         H           -0.284642625874     2.504666369741    -0.287457838130     1.007825032230
         H            1.969417374126     1.455071369741     0.379060161870     1.007825032230
         H            2.167171374126    -1.007550630259    -0.066608838130     1.007825032230

  Basis Set: AUG-CC-PVTZ
    Blend: AUG-CC-PVTZ
  Basis Set: (AUG-CC-PVTZ AUX)
    Blend: AUG-CC-PVTZ-JKFIT
	 Reference Energy          =    -267.7003840367796101 [Eh]
	 Singles Energy            =      -0.0000000000000000 [Eh]
	 Same-Spin Energy          =      -0.2744522397765213 [Eh]
	 Opposite-Spin Energy      =      -0.8858069673662607 [Eh]
	 Correlation Energy        =      -1.1602592071427820 [Eh]
	 Total Energy              =    -268.8606432439223681 [Eh]

	 ================> DF-SCS-MP2 Energies <==================
	-----------------------------------------------------------
	 SCS Same-Spin Scale       =       0.3333333333333333 [-]
	 SCS Opposite-Spin Scale   =       1.2000000000000000 [-]
	 SCS Same-Spin Energy      =      -0.0914840799255071 [Eh]
	 SCS Opposite-Spin Energy  =      -1.0629683608395128 [Eh]
	 SCS Correlation Energy    =      -1.1544524407650201 [Eh]
	 SCS Total Energy          =    -268.8548364775446089 [Eh]
	-----------------------------------------------------------

  Dipole Moment: [D]
     X:     0.2655      Y:     0.6622      Z:     0.0474     Total:     0.7150

*** Psi4 exiting successfully. Buy a developer a beer!
