                               Psi4 1.3.2 release

  ==> Input File <==

--------------------------------------------------------------------------
#psi4
#
memory 32 gb

molecule  {
0 1
  O        0.2134881    -1.3338906    -0.2425438
  C       -1.0344600    -0.8194530     0.2767900
  C       -1.2574290     0.6116450    -0.1105210
  C       -0.1783580     1.4194390    -0.0692080
  C        1.1257810     0.8237890     0.1750290
  C        1.2576400    -0.5068660    -0.0292480
  H       -0.9620370    -0.9265990     1.3719500
  H       -1.8114290    -1.4891710    -0.0946800
  H       -2.2490060     0.9624120    -0.3801030
  H       -0.2469520     2.4774150    -0.3092500
  H        2.0071080     1.4278200     0.3572680
  H        2.2048620    -1.0348020    -0.0884010
units angstrom
no_reorient  #important for SAPT in psi4, default
symmetry c1  #important for SAPT in psi4, default
}

set PROPERTIES_ORIGIN ["COM"]
properties('MP2/aug-cc-pvtz', properties = ['dipole'])
--------------------------------------------------------------------------

    Molecular point group: c1
  Charge       = 0
  Multiplicity = 1
  Basis Set: AUG-CC-PVTZ
    Blend: AUG-CC-PVTZ
  Basis Set: (AUG-CC-PVTZ AUX)
    Blend: AUG-CC-PVTZ-JKFIT

    Orbital Energies [Eh]
    ---------------------

    Doubly Occupied:

       1A    -20.588539     2A    -11.301330     3A    -11.291710
       4A    -11.242073     5A    -11.230677     6A    -11.223997
       7A     -1.413652     8A     -1.096391     9A     -1.035546
      10A     -0.899199    11A     -0.842274    12A     -0.719367
      13A     -0.701868    14A     -0.652537    15A     -0.636324
      16A     -0.607106    17A     -0.571486    18A     -0.530425
      19A     -0.509886    20A     -0.473151    21A     -0.419505
      22A     -0.299706

  @DF-RHF Final Energy:  -267.73851478194098

   => Energetics <=

    Nuclear Repulsion Energy =            223.6517748483550463
    One-Electron Energy =                -806.2070782324179845
    Two-Electron Energy =                 314.8167886021219033
    Total Energy =                       -267.7385147819409781
  Basis Set: (AUG-CC-PVTZ AUX)
    Blend: AUG-CC-PVTZ-RI
    Molecular point group: c1

    Geometry (in Angstrom), charge = 0, multiplicity = 1:

       Center              X                  Y                   Z               Mass
    ------------   -----------------  -----------------  -----------------  -----------------
         O            0.197556193489    -1.314819183171    -0.241302055796    15.994914619570
         C           -1.050391906511    -0.800381583171     0.278031744204    12.000000000000
         C           -1.273360906511     0.630716416829    -0.109279255796    12.000000000000
         C           -0.194289906511     1.438510416829    -0.067966255796    12.000000000000
         C            1.109849093489     0.842860416829     0.176270744204    12.000000000000
         C            1.241708093489    -0.487794583171    -0.028006255796    12.000000000000
         H           -0.977968906511    -0.907527583171     1.373191744204     1.007825032230
         H           -1.827360906511    -1.470099583171    -0.093438255796     1.007825032230
         H           -2.264937906511     0.981483416829    -0.378861255796     1.007825032230
         H           -0.262883906511     2.496486416829    -0.308008255796     1.007825032230
         H            1.991176093489     1.446891416829     0.358509744204     1.007825032230
         H            2.188930093489    -1.015730583171    -0.087159255796     1.007825032230

  Basis Set: AUG-CC-PVTZ
    Blend: AUG-CC-PVTZ
  Basis Set: (AUG-CC-PVTZ AUX)
    Blend: AUG-CC-PVTZ-JKFIT
	 Reference Energy          =    -267.7385147819409781 [Eh]
	 Singles Energy            =      -0.0000000000000000 [Eh]
	 Same-Spin Energy          =      -0.2740572779903591 [Eh]
	 Opposite-Spin Energy      =      -0.8862774544366705 [Eh]
	 Correlation Energy        =      -1.1603347324270294 [Eh]
	 Total Energy              =    -268.8988495143680097 [Eh]

	 ================> DF-SCS-MP2 Energies <==================
	-----------------------------------------------------------
	 SCS Same-Spin Scale       =       0.3333333333333333 [-]
	 SCS Opposite-Spin Scale   =       1.2000000000000000 [-]
	 SCS Same-Spin Energy      =      -0.0913524259967863 [Eh]
	 SCS Opposite-Spin Energy  =      -1.0635329453240046 [Eh]
	 SCS Correlation Energy    =      -1.1548853713207909 [Eh]
	 SCS Total Energy          =    -268.8934001532617799 [Eh]
	-----------------------------------------------------------

  Dipole Moment: [D]
     X:    -0.3647      Y:     0.5748      Z:     0.3546     Total:     0.7675

*** Psi4 exiting successfully. Buy a developer a beer!
