                               Psi4 1.3.2 release

  ==> Input File <==

--------------------------------------------------------------------------
#psi4
#
memory 32 gb

molecule  {
0 1
  O        0.1973020    -1.3235490    -0.2892290
  C       -1.0344600    -0.8194530     0.2767900
  C       -1.2723010     0.7070989    -0.1363546
  C       -0.1783580     1.4194390    -0.0692080
  C        1.1257810     0.8237890     0.1750290
  C        1.2576400    -0.5068660    -0.0292480
  H       -0.9620370    -0.9265990     1.3719500
  H       -1.8114290    -1.4891710    -0.0946800
  H       -2.2490060     0.9624120    -0.3801030
  H       -0.2469520     2.4774150    -0.3092500
  H        2.0071080     1.4278200     0.3572680
  H        2.2048620    -1.0348020    -0.0884010
units angstrom
no_reorient  #important for SAPT in psi4, default
symmetry c1  #important for SAPT in psi4, default
}

set PROPERTIES_ORIGIN ["COM"]
properties('MP2/aug-cc-pvtz', properties = ['dipole'])
--------------------------------------------------------------------------

    Molecular point group: c1
  Charge       = 0
  Multiplicity = 1
  Basis Set: AUG-CC-PVTZ
    Blend: AUG-CC-PVTZ
  Basis Set: (AUG-CC-PVTZ AUX)
    Blend: AUG-CC-PVTZ-JKFIT

    Orbital Energies [Eh]
    ---------------------

    Doubly Occupied:

       1A    -20.587181     2A    -11.301275     3A    -11.293326
       4A    -11.236251     5A    -11.228014     6A    -11.226775
       7A     -1.405687     8A     -1.098463     9A     -1.027157
      10A     -0.900481    11A     -0.838574    12A     -0.715552
      13A     -0.708413    14A     -0.651227    15A     -0.633226
      16A     -0.607816    17A     -0.562462    18A     -0.539895
      19A     -0.509221    20A     -0.455239    21A     -0.422561
      22A     -0.308236

  @DF-RHF Final Energy:  -267.73083624179031

   => Energetics <=

    Nuclear Repulsion Energy =            222.6923401961960280
    One-Electron Energy =                -804.3322898246416344
    Two-Electron Energy =                 313.9091133866552923
    Total Energy =                       -267.7308362417903140
  Basis Set: (AUG-CC-PVTZ AUX)
    Blend: AUG-CC-PVTZ-RI
    Molecular point group: c1

    Geometry (in Angstrom), charge = 0, multiplicity = 1:

       Center              X                  Y                   Z               Mass
    ------------   -----------------  -----------------  -----------------  -----------------
         O            0.186701021650    -1.320455520923    -0.275106892942    15.994914619570
         C           -1.045060978350    -0.816359520923     0.290912107058    12.000000000000
         C           -1.282901978350     0.710192379077    -0.122232492942    12.000000000000
         C           -0.188958978350     1.422532479077    -0.055085892942    12.000000000000
         C            1.115180021650     0.826882479077     0.189151107058    12.000000000000
         C            1.247039021650    -0.503772520923    -0.015125892942    12.000000000000
         H           -0.972637978350    -0.923505520923     1.386072107058     1.007825032230
         H           -1.822029978350    -1.486077520923    -0.080557892942     1.007825032230
         H           -2.259606978350     0.965505479077    -0.365980892942     1.007825032230
         H           -0.257552978350     2.480508479077    -0.295127892942     1.007825032230
         H            1.996507021650     1.430913479077     0.371390107058     1.007825032230
         H            2.194261021650    -1.031708520923    -0.074278892942     1.007825032230

  Basis Set: AUG-CC-PVTZ
    Blend: AUG-CC-PVTZ
  Basis Set: (AUG-CC-PVTZ AUX)
    Blend: AUG-CC-PVTZ-JKFIT
	 Reference Energy          =    -267.7308362417903140 [Eh]
	 Singles Energy            =      -0.0000000000000000 [Eh]
	 Same-Spin Energy          =      -0.2731000433186589 [Eh]
	 Opposite-Spin Energy      =      -0.8857481569449095 [Eh]
	 Correlation Energy        =      -1.1588482002635685 [Eh]
	 Total Energy              =    -268.8896844420538628 [Eh]

	 ================> DF-SCS-MP2 Energies <==================
	-----------------------------------------------------------
	 SCS Same-Spin Scale       =       0.3333333333333333 [-]
	 SCS Opposite-Spin Scale   =       1.2000000000000000 [-]
	 SCS Same-Spin Energy      =      -0.0910333477728863 [Eh]
	 SCS Opposite-Spin Energy  =      -1.0628977883338913 [Eh]
	 SCS Correlation Energy    =      -1.1539311361067777 [Eh]
	 SCS Total Energy          =    -268.8847673778971057 [Eh]
	-----------------------------------------------------------

  Dipole Moment: [D]
     X:    -0.3576      Y:     0.5966      Z:     0.4205     Total:     0.8128

*** Psi4 exiting successfully. Buy a developer a beer!
