                               Psi4 1.3.2 release

  ==> Input File <==

--------------------------------------------------------------------------
#psi4
#
memory 32 gb

molecule  {
0 1
  O        0.1973020    -1.3235490    -0.2892290
  C       -0.9492924    -0.8543076     0.2376538
  C       -1.2574290     0.6116450    -0.1105210
  C       -0.1783580     1.4194390    -0.0692080
  C        1.1257810     0.8237890     0.1750290
  C        1.2576400    -0.5068660    -0.0292480
  H       -0.9620370    -0.9265990     1.3719500
  H       -1.8114290    -1.4891710    -0.0946800
  H       -2.2490060     0.9624120    -0.3801030
  H       -0.2469520     2.4774150    -0.3092500
  H        2.0071080     1.4278200     0.3572680
  H        2.2048620    -1.0348020    -0.0884010
units angstrom
no_reorient  #important for SAPT in psi4, default
symmetry c1  #important for SAPT in psi4, default
}

set PROPERTIES_ORIGIN ["COM"]
properties('MP2/aug-cc-pvtz', properties = ['dipole'])
--------------------------------------------------------------------------

    Molecular point group: c1
  Charge       = 0
  Multiplicity = 1
  Basis Set: AUG-CC-PVTZ
    Blend: AUG-CC-PVTZ
  Basis Set: (AUG-CC-PVTZ AUX)
    Blend: AUG-CC-PVTZ-JKFIT

    Orbital Energies [Eh]
    ---------------------

    Doubly Occupied:

       1A    -20.594559     2A    -11.303044     3A    -11.291674
       4A    -11.238931     5A    -11.232688     6A    -11.231309
       7A     -1.442925     8A     -1.096989     9A     -1.035167
      10A     -0.894926    11A     -0.848224    12A     -0.724402
      13A     -0.706873    14A     -0.663235    15A     -0.640768
      16A     -0.606676    17A     -0.581334    18A     -0.533566
      19A     -0.490746    20A     -0.460561    21A     -0.422095
      22A     -0.303460

  @DF-RHF Final Energy:  -267.73148902762364

   => Energetics <=

    Nuclear Repulsion Energy =            224.7445867128126054
    One-Electron Energy =                -808.2638417202089158
    Two-Electron Energy =                 315.7877659797726437
    Total Energy =                       -267.7314890276236383
  Basis Set: (AUG-CC-PVTZ AUX)
    Blend: AUG-CC-PVTZ-RI
    Molecular point group: c1

    Geometry (in Angstrom), charge = 0, multiplicity = 1:

       Center              X                  Y                   Z               Mass
    ------------   -----------------  -----------------  -----------------  -----------------
         O            0.172068550744    -1.301395715254    -0.273161164376    15.994914619570
         C           -0.974525849256    -0.832154315254     0.253721635624    12.000000000000
         C           -1.282662449256     0.633798284746    -0.094453164376    12.000000000000
         C           -0.203591449256     1.441592284746    -0.053140164376    12.000000000000
         C            1.100547550744     0.845942284746     0.191096835624    12.000000000000
         C            1.232406550744    -0.484712715254    -0.013180164376    12.000000000000
         H           -0.987270449256    -0.904445715254     1.388017835624     1.007825032230
         H           -1.836662449256    -1.467017715254    -0.078612164376     1.007825032230
         H           -2.274239449256     0.984565284746    -0.364035164376     1.007825032230
         H           -0.272185449256     2.499568284746    -0.293182164376     1.007825032230
         H            1.981874550744     1.449973284746     0.373335835624     1.007825032230
         H            2.179628550744    -1.012648715254    -0.072333164376     1.007825032230

  Basis Set: AUG-CC-PVTZ
    Blend: AUG-CC-PVTZ
  Basis Set: (AUG-CC-PVTZ AUX)
    Blend: AUG-CC-PVTZ-JKFIT
	 Reference Energy          =    -267.7314890276236383 [Eh]
	 Singles Energy            =      -0.0000000000000000 [Eh]
	 Same-Spin Energy          =      -0.2738958300029233 [Eh]
	 Opposite-Spin Energy      =      -0.8856272461398569 [Eh]
	 Correlation Energy        =      -1.1595230761427802 [Eh]
	 Total Energy              =    -268.8910121037663998 [Eh]

	 ================> DF-SCS-MP2 Energies <==================
	-----------------------------------------------------------
	 SCS Same-Spin Scale       =       0.3333333333333333 [-]
	 SCS Opposite-Spin Scale   =       1.2000000000000000 [-]
	 SCS Same-Spin Energy      =      -0.0912986100009744 [Eh]
	 SCS Opposite-Spin Energy  =      -1.0627526953678281 [Eh]
	 SCS Correlation Energy    =      -1.1540513053688026 [Eh]
	 SCS Total Energy          =    -268.8855403329924343 [Eh]
	-----------------------------------------------------------

  Dipole Moment: [D]
     X:    -0.0677      Y:     0.6383      Z:     0.2541     Total:     0.6903

*** Psi4 exiting successfully. Buy a developer a beer!
