                               Psi4 1.3.2 release

  ==> Input File <==

--------------------------------------------------------------------------
#psi4
#
memory 32 gb

molecule  {
0 1
  O        0.1973020    -1.3235490    -0.2892290
  C       -1.0344600    -0.8194530     0.2767900
  C       -1.2574290     0.6116450    -0.1105210
  C       -0.1783580     1.4194390    -0.0692080
  C        1.1257810     0.8237890     0.1750290
  C        1.2576400    -0.5068660    -0.0292480
  H       -0.9489023    -0.9460312     1.5705699
  H       -1.8114290    -1.4891710    -0.0946800
  H       -2.2490060     0.9624120    -0.3801030
  H       -0.2469520     2.4774150    -0.3092500
  H        2.0071080     1.4278200     0.3572680
  H        2.2048620    -1.0348020    -0.0884010
units angstrom
no_reorient  #important for SAPT in psi4, default
symmetry c1  #important for SAPT in psi4, default
}

set PROPERTIES_ORIGIN ["COM"]
properties('MP2/aug-cc-pvtz', properties = ['dipole'])
--------------------------------------------------------------------------

    Molecular point group: c1
  Charge       = 0
  Multiplicity = 1
  Basis Set: AUG-CC-PVTZ
    Blend: AUG-CC-PVTZ
  Basis Set: (AUG-CC-PVTZ AUX)
    Blend: AUG-CC-PVTZ-JKFIT

    Orbital Energies [Eh]
    ---------------------

    Doubly Occupied:

       1A    -20.592197     2A    -11.313082     3A    -11.302794
       4A    -11.243875     5A    -11.234043     6A    -11.228450
       7A     -1.410271     8A     -1.097964     9A     -1.032533
      10A     -0.891533    11A     -0.843000    12A     -0.719749
      13A     -0.687996    14A     -0.652227    15A     -0.628608
      16A     -0.607750    17A     -0.574093    18A     -0.526396
      19A     -0.501101    20A     -0.463355    21A     -0.420144
      22A     -0.303078

  @DF-RHF Final Energy:  -267.71846136020162

   => Energetics <=

    Nuclear Repulsion Energy =            222.6525336873736194
    One-Electron Energy =                -804.1935202298495824
    Two-Electron Energy =                 313.8225251822743189
    Total Energy =                       -267.7184613602016157
  Basis Set: (AUG-CC-PVTZ AUX)
    Blend: AUG-CC-PVTZ-RI
    Molecular point group: c1

    Geometry (in Angstrom), charge = 0, multiplicity = 1:

       Center              X                  Y                   Z               Mass
    ------------   -----------------  -----------------  -----------------  -----------------
         O            0.184364391689    -1.306255075086    -0.281325392586    15.994914619570
         C           -1.047397608311    -0.802159075086     0.284693607414    12.000000000000
         C           -1.270366608311     0.628938924914    -0.102617392586    12.000000000000
         C           -0.191295608311     1.436732924914    -0.061304392586    12.000000000000
         C            1.112843391689     0.841082924914     0.182932607414    12.000000000000
         C            1.244702391689    -0.489572075086    -0.021344392586    12.000000000000
         H           -0.961839908311    -0.928737275086     1.578473507414     1.007825032230
         H           -1.824366608311    -1.471877075086    -0.086776392586     1.007825032230
         H           -2.261943608311     0.979705924914    -0.372199392586     1.007825032230
         H           -0.259889608311     2.494708924914    -0.301346392586     1.007825032230
         H            1.994170391689     1.445113924914     0.365171607414     1.007825032230
         H            2.191924391689    -1.017508075086    -0.080497392586     1.007825032230

  Basis Set: AUG-CC-PVTZ
    Blend: AUG-CC-PVTZ
  Basis Set: (AUG-CC-PVTZ AUX)
    Blend: AUG-CC-PVTZ-JKFIT
	 Reference Energy          =    -267.7184613602016157 [Eh]
	 Singles Energy            =      -0.0000000000000000 [Eh]
	 Same-Spin Energy          =      -0.2747603316049933 [Eh]
	 Opposite-Spin Energy      =      -0.8887994483101493 [Eh]
	 Correlation Energy        =      -1.1635597799151427 [Eh]
	 Total Energy              =    -268.8820211401167626 [Eh]

	 ================> DF-SCS-MP2 Energies <==================
	-----------------------------------------------------------
	 SCS Same-Spin Scale       =       0.3333333333333333 [-]
	 SCS Opposite-Spin Scale   =       1.2000000000000000 [-]
	 SCS Same-Spin Energy      =      -0.0915867772016644 [Eh]
	 SCS Opposite-Spin Energy  =      -1.0665593379721792 [Eh]
	 SCS Correlation Energy    =      -1.1581461151738437 [Eh]
	 SCS Total Energy          =    -268.8766074753754651 [Eh]
	-----------------------------------------------------------

  Dipole Moment: [D]
     X:    -0.2340      Y:     0.7361      Z:     0.1990     Total:     0.7976

*** Psi4 exiting successfully. Buy a developer a beer!
