                               Psi4 1.3.2 release

  ==> Input File <==

--------------------------------------------------------------------------
#psi4
#
memory 32 gb

molecule  {
0 1
  O        0.1973020    -1.3235490    -0.2892290
  C       -0.8840903    -0.7811018     0.3001383
  C       -1.2574290     0.6116450    -0.1105210
  C       -0.1783580     1.4194390    -0.0692080
  C        1.1257810     0.8237890     0.1750290
  C        1.2576400    -0.5068660    -0.0292480
  H       -0.9620370    -0.9265990     1.3719500
  H       -1.8114290    -1.4891710    -0.0946800
  H       -2.2490060     0.9624120    -0.3801030
  H       -0.2469520     2.4774150    -0.3092500
  H        2.0071080     1.4278200     0.3572680
  H        2.2048620    -1.0348020    -0.0884010
units angstrom
no_reorient  #important for SAPT in psi4, default
symmetry c1  #important for SAPT in psi4, default
}

set PROPERTIES_ORIGIN ["COM"]
properties('MP2/aug-cc-pvtz', properties = ['dipole'])
--------------------------------------------------------------------------

    Molecular point group: c1
  Charge       = 0
  Multiplicity = 1
  Basis Set: AUG-CC-PVTZ
    Blend: AUG-CC-PVTZ
  Basis Set: (AUG-CC-PVTZ AUX)
    Blend: AUG-CC-PVTZ-JKFIT

    Orbital Energies [Eh]
    ---------------------

    Doubly Occupied:

       1A    -20.598576     2A    -11.303829     3A    -11.293526
       4A    -11.239974     5A    -11.232952     6A    -11.231841
       7A     -1.449217     8A     -1.103360     9A     -1.035750
      10A     -0.893265    11A     -0.850402    12A     -0.725530
      13A     -0.717357    14A     -0.664285    15A     -0.637810
      16A     -0.609400    17A     -0.580092    18A     -0.539961
      19A     -0.473183    20A     -0.464762    21A     -0.420210
      22A     -0.307685

  @DF-RHF Final Energy:  -267.71322107033967

   => Energetics <=

    Nuclear Repulsion Energy =            225.7980800905221486
    One-Electron Energy =                -810.2766687671824002
    Two-Electron Energy =                 316.7653676063205808
    Total Energy =                       -267.7132210703396709
  Basis Set: (AUG-CC-PVTZ AUX)
    Blend: AUG-CC-PVTZ-RI
    Molecular point group: c1

    Geometry (in Angstrom), charge = 0, multiplicity = 1:

       Center              X                  Y                   Z               Mass
    ------------   -----------------  -----------------  -----------------  -----------------
         O            0.162531649044    -1.312103292441    -0.282300571455    15.994914619570
         C           -0.918860650956    -0.769656092441     0.307066728545    12.000000000000
         C           -1.292199350956     0.623090707559    -0.103592571455    12.000000000000
         C           -0.213128350956     1.430884707559    -0.062279571455    12.000000000000
         C            1.091010649044     0.835234707559     0.181957428545    12.000000000000
         C            1.222869649044    -0.495420292441    -0.022319571455    12.000000000000
         H           -0.996807350956    -0.915153292441     1.378878428545     1.007825032230
         H           -1.846199350956    -1.477725292441    -0.087751571455     1.007825032230
         H           -2.283776350956     0.973857707559    -0.373174571455     1.007825032230
         H           -0.281722350956     2.488860707559    -0.302321571455     1.007825032230
         H            1.972337649044     1.439265707559     0.364196428545     1.007825032230
         H            2.170091649044    -1.023356292441    -0.081472571455     1.007825032230

  Basis Set: AUG-CC-PVTZ
    Blend: AUG-CC-PVTZ
  Basis Set: (AUG-CC-PVTZ AUX)
    Blend: AUG-CC-PVTZ-JKFIT
	 Reference Energy          =    -267.7132210703396709 [Eh]
	 Singles Energy            =      -0.0000000000000000 [Eh]
	 Same-Spin Energy          =      -0.2751023452321456 [Eh]
	 Opposite-Spin Energy      =      -0.8878189905080991 [Eh]
	 Correlation Energy        =      -1.1629213357402448 [Eh]
	 Total Energy              =    -268.8761424060799072 [Eh]

	 ================> DF-SCS-MP2 Energies <==================
	-----------------------------------------------------------
	 SCS Same-Spin Scale       =       0.3333333333333333 [-]
	 SCS Opposite-Spin Scale   =       1.2000000000000000 [-]
	 SCS Same-Spin Energy      =      -0.0917007817440485 [Eh]
	 SCS Opposite-Spin Energy  =      -1.0653827886097189 [Eh]
	 SCS Correlation Energy    =      -1.1570835703537674 [Eh]
	 SCS Total Energy          =    -268.8703046406934618 [Eh]
	-----------------------------------------------------------

  Dipole Moment: [D]
     X:     0.0793      Y:     0.7697      Z:     0.3733     Total:     0.8591

*** Psi4 exiting successfully. Buy a developer a beer!
