                               Psi4 1.3.2 release

  ==> Input File <==

--------------------------------------------------------------------------
#psi4
#
memory 32 gb

molecule  {
0 1
  O        0.1973020    -1.3235490    -0.2892290
  C       -1.0344600    -0.8194530     0.2767900
  C       -1.2574290     0.6116450    -0.1105210
  C       -0.1783580     1.4194390    -0.0692080
  C        1.1257810     0.8237890     0.1750290
  C        1.1798688    -0.5667662    -0.0483165
  H       -0.9620370    -0.9265990     1.3719500
  H       -1.8114290    -1.4891710    -0.0946800
  H       -2.2490060     0.9624120    -0.3801030
  H       -0.2469520     2.4774150    -0.3092500
  H        2.0071080     1.4278200     0.3572680
  H        2.2048620    -1.0348020    -0.0884010
units angstrom
no_reorient  #important for SAPT in psi4, default
symmetry c1  #important for SAPT in psi4, default
}

set PROPERTIES_ORIGIN ["COM"]
properties('MP2/aug-cc-pvtz', properties = ['dipole'])
--------------------------------------------------------------------------

    Molecular point group: c1
  Charge       = 0
  Multiplicity = 1
  Basis Set: AUG-CC-PVTZ
    Blend: AUG-CC-PVTZ
  Basis Set: (AUG-CC-PVTZ AUX)
    Blend: AUG-CC-PVTZ-JKFIT

    Orbital Energies [Eh]
    ---------------------

    Doubly Occupied:

       1A    -20.606015     2A    -11.314209     3A    -11.298774
       4A    -11.239940     5A    -11.224189     6A    -11.221721
       7A     -1.463546     8A     -1.093899     9A     -1.032430
      10A     -0.899147    11A     -0.843789    12A     -0.726372
      13A     -0.712380    14A     -0.665722    15A     -0.642972
      16A     -0.613506    17A     -0.566662    18A     -0.539381
      19A     -0.520916    20A     -0.463594    21A     -0.413849
      22A     -0.287163

  @DF-RHF Final Energy:  -267.72624442897012

   => Energetics <=

    Nuclear Repulsion Energy =            224.7013506926319621
    One-Electron Energy =                -808.0748390313682421
    Two-Electron Energy =                 315.6472439097661322
    Total Energy =                       -267.7262444289701193
  Basis Set: (AUG-CC-PVTZ AUX)
    Blend: AUG-CC-PVTZ-RI
    Molecular point group: c1

    Geometry (in Angstrom), charge = 0, multiplicity = 1:

       Center              X                  Y                   Z               Mass
    ------------   -----------------  -----------------  -----------------  -----------------
         O            0.195901085566    -1.297732375803    -0.276096402386    15.994914619570
         C           -1.035860914434    -0.793636375803     0.289922597614    12.000000000000
         C           -1.258829914434     0.637461624197    -0.097388402386    12.000000000000
         C           -0.179758914434     1.445255624197    -0.056075402386    12.000000000000
         C            1.124380085566     0.849605624197     0.188161597614    12.000000000000
         C            1.178467885566    -0.540949575803    -0.035183902386    12.000000000000
         H           -0.963437914434    -0.900782375803     1.385082597614     1.007825032230
         H           -1.812829914434    -1.463354375803    -0.081547402386     1.007825032230
         H           -2.250406914434     0.988228624197    -0.366970402386     1.007825032230
         H           -0.248352914434     2.503231624197    -0.296117402386     1.007825032230
         H            2.005707085566     1.453636624197     0.370400597614     1.007825032230
         H            2.203461085566    -1.008985375803    -0.075268402386     1.007825032230

  Basis Set: AUG-CC-PVTZ
    Blend: AUG-CC-PVTZ
  Basis Set: (AUG-CC-PVTZ AUX)
    Blend: AUG-CC-PVTZ-JKFIT
	 Reference Energy          =    -267.7262444289701193 [Eh]
	 Singles Energy            =      -0.0000000000000000 [Eh]
	 Same-Spin Energy          =      -0.2751733907558637 [Eh]
	 Opposite-Spin Energy      =      -0.8863285831899292 [Eh]
	 Correlation Energy        =      -1.1615019739457930 [Eh]
	 Total Energy              =    -268.8877464029159228 [Eh]

	 ================> DF-SCS-MP2 Energies <==================
	-----------------------------------------------------------
	 SCS Same-Spin Scale       =       0.3333333333333333 [-]
	 SCS Opposite-Spin Scale   =       1.2000000000000000 [-]
	 SCS Same-Spin Energy      =      -0.0917244635852879 [Eh]
	 SCS Opposite-Spin Energy  =      -1.0635942998279151 [Eh]
	 SCS Correlation Energy    =      -1.1553187634132029 [Eh]
	 SCS Total Energy          =    -268.8815631923833394 [Eh]
	-----------------------------------------------------------

  Dipole Moment: [D]
     X:    -0.5403      Y:     0.1981      Z:     0.3436     Total:     0.6702

*** Psi4 exiting successfully. Buy a developer a beer!
