                               Psi4 1.3.2 release

  ==> Input File <==

--------------------------------------------------------------------------
#psi4
#
memory 32 gb

molecule  {
0 1
  O        0.2050072    -1.2783875    -0.3104307
  C       -1.0344600    -0.8194530     0.2767900
  C       -1.2574290     0.6116450    -0.1105210
  C       -0.1783580     1.4194390    -0.0692080
  C        1.1257810     0.8237890     0.1750290
  C        1.2576400    -0.5068660    -0.0292480
  H       -0.9620370    -0.9265990     1.3719500
  H       -1.8114290    -1.4891710    -0.0946800
  H       -2.2490060     0.9624120    -0.3801030
  H       -0.2469520     2.4774150    -0.3092500
  H        2.0071080     1.4278200     0.3572680
  H        2.2048620    -1.0348020    -0.0884010
units angstrom
no_reorient  #important for SAPT in psi4, default
symmetry c1  #important for SAPT in psi4, default
}

set PROPERTIES_ORIGIN ["COM"]
properties('MP2/aug-cc-pvtz', properties = ['dipole'])
--------------------------------------------------------------------------

    Molecular point group: c1
  Charge       = 0
  Multiplicity = 1
  Basis Set: AUG-CC-PVTZ
    Blend: AUG-CC-PVTZ
  Basis Set: (AUG-CC-PVTZ AUX)
    Blend: AUG-CC-PVTZ-JKFIT

    Orbital Energies [Eh]
    ---------------------

    Doubly Occupied:

       1A    -20.586591     2A    -11.298760     3A    -11.293403
       4A    -11.240473     5A    -11.229927     6A    -11.222246
       7A     -1.418398     8A     -1.094336     9A     -1.036947
      10A     -0.898985    11A     -0.840313    12A     -0.722164
      13A     -0.705441    14A     -0.652444    15A     -0.633680
      16A     -0.607203    17A     -0.571615    18A     -0.535980
      19A     -0.510740    20A     -0.468611    21A     -0.415445
      22A     -0.300132

  @DF-RHF Final Energy:  -267.73856164947705

   => Energetics <=

    Nuclear Repulsion Energy =            224.3593226029614698
    One-Electron Energy =                -807.6280990538291462
    Two-Electron Energy =                 315.5302148013906276
    Total Energy =                       -267.7385616494770488
  Basis Set: (AUG-CC-PVTZ AUX)
    Blend: AUG-CC-PVTZ-RI
    Molecular point group: c1

    Geometry (in Angstrom), charge = 0, multiplicity = 1:

       Center              X                  Y                   Z               Mass
    ------------   -----------------  -----------------  -----------------  -----------------
         O            0.190728733129    -1.270136989639    -0.295953698751    15.994914619570
         C           -1.048738466871    -0.811202489639     0.291267001249    12.000000000000
         C           -1.271707466871     0.619895510361    -0.096043998751    12.000000000000
         C           -0.192636466871     1.427689510361    -0.054730998751    12.000000000000
         C            1.111502533129     0.832039510361     0.189506001249    12.000000000000
         C            1.243361533129    -0.498615489639    -0.014770998751    12.000000000000
         H           -0.976315466871    -0.918348489639     1.386427001249     1.007825032230
         H           -1.825707466871    -1.480920489639    -0.080202998751     1.007825032230
         H           -2.263284466871     0.970662510361    -0.365625998751     1.007825032230
         H           -0.261230466871     2.485665510361    -0.294772998751     1.007825032230
         H            1.992829533129     1.436070510361     0.371745001249     1.007825032230
         H            2.190583533129    -1.026551489639    -0.073923998751     1.007825032230

  Basis Set: AUG-CC-PVTZ
    Blend: AUG-CC-PVTZ
  Basis Set: (AUG-CC-PVTZ AUX)
    Blend: AUG-CC-PVTZ-JKFIT
	 Reference Energy          =    -267.7385616494770488 [Eh]
	 Singles Energy            =      -0.0000000000000000 [Eh]
	 Same-Spin Energy          =      -0.2740960448980756 [Eh]
	 Opposite-Spin Energy      =      -0.8858905379246532 [Eh]
	 Correlation Energy        =      -1.1599865828227287 [Eh]
	 Total Energy              =    -268.8985482322997882 [Eh]

	 ================> DF-SCS-MP2 Energies <==================
	-----------------------------------------------------------
	 SCS Same-Spin Scale       =       0.3333333333333333 [-]
	 SCS Opposite-Spin Scale   =       1.2000000000000000 [-]
	 SCS Same-Spin Energy      =      -0.0913653482993585 [Eh]
	 SCS Opposite-Spin Energy  =      -1.0630686455095839 [Eh]
	 SCS Correlation Energy    =      -1.1544339938089425 [Eh]
	 SCS Total Energy          =    -268.8929956432859854 [Eh]
	-----------------------------------------------------------

  Dipole Moment: [D]
     X:    -0.3936      Y:     0.4619      Z:     0.4355     Total:     0.7469

*** Psi4 exiting successfully. Buy a developer a beer!
