                               Psi4 1.4a3.dev225

  ==> Input File <==

--------------------------------------------------------------------------
#psi4
#
memory 32 gb

molecule  {
0 1
  O        0.1973020    -1.3235490    -0.2892290
  C       -1.0344600    -0.8194530     0.2767900
  C       -1.2574290     0.6116450    -0.1105210
  C       -0.1783580     1.4194390    -0.0692080
  C        1.1257810     0.8237890     0.1750290
  C        1.2576400    -0.5068660    -0.0292480
  H       -0.9620370    -0.9265990     1.3719500
  H       -1.8114290    -1.4891710    -0.0946800
  H       -2.2490060     0.9624120    -0.3801030
  H       -0.2469520     2.4774150    -0.3092500
  H        1.9664520     1.3999558     0.3488612
  H        2.2048620    -1.0348020    -0.0884010
units angstrom
no_reorient  #important for SAPT in psi4, default
symmetry c1  #important for SAPT in psi4, default
}

set PROPERTIES_ORIGIN ["COM"]
properties('MP2/aug-cc-pvtz', properties = ['dipole'])
--------------------------------------------------------------------------

    Molecular point group: c1
  Charge       = 0
  Multiplicity = 1
  Basis Set: AUG-CC-PVTZ
    Blend: AUG-CC-PVTZ
  Basis Set: (AUG-CC-PVTZ AUX)
    Blend: AUG-CC-PVTZ-JKFIT

    Orbital Energies [Eh]
    ---------------------

    Doubly Occupied:

       1A    -20.586794     2A    -11.300630     3A    -11.290939
       4A    -11.241201     5A    -11.231009     6A    -11.220311
       7A     -1.407083     8A     -1.096852     9A     -1.035533
      10A     -0.899451    11A     -0.841892    12A     -0.719665
      13A     -0.706126    14A     -0.651032    15A     -0.635904
      16A     -0.606017    17A     -0.573302    18A     -0.533607
      19A     -0.509575    20A     -0.470962    21A     -0.418605
      22A     -0.302038

  @DF-RHF Final Energy:  -267.73726572145745

   => Energetics <=

    Nuclear Repulsion Energy =            223.7449393723425146
    One-Electron Energy =                -806.4073552126582172
    Two-Electron Energy =                 314.9251501188582552
    Total Energy =                       -267.7372657214574474
  Basis Set: (AUG-CC-PVTZ AUX)
    Blend: AUG-CC-PVTZ-RI
    Molecular point group: c1

    Geometry (in Angstrom), charge = 0, multiplicity = 1:

       Center              X                  Y                   Z               Mass
    ------------   -----------------  -----------------  -----------------  -----------------
         O            0.185025171573    -1.306151494059    -0.278782219158    15.994914619570
         C           -1.046736828427    -0.802055494059     0.287236780842    12.000000000000
         C           -1.269705828427     0.629042505941    -0.100074219158    12.000000000000
         C           -0.190634828427     1.436836505941    -0.058761219158    12.000000000000
         C            1.113504171573     0.841186505941     0.185475780842    12.000000000000
         C            1.245363171573    -0.489468494059    -0.018801219158    12.000000000000
         H           -0.974313828427    -0.909201494059     1.382396780842     1.007825032230
         H           -1.823705828427    -1.471773494059    -0.084233219158     1.007825032230
         H           -2.261282828427     0.979809505941    -0.369656219158     1.007825032230
         H           -0.259228828427     2.494812505941    -0.298803219158     1.007825032230
         H            1.954175171573     1.417353305941     0.359307980842     1.007825032230
         H            2.192585171573    -1.017404494059    -0.077954219158     1.007825032230

  Basis Set: AUG-CC-PVTZ
    Blend: AUG-CC-PVTZ
  Basis Set: (AUG-CC-PVTZ AUX)
    Blend: AUG-CC-PVTZ-JKFIT
	 Reference Energy          =    -267.7372657214574474 [Eh]
	 Singles Energy            =      -0.0000000000000000 [Eh]
	 Same-Spin Energy          =      -0.2740614625127133 [Eh]
	 Opposite-Spin Energy      =      -0.8865122353884678 [Eh]
	 Correlation Energy        =      -1.1605736979011811 [Eh]
	 Total Energy              =    -268.8978394193586041 [Eh]

	 ================> DF-SCS-MP2 Energies <==================
	-----------------------------------------------------------
	 SCS Same-Spin Scale       =       0.3333333333333333 [-]
	 SCS Opposite-Spin Scale   =       1.2000000000000000 [-]
	 SCS Same-Spin Energy      =      -0.0913538208375711 [Eh]
	 SCS Opposite-Spin Energy  =      -1.0638146824661614 [Eh]
	 SCS Correlation Energy    =      -1.1551685033037324 [Eh]
	 SCS Total Energy          =    -268.8924342247611889 [Eh]
	-----------------------------------------------------------

  Dipole Moment: [D]
     X:    -0.3147      Y:     0.6232      Z:     0.4204     Total:     0.8150

*** Psi4 exiting successfully. Buy a developer a beer!
