                               Psi4 1.3.2 release

  ==> Input File <==

--------------------------------------------------------------------------
#psi4
#
memory 32 gb

molecule  {
0 1
  O        0.1973020    -1.3235490    -0.2892290
  C       -1.0344600    -0.8194530     0.2767900
  C       -1.2574290     0.6116450    -0.1105210
  C       -0.1783580     1.4194390    -0.0692080
  C        1.1666984     0.9151791     0.1583317
  C        1.2576400    -0.5068660    -0.0292480
  H       -0.9620370    -0.9265990     1.3719500
  H       -1.8114290    -1.4891710    -0.0946800
  H       -2.2490060     0.9624120    -0.3801030
  H       -0.2469520     2.4774150    -0.3092500
  H        2.0071080     1.4278200     0.3572680
  H        2.2048620    -1.0348020    -0.0884010
units angstrom
no_reorient  #important for SAPT in psi4, default
symmetry c1  #important for SAPT in psi4, default
}

set PROPERTIES_ORIGIN ["COM"]
properties('MP2/aug-cc-pvtz', properties = ['dipole'])
--------------------------------------------------------------------------

    Molecular point group: c1
  Charge       = 0
  Multiplicity = 1
  Basis Set: AUG-CC-PVTZ
    Blend: AUG-CC-PVTZ
  Basis Set: (AUG-CC-PVTZ AUX)
    Blend: AUG-CC-PVTZ-JKFIT

    Orbital Energies [Eh]
    ---------------------

    Doubly Occupied:

       1A    -20.595445     2A    -11.317443     3A    -11.292536
       4A    -11.242798     5A    -11.230719     6A    -11.229451
       7A     -1.411836     8A     -1.091862     9A     -1.028385
      10A     -0.894826    11A     -0.846163    12A     -0.718165
      13A     -0.710834    14A     -0.651339    15A     -0.641922
      16A     -0.600180    17A     -0.576158    18A     -0.540312
      19A     -0.513768    20A     -0.462739    21A     -0.416409
      22A     -0.292683

  @DF-RHF Final Energy:  -267.72119241580498

   => Energetics <=

    Nuclear Repulsion Energy =            222.0454283498593213
    One-Electron Energy =                -802.9212971897503621
    Two-Electron Energy =                 313.1546764240860625
    Total Energy =                       -267.7211924158049783
  Basis Set: (AUG-CC-PVTZ AUX)
    Blend: AUG-CC-PVTZ-RI
    Molecular point group: c1

    Geometry (in Angstrom), charge = 0, multiplicity = 1:

       Center              X                  Y                   Z               Mass
    ------------   -----------------  -----------------  -----------------  -----------------
         O            0.178540885340    -1.319861121952    -0.276443230192    15.994914619570
         C           -1.053221114660    -0.815765121952     0.289575769808    12.000000000000
         C           -1.276190114660     0.615332878048    -0.097735230192    12.000000000000
         C           -0.197119114660     1.423126878048    -0.056422230192    12.000000000000
         C            1.147937285340     0.918866978048     0.171117469808    12.000000000000
         C            1.238878885340    -0.503178121952    -0.016462230192    12.000000000000
         H           -0.980798114660    -0.922911121952     1.384735769808     1.007825032230
         H           -1.830190114660    -1.485483121952    -0.081894230192     1.007825032230
         H           -2.267767114660     0.966099878048    -0.367317230192     1.007825032230
         H           -0.265713114660     2.481102878048    -0.296464230192     1.007825032230
         H            1.988346885340     1.431507878048     0.370053769808     1.007825032230
         H            2.186100885340    -1.031114121952    -0.075615230192     1.007825032230

  Basis Set: AUG-CC-PVTZ
    Blend: AUG-CC-PVTZ
  Basis Set: (AUG-CC-PVTZ AUX)
    Blend: AUG-CC-PVTZ-JKFIT
	 Reference Energy          =    -267.7211924158049783 [Eh]
	 Singles Energy            =      -0.0000000000000000 [Eh]
	 Same-Spin Energy          =      -0.2752865803553909 [Eh]
	 Opposite-Spin Energy      =      -0.8894062670135358 [Eh]
	 Correlation Energy        =      -1.1646928473689266 [Eh]
	 Total Energy              =    -268.8858852631739182 [Eh]

	 ================> DF-SCS-MP2 Energies <==================
	-----------------------------------------------------------
	 SCS Same-Spin Scale       =       0.3333333333333333 [-]
	 SCS Opposite-Spin Scale   =       1.2000000000000000 [-]
	 SCS Same-Spin Energy      =      -0.0917621934517970 [Eh]
	 SCS Opposite-Spin Energy  =      -1.0672875204162429 [Eh]
	 SCS Correlation Energy    =      -1.1590497138680398 [Eh]
	 SCS Total Energy          =    -268.8802421296730358 [Eh]
	-----------------------------------------------------------

  Dipole Moment: [D]
     X:    -0.3233      Y:     0.5121      Z:     0.4466     Total:     0.7525

*** Psi4 exiting successfully. Buy a developer a beer!
