                               Psi4 1.3.2 release

  ==> Input File <==

--------------------------------------------------------------------------
#psi4
#
memory 32 gb

molecule  {
0 1
  O        0.1973020    -1.3235490    -0.2892290
  C       -1.0344600    -0.8194530     0.2767900
  C       -1.2574290     0.6116450    -0.1105210
  C       -0.1783580     1.4194390    -0.0692080
  C        1.2199837     0.8292888     0.1781913
  C        1.2576400    -0.5068660    -0.0292480
  H       -0.9620370    -0.9265990     1.3719500
  H       -1.8114290    -1.4891710    -0.0946800
  H       -2.2490060     0.9624120    -0.3801030
  H       -0.2469520     2.4774150    -0.3092500
  H        2.0071080     1.4278200     0.3572680
  H        2.2048620    -1.0348020    -0.0884010
units angstrom
no_reorient  #important for SAPT in psi4, default
symmetry c1  #important for SAPT in psi4, default
}

set PROPERTIES_ORIGIN ["COM"]
properties('MP2/aug-cc-pvtz', properties = ['dipole'])
--------------------------------------------------------------------------

    Molecular point group: c1
  Charge       = 0
  Multiplicity = 1
  Basis Set: AUG-CC-PVTZ
    Blend: AUG-CC-PVTZ
  Basis Set: (AUG-CC-PVTZ AUX)
    Blend: AUG-CC-PVTZ-JKFIT

    Orbital Energies [Eh]
    ---------------------

    Doubly Occupied:

       1A    -20.590392     2A    -11.301594     3A    -11.291662
       4A    -11.246818     5A    -11.231823     6A    -11.226306
       7A     -1.408335     8A     -1.086019     9A     -1.036659
      10A     -0.901804    11A     -0.835116    12A     -0.718083
      13A     -0.708091    14A     -0.657293    15A     -0.636976
      16A     -0.605199    17A     -0.572201    18A     -0.524570
      19A     -0.515227    20A     -0.464807    21A     -0.411067
      22A     -0.308649

  @DF-RHF Final Energy:  -267.72907641966117

   => Energetics <=

    Nuclear Repulsion Energy =            222.2554769418949547
    One-Electron Energy =                -803.4117257315346023
    Two-Electron Energy =                 313.4271723699785070
    Total Energy =                       -267.7290764196611690
  Basis Set: (AUG-CC-PVTZ AUX)
    Blend: AUG-CC-PVTZ-RI
    Molecular point group: c1

    Geometry (in Angstrom), charge = 0, multiplicity = 1:

       Center              X                  Y                   Z               Mass
    ------------   -----------------  -----------------  -----------------  -----------------
         O            0.170747015693    -1.307298223700    -0.279348030084    15.994914619570
         C           -1.061014984307    -0.803202223700     0.286670969916    12.000000000000
         C           -1.283983984307     0.627895776300    -0.100640030084    12.000000000000
         C           -0.204912984307     1.435689776300    -0.059327030084    12.000000000000
         C            1.193428715693     0.845539576300     0.188072269916    12.000000000000
         C            1.231085015693    -0.490615223700    -0.019367030084    12.000000000000
         H           -0.988591984307    -0.910348223700     1.381830969916     1.007825032230
         H           -1.837983984307    -1.472920223700    -0.084799030084     1.007825032230
         H           -2.275560984307     0.978662776300    -0.370222030084     1.007825032230
         H           -0.273506984307     2.493665776300    -0.299369030084     1.007825032230
         H            1.980553015693     1.444070776300     0.367148969916     1.007825032230
         H            2.178307015693    -1.018551223700    -0.078520030084     1.007825032230

  Basis Set: AUG-CC-PVTZ
    Blend: AUG-CC-PVTZ
  Basis Set: (AUG-CC-PVTZ AUX)
    Blend: AUG-CC-PVTZ-JKFIT
	 Reference Energy          =    -267.7290764196611690 [Eh]
	 Singles Energy            =      -0.0000000000000000 [Eh]
	 Same-Spin Energy          =      -0.2729941482986503 [Eh]
	 Opposite-Spin Energy      =      -0.8863266711772946 [Eh]
	 Correlation Energy        =      -1.1593208194759450 [Eh]
	 Total Energy              =    -268.8883972391371344 [Eh]

	 ================> DF-SCS-MP2 Energies <==================
	-----------------------------------------------------------
	 SCS Same-Spin Scale       =       0.3333333333333333 [-]
	 SCS Opposite-Spin Scale   =       1.2000000000000000 [-]
	 SCS Same-Spin Energy      =      -0.0909980494328834 [Eh]
	 SCS Opposite-Spin Energy  =      -1.0635920054127534 [Eh]
	 SCS Correlation Energy    =      -1.1545900548456369 [Eh]
	 SCS Total Energy          =    -268.8836664745068106 [Eh]
	-----------------------------------------------------------

  Dipole Moment: [D]
     X:    -0.3851      Y:     0.6402      Z:     0.4476     Total:     0.8709

*** Psi4 exiting successfully. Buy a developer a beer!
