                               Psi4 1.3.2 release

  ==> Input File <==

--------------------------------------------------------------------------
#psi4
#
memory 32 gb

molecule  {
0 1
  O        0.1973020    -1.3235490    -0.2892290
  C       -1.0344600    -0.8194530     0.2767900
  C       -1.2574290     0.6116450    -0.1105210
  C       -0.1783580     1.4194390    -0.0692080
  C        1.1257810     0.8237890     0.1750290
  C        1.2381441    -0.3101233     0.0009552
  H       -0.9620370    -0.9265990     1.3719500
  H       -1.8114290    -1.4891710    -0.0946800
  H       -2.2490060     0.9624120    -0.3801030
  H       -0.2469520     2.4774150    -0.3092500
  H        2.0071080     1.4278200     0.3572680
  H        2.2048620    -1.0348020    -0.0884010
units angstrom
no_reorient  #important for SAPT in psi4, default
symmetry c1  #important for SAPT in psi4, default
}

set PROPERTIES_ORIGIN ["COM"]
properties('MP2/aug-cc-pvtz', properties = ['dipole'])
--------------------------------------------------------------------------

    Molecular point group: c1
  Charge       = 0
  Multiplicity = 1
  Basis Set: AUG-CC-PVTZ
    Blend: AUG-CC-PVTZ
  Basis Set: (AUG-CC-PVTZ AUX)
    Blend: AUG-CC-PVTZ-JKFIT

    Orbital Energies [Eh]
    ---------------------

    Doubly Occupied:

       1A    -20.572142     2A    -11.281944     3A    -11.278760
       4A    -11.244668     5A    -11.237369     6A    -11.207614
       7A     -1.363940     8A     -1.134899     9A     -1.049367
      10A     -0.907672    11A     -0.819773    12A     -0.715421
      13A     -0.692611    14A     -0.647059    15A     -0.626997
      16A     -0.590898    17A     -0.570768    18A     -0.517013
      19A     -0.488490    20A     -0.475457    21A     -0.431451
      22A     -0.333575

  @DF-RHF Final Energy:  -267.66458536458055

   => Energetics <=

    Nuclear Repulsion Energy =            225.1312747421027325
    One-Electron Energy =                -809.2159459286675656
    Two-Electron Energy =                 316.4200858219842871
    Total Energy =                       -267.6645853645805460
  Basis Set: (AUG-CC-PVTZ AUX)
    Blend: AUG-CC-PVTZ-RI
    Molecular point group: c1

    Geometry (in Angstrom), charge = 0, multiplicity = 1:

       Center              X                  Y                   Z               Mass
    ------------   -----------------  -----------------  -----------------  -----------------
         O            0.187377344649    -1.335270708300    -0.283303215656    15.994914619570
         C           -1.044384655351    -0.831174708300     0.282715784344    12.000000000000
         C           -1.267353655351     0.599923291700    -0.104595215656    12.000000000000
         C           -0.188282655351     1.407717291700    -0.063282215656    12.000000000000
         C            1.115856344649     0.812067291700     0.180954784344    12.000000000000
         C            1.228219444649    -0.321845008300     0.006880984344    12.000000000000
         H           -0.971961655351    -0.938320708300     1.377875784344     1.007825032230
         H           -1.821353655351    -1.500892708300    -0.088754215656     1.007825032230
         H           -2.258930655351     0.950690291700    -0.374177215656     1.007825032230
         H           -0.256876655351     2.465693291700    -0.303324215656     1.007825032230
         H            1.997183344649     1.416098291700     0.363193784344     1.007825032230
         H            2.194937344649    -1.046523708300    -0.082475215656     1.007825032230

  Basis Set: AUG-CC-PVTZ
    Blend: AUG-CC-PVTZ
  Basis Set: (AUG-CC-PVTZ AUX)
    Blend: AUG-CC-PVTZ-JKFIT
	 Reference Energy          =    -267.6645853645805460 [Eh]
	 Singles Energy            =      -0.0000000000000000 [Eh]
	 Same-Spin Energy          =      -0.2738787722896954 [Eh]
	 Opposite-Spin Energy      =      -0.8876041593607199 [Eh]
	 Correlation Energy        =      -1.1614829316504154 [Eh]
	 Total Energy              =    -268.8260682962309716 [Eh]

	 ================> DF-SCS-MP2 Energies <==================
	-----------------------------------------------------------
	 SCS Same-Spin Scale       =       0.3333333333333333 [-]
	 SCS Opposite-Spin Scale   =       1.2000000000000000 [-]
	 SCS Same-Spin Energy      =      -0.0912929240965651 [Eh]
	 SCS Opposite-Spin Energy  =      -1.0651249912328637 [Eh]
	 SCS Correlation Energy    =      -1.1564179153294289 [Eh]
	 SCS Total Energy          =    -268.8210032799099736 [Eh]
	-----------------------------------------------------------

  Dipole Moment: [D]
     X:    -0.2133      Y:     1.3159      Z:     0.5479     Total:     1.4413

*** Psi4 exiting successfully. Buy a developer a beer!
