                               Psi4 1.4a3.dev225

  ==> Input File <==

--------------------------------------------------------------------------
#psi4
#
memory 32 gb

molecule  {
0 1
  O        0.1973020    -1.3235490    -0.2892290
  C       -1.0344600    -0.8194530     0.2767900
  C       -1.2574290     0.6116450    -0.1105210
  C       -0.2183661     1.3894889    -0.0707397
  C        1.1257810     0.8237890     0.1750290
  C        1.2576400    -0.5068660    -0.0292480
  H       -0.9620370    -0.9265990     1.3719500
  H       -1.8114290    -1.4891710    -0.0946800
  H       -2.2490060     0.9624120    -0.3801030
  H       -0.2469520     2.4774150    -0.3092500
  H        2.0071080     1.4278200     0.3572680
  H        2.2048620    -1.0348020    -0.0884010
units angstrom
no_reorient  #important for SAPT in psi4, default
symmetry c1  #important for SAPT in psi4, default
}

set PROPERTIES_ORIGIN ["COM"]
properties('MP2/aug-cc-pvtz', properties = ['dipole'])
--------------------------------------------------------------------------

    Molecular point group: c1
  Charge       = 0
  Multiplicity = 1
  Basis Set: AUG-CC-PVTZ
    Blend: AUG-CC-PVTZ
  Basis Set: (AUG-CC-PVTZ AUX)
    Blend: AUG-CC-PVTZ-JKFIT

    Orbital Energies [Eh]
    ---------------------

    Doubly Occupied:

       1A    -20.586278     2A    -11.299257     3A    -11.290650
       4A    -11.238222     5A    -11.226609     6A    -11.224384
       7A     -1.406877     8A     -1.101603     9A     -1.034794
      10A     -0.902391    11A     -0.835528    12A     -0.716160
      13A     -0.702209    14A     -0.650501    15A     -0.633077
      16A     -0.606842    17A     -0.567517    18A     -0.531307
      19A     -0.511011    20A     -0.465073    21A     -0.422071
      22A     -0.309020

  @DF-RHF Final Energy:  -267.73690526954454

   => Energetics <=

    Nuclear Repulsion Energy =            223.9985826827986273
    One-Electron Energy =                -806.9482138177454544
    Two-Electron Energy =                 315.2127258654022626
    Total Energy =                       -267.7369052695445362
  Basis Set: (AUG-CC-PVTZ AUX)
    Blend: AUG-CC-PVTZ-RI
    Molecular point group: c1

    Geometry (in Angstrom), charge = 0, multiplicity = 1:

       Center              X                  Y                   Z               Mass
    ------------   -----------------  -----------------  -----------------  -----------------
         O            0.190377598246    -1.302113080713    -0.278661453784    15.994914619570
         C           -1.041384401754    -0.798017080713     0.287357546216    12.000000000000
         C           -1.264353401754     0.633080919287    -0.099953453784    12.000000000000
         C           -0.225290501754     1.410924819287    -0.060172153784    12.000000000000
         C            1.118856598246     0.845224919287     0.185596546216    12.000000000000
         C            1.250715598246    -0.485430080713    -0.018680453784    12.000000000000
         H           -0.968961401754    -0.905163080713     1.382517546216     1.007825032230
         H           -1.818353401754    -1.467735080713    -0.084112453784     1.007825032230
         H           -2.255930401754     0.983847919287    -0.369535453784     1.007825032230
         H           -0.253876401754     2.498850919287    -0.298682453784     1.007825032230
         H            2.000183598246     1.449255919287     0.367835546216     1.007825032230
         H            2.197937598246    -1.013366080713    -0.077833453784     1.007825032230

  Basis Set: AUG-CC-PVTZ
    Blend: AUG-CC-PVTZ
  Basis Set: (AUG-CC-PVTZ AUX)
    Blend: AUG-CC-PVTZ-JKFIT
	 Reference Energy          =    -267.7369052695445362 [Eh]
	 Singles Energy            =      -0.0000000000000000 [Eh]
	 Same-Spin Energy          =      -0.2733107159678720 [Eh]
	 Opposite-Spin Energy      =      -0.8853577968893840 [Eh]
	 Correlation Energy        =      -1.1586685128572560 [Eh]
	 Total Energy              =    -268.8955737824018115 [Eh]

	 ================> DF-SCS-MP2 Energies <==================
	-----------------------------------------------------------
	 SCS Same-Spin Scale       =       0.3333333333333333 [-]
	 SCS Opposite-Spin Scale   =       1.2000000000000000 [-]
	 SCS Same-Spin Energy      =      -0.0911035719892907 [Eh]
	 SCS Opposite-Spin Energy  =      -1.0624293562672606 [Eh]
	 SCS Correlation Energy    =      -1.1535329282565514 [Eh]
	 SCS Total Energy          =    -268.8904381978010747 [Eh]
	-----------------------------------------------------------

  Dipole Moment: [D]
     X:    -0.3598      Y:     0.6288      Z:     0.4253     Total:     0.8400

*** Psi4 exiting successfully. Buy a developer a beer!
