                               Psi4 1.4a3.dev225

  ==> Input File <==

--------------------------------------------------------------------------
#psi4
#
memory 32 gb

molecule  {
0 1
  O        0.1973020    -1.3235490    -0.2892290
  C       -1.0344600    -0.8194530     0.2767900
  C       -1.2574290     0.6116450    -0.1105210
  C       -0.1783580     1.4194390    -0.0692080
  C        1.1257810     0.8237890     0.1750290
  C        1.2187544    -0.5368161    -0.0387822
  H       -0.9620370    -0.9265990     1.3719500
  H       -1.8114290    -1.4891710    -0.0946800
  H       -2.2490060     0.9624120    -0.3801030
  H       -0.2469520     2.4774150    -0.3092500
  H        2.0071080     1.4278200     0.3572680
  H        2.2048620    -1.0348020    -0.0884010
units angstrom
no_reorient  #important for SAPT in psi4, default
symmetry c1  #important for SAPT in psi4, default
}

set PROPERTIES_ORIGIN ["COM"]
properties('MP2/aug-cc-pvtz', properties = ['dipole'])
--------------------------------------------------------------------------

    Molecular point group: c1
  Charge       = 0
  Multiplicity = 1
  Basis Set: AUG-CC-PVTZ
    Blend: AUG-CC-PVTZ
  Basis Set: (AUG-CC-PVTZ AUX)
    Blend: AUG-CC-PVTZ-JKFIT

    Orbital Energies [Eh]
    ---------------------

    Doubly Occupied:

       1A    -20.596050     2A    -11.307076     3A    -11.294772
       4A    -11.240847     5A    -11.227997     6A    -11.224201
       7A     -1.433457     8A     -1.094825     9A     -1.033056
      10A     -0.898777    11A     -0.842133    12A     -0.721094
      13A     -0.706944    14A     -0.657464    15A     -0.638021
      16A     -0.608481    17A     -0.570298    18A     -0.535312
      19A     -0.515392    20A     -0.468492    21A     -0.416400
      22A     -0.294850

  @DF-RHF Final Energy:  -267.73546061095567

   => Energetics <=

    Nuclear Repulsion Energy =            224.0719882578871420
    One-Electron Energy =                -806.9630177700522609
    Two-Electron Energy =                 315.1555689012094490
    Total Energy =                       -267.7354606109556698
  Basis Set: (AUG-CC-PVTZ AUX)
    Blend: AUG-CC-PVTZ-RI
    Molecular point group: c1

    Geometry (in Angstrom), charge = 0, multiplicity = 1:

       Center              X                  Y                   Z               Mass
    ------------   -----------------  -----------------  -----------------  -----------------
         O            0.190213413777    -1.302113080713    -0.277490953817    15.994914619570
         C           -1.041548586223    -0.798017080713     0.288528046183    12.000000000000
         C           -1.264517586223     0.633080919287    -0.098782953817    12.000000000000
         C           -0.185446586223     1.440874919287    -0.057469953817    12.000000000000
         C            1.118692413777     0.845224919287     0.186767046183    12.000000000000
         C            1.211665813777    -0.515380180713    -0.027044153817    12.000000000000
         H           -0.969125586223    -0.905163080713     1.383688046183     1.007825032230
         H           -1.818517586223    -1.467735080713    -0.082941953817     1.007825032230
         H           -2.256094586223     0.983847919287    -0.368364953817     1.007825032230
         H           -0.254040586223     2.498850919287    -0.297511953817     1.007825032230
         H            2.000019413777     1.449255919287     0.369006046183     1.007825032230
         H            2.197773413777    -1.013366080713    -0.076662953817     1.007825032230

  Basis Set: AUG-CC-PVTZ
    Blend: AUG-CC-PVTZ
  Basis Set: (AUG-CC-PVTZ AUX)
    Blend: AUG-CC-PVTZ-JKFIT
	 Reference Energy          =    -267.7354606109556698 [Eh]
	 Singles Energy            =      -0.0000000000000000 [Eh]
	 Same-Spin Energy          =      -0.2746113017787495 [Eh]
	 Opposite-Spin Energy      =      -0.8865204752142419 [Eh]
	 Correlation Energy        =      -1.1611317769929914 [Eh]
	 Total Energy              =    -268.8965923879486581 [Eh]

	 ================> DF-SCS-MP2 Energies <==================
	-----------------------------------------------------------
	 SCS Same-Spin Scale       =       0.3333333333333333 [-]
	 SCS Opposite-Spin Scale   =       1.2000000000000000 [-]
	 SCS Same-Spin Energy      =      -0.0915371005929165 [Eh]
	 SCS Opposite-Spin Energy  =      -1.0638245702570903 [Eh]
	 SCS Correlation Energy    =      -1.1553616708500067 [Eh]
	 SCS Total Energy          =    -268.8908222818056970 [Eh]
	-----------------------------------------------------------

  Dipole Moment: [D]
     X:    -0.4314      Y:     0.4191      Z:     0.3830     Total:     0.7130

*** Psi4 exiting successfully. Buy a developer a beer!
