                               Psi4 1.3.2 release

  ==> Input File <==

--------------------------------------------------------------------------
#psi4
#
memory 32 gb

molecule  {
0 1
  O        0.1973020    -1.3235490    -0.2892290
  C       -1.0344600    -0.8194530     0.2767900
  C       -1.2582685     0.5625694    -0.2595776
  C       -0.1783580     1.4194390    -0.0692080
  C        1.1257810     0.8237890     0.1750290
  C        1.2576400    -0.5068660    -0.0292480
  H       -0.9620370    -0.9265990     1.3719500
  H       -1.8114290    -1.4891710    -0.0946800
  H       -2.2490060     0.9624120    -0.3801030
  H       -0.2469520     2.4774150    -0.3092500
  H        2.0071080     1.4278200     0.3572680
  H        2.2048620    -1.0348020    -0.0884010
units angstrom
no_reorient  #important for SAPT in psi4, default
symmetry c1  #important for SAPT in psi4, default
}

set PROPERTIES_ORIGIN ["COM"]
properties('MP2/aug-cc-pvtz', properties = ['dipole'])
--------------------------------------------------------------------------

    Molecular point group: c1
  Charge       = 0
  Multiplicity = 1
  Basis Set: AUG-CC-PVTZ
    Blend: AUG-CC-PVTZ
  Basis Set: (AUG-CC-PVTZ AUX)
    Blend: AUG-CC-PVTZ-JKFIT

    Orbital Energies [Eh]
    ---------------------

    Doubly Occupied:

       1A    -20.587409     2A    -11.303336     3A    -11.291060
       4A    -11.250801     5A    -11.233153     6A    -11.227536
       7A     -1.408239     8A     -1.090671     9A     -1.035089
      10A     -0.893951    11A     -0.841660    12A     -0.719753
      13A     -0.705863    14A     -0.645125    15A     -0.635635
      16A     -0.600433    17A     -0.574956    18A     -0.532971
      19A     -0.500834    20A     -0.474412    21A     -0.414186
      22A     -0.299897

  @DF-RHF Final Energy:  -267.72678761071836

   => Energetics <=

    Nuclear Repulsion Energy =            223.1712988589537190
    One-Electron Energy =                -805.2622356887338810
    Two-Electron Energy =                 314.3641492190618010
    Total Energy =                       -267.7267876107183611
  Basis Set: (AUG-CC-PVTZ AUX)
    Blend: AUG-CC-PVTZ-RI
    Molecular point group: c1

    Geometry (in Angstrom), charge = 0, multiplicity = 1:

       Center              X                  Y                   Z               Mass
    ------------   -----------------  -----------------  -----------------  -----------------
         O            0.184648532956    -1.299315655270    -0.257083460596    15.994914619570
         C           -1.047113467044    -0.795219655270     0.308935539404    12.000000000000
         C           -1.270921967044     0.586802744730    -0.227432060596    12.000000000000
         C           -0.191011467044     1.443672344730    -0.037062460596    12.000000000000
         C            1.113127532956     0.848022344730     0.207174539404    12.000000000000
         C            1.244986532956    -0.482632655270     0.002897539404    12.000000000000
         H           -0.974690467044    -0.902365655270     1.404095539404     1.007825032230
         H           -1.824082467044    -1.464937655270    -0.062534460596     1.007825032230
         H           -2.261659467044     0.986645344730    -0.347957460596     1.007825032230
         H           -0.259605467044     2.501648344730    -0.277104460596     1.007825032230
         H            1.994454532956     1.452053344730     0.389413539404     1.007825032230
         H            2.192208532956    -1.010568655270    -0.056255460596     1.007825032230

  Basis Set: AUG-CC-PVTZ
    Blend: AUG-CC-PVTZ
  Basis Set: (AUG-CC-PVTZ AUX)
    Blend: AUG-CC-PVTZ-JKFIT
	 Reference Energy          =    -267.7267876107183611 [Eh]
	 Singles Energy            =      -0.0000000000000000 [Eh]
	 Same-Spin Energy          =      -0.2753563850330540 [Eh]
	 Opposite-Spin Energy      =      -0.8892935217581179 [Eh]
	 Correlation Energy        =      -1.1646499067911720 [Eh]
	 Total Energy              =    -268.8914375175095302 [Eh]

	 ================> DF-SCS-MP2 Energies <==================
	-----------------------------------------------------------
	 SCS Same-Spin Scale       =       0.3333333333333333 [-]
	 SCS Opposite-Spin Scale   =       1.2000000000000000 [-]
	 SCS Same-Spin Energy      =      -0.0917854616776847 [Eh]
	 SCS Opposite-Spin Energy  =      -1.0671522261097415 [Eh]
	 SCS Correlation Energy    =      -1.1589376877874262 [Eh]
	 SCS Total Energy          =    -268.8857252985058039 [Eh]
	-----------------------------------------------------------

  Dipole Moment: [D]
     X:    -0.2526      Y:     0.6519      Z:     0.6048     Total:     0.9245

*** Psi4 exiting successfully. Buy a developer a beer!
