                               Psi4 1.3.2 release

  ==> Input File <==

--------------------------------------------------------------------------
#psi4
#
memory 32 gb

molecule  {
0 1
  O        0.1973020    -1.3235490    -0.2892290
  C       -1.0344600    -0.8194530     0.2767900
  C       -1.2574290     0.6116450    -0.1105210
  C       -0.1783580     1.4194390    -0.0692080
  C        1.1257810     0.8237890     0.1750290
  C        1.4131824    -0.3870657     0.0088890
  H       -0.9620370    -0.9265990     1.3719500
  H       -1.8114290    -1.4891710    -0.0946800
  H       -2.2490060     0.9624120    -0.3801030
  H       -0.2469520     2.4774150    -0.3092500
  H        2.0071080     1.4278200     0.3572680
  H        2.2048620    -1.0348020    -0.0884010
units angstrom
no_reorient  #important for SAPT in psi4, default
symmetry c1  #important for SAPT in psi4, default
}

set PROPERTIES_ORIGIN ["COM"]
properties('MP2/aug-cc-pvtz', properties = ['dipole'])
--------------------------------------------------------------------------

    Molecular point group: c1
  Charge       = 0
  Multiplicity = 1
  Basis Set: AUG-CC-PVTZ
    Blend: AUG-CC-PVTZ
  Basis Set: (AUG-CC-PVTZ AUX)
    Blend: AUG-CC-PVTZ-JKFIT

    Orbital Energies [Eh]
    ---------------------

    Doubly Occupied:

       1A    -20.555106     2A    -11.287574     3A    -11.278657
       4A    -11.245046     5A    -11.241075     6A    -11.231617
       7A     -1.332562     8A     -1.108012     9A     -1.045427
      10A     -0.898646    11A     -0.835861    12A     -0.723539
      13A     -0.699447    14A     -0.635641    15A     -0.616048
      16A     -0.605127    17A     -0.560040    18A     -0.526308
      19A     -0.474449    20A     -0.462998    21A     -0.423459
      22A     -0.327079

  @DF-RHF Final Energy:  -267.70103885734079

   => Energetics <=

    Nuclear Repulsion Energy =            221.5702026711667827
    One-Electron Energy =                -802.3150529050435580
    Two-Electron Energy =                 313.0438113765360413
    Total Energy =                       -267.7010388573407909
  Basis Set: (AUG-CC-PVTZ AUX)
    Blend: AUG-CC-PVTZ-RI
    Molecular point group: c1

    Geometry (in Angstrom), charge = 0, multiplicity = 1:

       Center              X                  Y                   Z               Mass
    ------------   -----------------  -----------------  -----------------  -----------------
         O            0.161775054833    -1.324016590636    -0.284463667094    15.994914619570
         C           -1.069986945167    -0.819920590636     0.281555332906    12.000000000000
         C           -1.292955945167     0.611177409364    -0.105755667094    12.000000000000
         C           -0.213884945167     1.418971409364    -0.064442667094    12.000000000000
         C            1.090254054833     0.823321409364     0.179794332906    12.000000000000
         C            1.377655454833    -0.387533290636     0.013654332906    12.000000000000
         H           -0.997563945167    -0.927066590636     1.376715332906     1.007825032230
         H           -1.846955945167    -1.489638590636    -0.089914667094     1.007825032230
         H           -2.284532945167     0.961944409364    -0.375337667094     1.007825032230
         H           -0.282478945167     2.476947409364    -0.304484667094     1.007825032230
         H            1.971581054833     1.427352409364     0.362033332906     1.007825032230
         H            2.169335054833    -1.035269590636    -0.083635667094     1.007825032230

  Basis Set: AUG-CC-PVTZ
    Blend: AUG-CC-PVTZ
  Basis Set: (AUG-CC-PVTZ AUX)
    Blend: AUG-CC-PVTZ-JKFIT
	 Reference Energy          =    -267.7010388573407909 [Eh]
	 Singles Energy            =      -0.0000000000000000 [Eh]
	 Same-Spin Energy          =      -0.2737011455420809 [Eh]
	 Opposite-Spin Energy      =      -0.8893384159685616 [Eh]
	 Correlation Energy        =      -1.1630395615106424 [Eh]
	 Total Energy              =    -268.8640784188514203 [Eh]

	 ================> DF-SCS-MP2 Energies <==================
	-----------------------------------------------------------
	 SCS Same-Spin Scale       =       0.3333333333333333 [-]
	 SCS Opposite-Spin Scale   =       1.2000000000000000 [-]
	 SCS Same-Spin Energy      =      -0.0912337151806936 [Eh]
	 SCS Opposite-Spin Energy  =      -1.0672060991622738 [Eh]
	 SCS Correlation Energy    =      -1.1584398143429675 [Eh]
	 SCS Total Energy          =    -268.8594786716837461 [Eh]
	-----------------------------------------------------------

  Dipole Moment: [D]
     X:     0.0552      Y:     1.3020      Z:     0.5395     Total:     1.4104

*** Psi4 exiting successfully. Buy a developer a beer!
