                               Psi4 1.3.2 release

  ==> Input File <==

--------------------------------------------------------------------------
#psi4
#
memory 32 gb

molecule  {
0 1
  O        0.1973020    -1.3235490    -0.2892290
  C       -1.0344600    -0.8194530     0.2767900
  C       -1.2574290     0.6116450    -0.1105210
  C       -0.2058032     1.4553956    -0.0822315
  C        1.1257810     0.8237890     0.1750290
  C        1.2576400    -0.5068660    -0.0292480
  H       -0.9620370    -0.9265990     1.3719500
  H       -1.8114290    -1.4891710    -0.0946800
  H       -2.2490060     0.9624120    -0.3801030
  H       -0.2469520     2.4774150    -0.3092500
  H        2.0071080     1.4278200     0.3572680
  H        2.2048620    -1.0348020    -0.0884010
units angstrom
no_reorient  #important for SAPT in psi4, default
symmetry c1  #important for SAPT in psi4, default
}

set PROPERTIES_ORIGIN ["COM"]
properties('MP2/aug-cc-pvtz', properties = ['dipole'])
--------------------------------------------------------------------------

    Molecular point group: c1
  Charge       = 0
  Multiplicity = 1
  Basis Set: AUG-CC-PVTZ
    Blend: AUG-CC-PVTZ
  Basis Set: (AUG-CC-PVTZ AUX)
    Blend: AUG-CC-PVTZ-JKFIT

    Orbital Energies [Eh]
    ---------------------

    Doubly Occupied:

       1A    -20.585955     2A    -11.299048     3A    -11.292593
       4A    -11.241776     5A    -11.233330     6A    -11.228012
       7A     -1.406267     8A     -1.091467     9A     -1.032887
      10A     -0.902048    11A     -0.836978    12A     -0.721071
      13A     -0.703325    14A     -0.646735    15A     -0.633504
      16A     -0.610901    17A     -0.572914    18A     -0.526777
      19A     -0.508493    20A     -0.472135    21A     -0.414671
      22A     -0.304599

  @DF-RHF Final Energy:  -267.73649326778974

   => Energetics <=

    Nuclear Repulsion Energy =            222.8535814400155459
    One-Electron Energy =                -804.6491800099768170
    Two-Electron Energy =                 314.0591053021715311
    Total Energy =                       -267.7364932677897400
  Basis Set: (AUG-CC-PVTZ AUX)
    Blend: AUG-CC-PVTZ-RI
    Molecular point group: c1

    Geometry (in Angstrom), charge = 0, multiplicity = 1:

       Center              X                  Y                   Z               Mass
    ------------   -----------------  -----------------  -----------------  -----------------
         O            0.188540063222    -1.311753041992    -0.276980585116    15.994914619570
         C           -1.043221936778    -0.807657041992     0.289038414884    12.000000000000
         C           -1.266190936778     0.623440958008    -0.098272585116    12.000000000000
         C           -0.214565136778     1.467191558008    -0.069983085116    12.000000000000
         C            1.117019063222     0.835584958008     0.187277414884    12.000000000000
         C            1.248878063222    -0.495070041992    -0.016999585116    12.000000000000
         H           -0.970798936778    -0.914803041992     1.384198414884     1.007825032230
         H           -1.820190936778    -1.477375041992    -0.082431585116     1.007825032230
         H           -2.257767936778     0.974207958008    -0.367854585116     1.007825032230
         H           -0.255713936778     2.489210958008    -0.297001585116     1.007825032230
         H            1.998346063222     1.439615958008     0.369516414884     1.007825032230
         H            2.196100063222    -1.023006041992    -0.076152585116     1.007825032230

  Basis Set: AUG-CC-PVTZ
    Blend: AUG-CC-PVTZ
  Basis Set: (AUG-CC-PVTZ AUX)
    Blend: AUG-CC-PVTZ-JKFIT
	 Reference Energy          =    -267.7364932677897400 [Eh]
	 Singles Energy            =      -0.0000000000000000 [Eh]
	 Same-Spin Energy          =      -0.2734571967408301 [Eh]
	 Opposite-Spin Energy      =      -0.8863927440027912 [Eh]
	 Correlation Energy        =      -1.1598499407436214 [Eh]
	 Total Energy              =    -268.8963432085333807 [Eh]

	 ================> DF-SCS-MP2 Energies <==================
	-----------------------------------------------------------
	 SCS Same-Spin Scale       =       0.3333333333333333 [-]
	 SCS Opposite-Spin Scale   =       1.2000000000000000 [-]
	 SCS Same-Spin Energy      =      -0.0911523989136100 [Eh]
	 SCS Opposite-Spin Energy  =      -1.0636712928033494 [Eh]
	 SCS Correlation Energy    =      -1.1548236917169594 [Eh]
	 SCS Total Energy          =    -268.8913169595066961 [Eh]
	-----------------------------------------------------------

  Dipole Moment: [D]
     X:    -0.3845      Y:     0.6534      Z:     0.4130     Total:     0.8634

*** Psi4 exiting successfully. Buy a developer a beer!
