                               Psi4 1.3.2 release

  ==> Input File <==

--------------------------------------------------------------------------
#psi4
#
memory 32 gb

molecule  {
0 1
  O        0.1973020    -1.3235490    -0.2892290
  C       -1.0344600    -0.8194530     0.2767900
  C       -1.2574290     0.6116450    -0.1105210
  C       -0.1783580     1.4194390    -0.0692080
  C        1.1257810     0.8237890     0.1750290
  C        1.2771359    -0.7036087    -0.0594512
  H       -0.9620370    -0.9265990     1.3719500
  H       -1.8114290    -1.4891710    -0.0946800
  H       -2.2490060     0.9624120    -0.3801030
  H       -0.2469520     2.4774150    -0.3092500
  H        2.0071080     1.4278200     0.3572680
  H        2.2048620    -1.0348020    -0.0884010
units angstrom
no_reorient  #important for SAPT in psi4, default
symmetry c1  #important for SAPT in psi4, default
}

set PROPERTIES_ORIGIN ["COM"]
properties('MP2/aug-cc-pvtz', properties = ['dipole'])
--------------------------------------------------------------------------

    Molecular point group: c1
  Charge       = 0
  Multiplicity = 1
  Basis Set: AUG-CC-PVTZ
    Blend: AUG-CC-PVTZ
  Basis Set: (AUG-CC-PVTZ AUX)
    Blend: AUG-CC-PVTZ-JKFIT

    Orbital Energies [Eh]
    ---------------------

    Doubly Occupied:

       1A    -20.608755     2A    -11.327220     3A    -11.303025
       4A    -11.239894     5A    -11.231984     6A    -11.222885
       7A     -1.460484     8A     -1.087254     9A     -1.026587
      10A     -0.886105    11A     -0.860332    12A     -0.744179
      13A     -0.708122    14A     -0.680013    15A     -0.644660
      16A     -0.614270    17A     -0.562443    18A     -0.543807
      19A     -0.516914    20A     -0.455227    21A     -0.406033
      22A     -0.268447

  @DF-RHF Final Energy:  -267.68510472564680

   => Energetics <=

    Nuclear Repulsion Energy =            222.4377015657532297
    One-Electron Energy =                -803.4483328629490870
    Two-Electron Energy =                 313.3255265715491191
    Total Energy =                       -267.6851047256467950
  Basis Set: (AUG-CC-PVTZ AUX)
    Blend: AUG-CC-PVTZ-RI
    Molecular point group: c1

    Geometry (in Angstrom), charge = 0, multiplicity = 1:

       Center              X                  Y                   Z               Mass
    ------------   -----------------  -----------------  -----------------  -----------------
         O            0.181674139327    -1.277716862946    -0.274467765588    15.994914619570
         C           -1.050087860673    -0.773620862946     0.291551234412    12.000000000000
         C           -1.273056860673     0.657477137054    -0.095759765588    12.000000000000
         C           -0.193985860673     1.465271137054    -0.054446765588    12.000000000000
         C            1.110153139327     0.869621137054     0.189790234412    12.000000000000
         C            1.261508039327    -0.657776562946    -0.044689965588    12.000000000000
         H           -0.977664860673    -0.880766862946     1.386711234412     1.007825032230
         H           -1.827056860673    -1.443338862946    -0.079918765588     1.007825032230
         H           -2.264633860673     1.008244137054    -0.365341765588     1.007825032230
         H           -0.262579860673     2.523247137054    -0.294488765588     1.007825032230
         H            1.991480139327     1.473652137054     0.372029234412     1.007825032230
         H            2.189234139327    -0.988969862946    -0.073639765588     1.007825032230

  Basis Set: AUG-CC-PVTZ
    Blend: AUG-CC-PVTZ
  Basis Set: (AUG-CC-PVTZ AUX)
    Blend: AUG-CC-PVTZ-JKFIT
	 Reference Energy          =    -267.6851047256467950 [Eh]
	 Singles Energy            =      -0.0000000000000000 [Eh]
	 Same-Spin Energy          =      -0.2772277758553600 [Eh]
	 Opposite-Spin Energy      =      -0.8907540857030523 [Eh]
	 Correlation Energy        =      -1.1679818615584123 [Eh]
	 Total Energy              =    -268.8530865872052118 [Eh]

	 ================> DF-SCS-MP2 Energies <==================
	-----------------------------------------------------------
	 SCS Same-Spin Scale       =       0.3333333333333333 [-]
	 SCS Opposite-Spin Scale   =       1.2000000000000000 [-]
	 SCS Same-Spin Energy      =      -0.0924092586184533 [Eh]
	 SCS Opposite-Spin Energy  =      -1.0689049028436626 [Eh]
	 SCS Correlation Energy    =      -1.1613141614621159 [Eh]
	 SCS Total Energy          =    -268.8464188871089391 [Eh]
	-----------------------------------------------------------

  Dipole Moment: [D]
     X:    -0.5554      Y:     0.0039      Z:     0.2800     Total:     0.6220

*** Psi4 exiting successfully. Buy a developer a beer!
