                               Psi4 1.3.2 release

  ==> Input File <==

--------------------------------------------------------------------------
#psi4
#
memory 32 gb

molecule  {
0 1
  O        0.1973020    -1.3235490    -0.2892290
  C       -1.0344600    -0.8194530     0.2767900
  C       -1.2843420     0.6493862    -0.1187070
  C       -0.1783580     1.4194390    -0.0692080
  C        1.1257810     0.8237890     0.1750290
  C        1.2576400    -0.5068660    -0.0292480
  H       -0.9620370    -0.9265990     1.3719500
  H       -1.8114290    -1.4891710    -0.0946800
  H       -2.2490060     0.9624120    -0.3801030
  H       -0.2469520     2.4774150    -0.3092500
  H        2.0071080     1.4278200     0.3572680
  H        2.2048620    -1.0348020    -0.0884010
units angstrom
no_reorient  #important for SAPT in psi4, default
symmetry c1  #important for SAPT in psi4, default
}

set PROPERTIES_ORIGIN ["COM"]
properties('MP2/aug-cc-pvtz', properties = ['dipole'])
--------------------------------------------------------------------------

    Molecular point group: c1
  Charge       = 0
  Multiplicity = 1
  Basis Set: AUG-CC-PVTZ
    Blend: AUG-CC-PVTZ
  Basis Set: (AUG-CC-PVTZ AUX)
    Blend: AUG-CC-PVTZ-JKFIT

    Orbital Energies [Eh]
    ---------------------

    Doubly Occupied:

       1A    -20.587850     2A    -11.301828     3A    -11.292371
       4A    -11.242221     5A    -11.230529     6A    -11.227024
       7A     -1.406928     8A     -1.094129     9A     -1.031301
      10A     -0.897548    11A     -0.841869    12A     -0.716656
      13A     -0.707654    14A     -0.648809    15A     -0.634853
      16A     -0.606914    17A     -0.567816    18A     -0.535641
      19A     -0.508314    20A     -0.466422    21A     -0.418987
      22A     -0.303389

  @DF-RHF Final Energy:  -267.73615958837036

   => Energetics <=

    Nuclear Repulsion Energy =            222.8388445459562490
    One-Electron Energy =                -804.6119049319610212
    Two-Electron Energy =                 314.0369007976344164
    Total Energy =                       -267.7361595883703558
  Basis Set: (AUG-CC-PVTZ AUX)
    Blend: AUG-CC-PVTZ-RI
    Molecular point group: c1

    Geometry (in Angstrom), charge = 0, multiplicity = 1:

       Center              X                  Y                   Z               Mass
    ------------   -----------------  -----------------  -----------------  -----------------
         O            0.188462220038    -1.312014069700    -0.277688150700    15.994914619570
         C           -1.043299779962    -0.807918069700     0.288330849300    12.000000000000
         C           -1.293181779962     0.660921130300    -0.107166150700    12.000000000000
         C           -0.187197779962     1.430973930300    -0.057667150700    12.000000000000
         C            1.116941220038     0.835323930300     0.186569849300    12.000000000000
         C            1.248800220038    -0.495331069700    -0.017707150700    12.000000000000
         H           -0.970876779962    -0.915064069700     1.383490849300     1.007825032230
         H           -1.820268779962    -1.477636069700    -0.083139150700     1.007825032230
         H           -2.257845779962     0.973946930300    -0.368562150700     1.007825032230
         H           -0.255791779962     2.488949930300    -0.297709150700     1.007825032230
         H            1.998268220038     1.439354930300     0.368808849300     1.007825032230
         H            2.196022220038    -1.023267069700    -0.076860150700     1.007825032230

  Basis Set: AUG-CC-PVTZ
    Blend: AUG-CC-PVTZ
  Basis Set: (AUG-CC-PVTZ AUX)
    Blend: AUG-CC-PVTZ-JKFIT
	 Reference Energy          =    -267.7361595883703558 [Eh]
	 Singles Energy            =      -0.0000000000000000 [Eh]
	 Same-Spin Energy          =      -0.2737892454456986 [Eh]
	 Opposite-Spin Energy      =      -0.8866412020005356 [Eh]
	 Correlation Energy        =      -1.1604304474462341 [Eh]
	 Total Energy              =    -268.8965900358165868 [Eh]

	 ================> DF-SCS-MP2 Energies <==================
	-----------------------------------------------------------
	 SCS Same-Spin Scale       =       0.3333333333333333 [-]
	 SCS Opposite-Spin Scale   =       1.2000000000000000 [-]
	 SCS Same-Spin Energy      =      -0.0912630818152329 [Eh]
	 SCS Opposite-Spin Energy  =      -1.0639694424006427 [Eh]
	 SCS Correlation Energy    =      -1.1552325242158756 [Eh]
	 SCS Total Energy          =    -268.8913921125862316 [Eh]
	-----------------------------------------------------------

  Dipole Moment: [D]
     X:    -0.3194      Y:     0.6071      Z:     0.4130     Total:     0.8007

*** Psi4 exiting successfully. Buy a developer a beer!
