                               Psi4 1.3.2 release

  ==> Input File <==

--------------------------------------------------------------------------
#psi4
#
memory 32 gb

molecule  {
0 1
  O        0.1973020    -1.3235490    -0.2892290
  C       -1.0088946    -0.7798850     0.2949347
  C       -1.2574290     0.6116450    -0.1105210
  C       -0.1783580     1.4194390    -0.0692080
  C        1.1257810     0.8237890     0.1750290
  C        1.2576400    -0.5068660    -0.0292480
  H       -0.9620370    -0.9265990     1.3719500
  H       -1.8114290    -1.4891710    -0.0946800
  H       -2.2490060     0.9624120    -0.3801030
  H       -0.2469520     2.4774150    -0.3092500
  H        2.0071080     1.4278200     0.3572680
  H        2.2048620    -1.0348020    -0.0884010
units angstrom
no_reorient  #important for SAPT in psi4, default
symmetry c1  #important for SAPT in psi4, default
}

set PROPERTIES_ORIGIN ["COM"]
properties('MP2/aug-cc-pvtz', properties = ['dipole'])
--------------------------------------------------------------------------

    Molecular point group: c1
  Charge       = 0
  Multiplicity = 1
  Basis Set: AUG-CC-PVTZ
    Blend: AUG-CC-PVTZ
  Basis Set: (AUG-CC-PVTZ AUX)
    Blend: AUG-CC-PVTZ-JKFIT

    Orbital Energies [Eh]
    ---------------------

    Doubly Occupied:

       1A    -20.588762     2A    -11.301371     3A    -11.291311
       4A    -11.242394     5A    -11.229746     6A    -11.226784
       7A     -1.409603     8A     -1.100250     9A     -1.035581
      10A     -0.896945    11A     -0.842111    12A     -0.718106
      13A     -0.706734    14A     -0.651104    15A     -0.629888
      16A     -0.607530    17A     -0.570520    18A     -0.535049
      19A     -0.498579    20A     -0.477036    21A     -0.419160
      22A     -0.303524

  @DF-RHF Final Energy:  -267.73399338319342

   => Energetics <=

    Nuclear Repulsion Energy =            224.0469811852127577
    One-Electron Energy =                -806.9977700811446084
    Two-Electron Energy =                 315.2167955127384289
    Total Energy =                       -267.7339933831934218
  Basis Set: (AUG-CC-PVTZ AUX)
    Blend: AUG-CC-PVTZ-RI
    Molecular point group: c1

    Geometry (in Angstrom), charge = 0, multiplicity = 1:

       Center              X                  Y                   Z               Mass
    ------------   -----------------  -----------------  -----------------  -----------------
         O            0.180786373061    -1.312281269868    -0.281539457600    15.994914619570
         C           -1.025410226939    -0.768617269868     0.302624242400    12.000000000000
         C           -1.273944626939     0.622912730132    -0.102831457600    12.000000000000
         C           -0.194873626939     1.430706730132    -0.061518457600    12.000000000000
         C            1.109265373061     0.835056730132     0.182718542400    12.000000000000
         C            1.241124373061    -0.495598269868    -0.021558457600    12.000000000000
         H           -0.978552626939    -0.915331269868     1.379639542400     1.007825032230
         H           -1.827944626939    -1.477903269868    -0.086990457600     1.007825032230
         H           -2.265521626939     0.973679730132    -0.372413457600     1.007825032230
         H           -0.263467626939     2.488682730132    -0.301560457600     1.007825032230
         H            1.990592373061     1.439087730132     0.364957542400     1.007825032230
         H            2.188346373061    -1.023534269868    -0.080711457600     1.007825032230

  Basis Set: AUG-CC-PVTZ
    Blend: AUG-CC-PVTZ
  Basis Set: (AUG-CC-PVTZ AUX)
    Blend: AUG-CC-PVTZ-JKFIT
	 Reference Energy          =    -267.7339933831934218 [Eh]
	 Singles Energy            =      -0.0000000000000000 [Eh]
	 Same-Spin Energy          =      -0.2746981946862620 [Eh]
	 Opposite-Spin Energy      =      -0.8875640836712989 [Eh]
	 Correlation Energy        =      -1.1622622783575609 [Eh]
	 Total Energy              =    -268.8962556615509811 [Eh]

	 ================> DF-SCS-MP2 Energies <==================
	-----------------------------------------------------------
	 SCS Same-Spin Scale       =       0.3333333333333333 [-]
	 SCS Opposite-Spin Scale   =       1.2000000000000000 [-]
	 SCS Same-Spin Energy      =      -0.0915660648954207 [Eh]
	 SCS Opposite-Spin Energy  =      -1.0650769004055587 [Eh]
	 SCS Correlation Energy    =      -1.1566429653009793 [Eh]
	 SCS Total Energy          =    -268.8906363484944109 [Eh]
	-----------------------------------------------------------

  Dipole Moment: [D]
     X:    -0.2679      Y:     0.6842      Z:     0.4449     Total:     0.8589

*** Psi4 exiting successfully. Buy a developer a beer!
