                               Psi4 1.3.2 release

  ==> Input File <==

--------------------------------------------------------------------------
#psi4
#
memory 32 gb

molecule  {
0 1
  O        0.1973020    -1.3235490    -0.2892290
  C       -1.0344600    -0.8194530     0.2767900
  C       -1.3082999     0.6864186    -0.1366218
  C       -0.1783580     1.4194390    -0.0692080
  C        1.1257810     0.8237890     0.1750290
  C        1.2576400    -0.5068660    -0.0292480
  H       -0.9620370    -0.9265990     1.3719500
  H       -1.8114290    -1.4891710    -0.0946800
  H       -2.2490060     0.9624120    -0.3801030
  H       -0.2469520     2.4774150    -0.3092500
  H        2.0071080     1.4278200     0.3572680
  H        2.2048620    -1.0348020    -0.0884010
units angstrom
no_reorient  #important for SAPT in psi4, default
symmetry c1  #important for SAPT in psi4, default
}

set PROPERTIES_ORIGIN ["COM"]
properties('MP2/aug-cc-pvtz', properties = ['dipole'])
--------------------------------------------------------------------------

    Molecular point group: c1
  Charge       = 0
  Multiplicity = 1
  Basis Set: AUG-CC-PVTZ
    Blend: AUG-CC-PVTZ
  Basis Set: (AUG-CC-PVTZ AUX)
    Blend: AUG-CC-PVTZ-JKFIT

    Orbital Energies [Eh]
    ---------------------

    Doubly Occupied:

       1A    -20.588586     2A    -11.302797     3A    -11.293406
       4A    -11.243139     5A    -11.230085     6A    -11.227985
       7A     -1.406658     8A     -1.092342     9A     -1.028447
      10A     -0.897003    11A     -0.843360    12A     -0.716698
      13A     -0.711825    14A     -0.649624    15A     -0.635710
      16A     -0.606984    17A     -0.564763    18A     -0.538851
      19A     -0.508267    20A     -0.459324    21A     -0.418847
      22A     -0.304607

  @DF-RHF Final Energy:  -267.72897183387119

   => Energetics <=

    Nuclear Repulsion Energy =            222.2232538837857874
    One-Electron Energy =                -803.3658369155396031
    Two-Electron Energy =                 313.4136111978826307
    Total Energy =                       -267.7289718338711850
  Basis Set: (AUG-CC-PVTZ AUX)
    Blend: AUG-CC-PVTZ-RI
    Molecular point group: c1

    Geometry (in Angstrom), charge = 0, multiplicity = 1:

       Center              X                  Y                   Z               Mass
    ------------   -----------------  -----------------  -----------------  -----------------
         O            0.191966465104    -1.317430679879    -0.275067810457    15.994914619570
         C           -1.039795534896    -0.813334679879     0.290951189543    12.000000000000
         C           -1.313635434896     0.692536920121    -0.122460610457    12.000000000000
         C           -0.183693534896     1.425557320121    -0.055046810457    12.000000000000
         C            1.120445465104     0.829907320121     0.189190189543    12.000000000000
         C            1.252304465104    -0.500747679879    -0.015086810457    12.000000000000
         H           -0.967372534896    -0.920480679879     1.386111189543     1.007825032230
         H           -1.816764534896    -1.483052679879    -0.080518810457     1.007825032230
         H           -2.254341534896     0.968530320121    -0.365941810457     1.007825032230
         H           -0.252287534896     2.483533320121    -0.295088810457     1.007825032230
         H            2.001772465104     1.433938320121     0.371429189543     1.007825032230
         H            2.199526465104    -1.028683679879    -0.074239810457     1.007825032230

  Basis Set: AUG-CC-PVTZ
    Blend: AUG-CC-PVTZ
  Basis Set: (AUG-CC-PVTZ AUX)
    Blend: AUG-CC-PVTZ-JKFIT
	 Reference Energy          =    -267.7289718338711850 [Eh]
	 Singles Energy            =      -0.0000000000000000 [Eh]
	 Same-Spin Energy          =      -0.2736243626021899 [Eh]
	 Opposite-Spin Energy      =      -0.8868782934702121 [Eh]
	 Correlation Energy        =      -1.1605026560724019 [Eh]
	 Total Energy              =    -268.8894744899436091 [Eh]

	 ================> DF-SCS-MP2 Energies <==================
	-----------------------------------------------------------
	 SCS Same-Spin Scale       =       0.3333333333333333 [-]
	 SCS Opposite-Spin Scale   =       1.2000000000000000 [-]
	 SCS Same-Spin Energy      =      -0.0912081208673966 [Eh]
	 SCS Opposite-Spin Energy  =      -1.0642539521642544 [Eh]
	 SCS Correlation Energy    =      -1.1554620730316512 [Eh]
	 SCS Total Energy          =    -268.8844339069028138 [Eh]
	-----------------------------------------------------------

  Dipole Moment: [D]
     X:    -0.3072      Y:     0.5917      Z:     0.4188     Total:     0.7874

*** Psi4 exiting successfully. Buy a developer a beer!
