                               Psi4 1.3.2 release

  ==> Input File <==

--------------------------------------------------------------------------
#psi4
#
memory 32 gb

molecule  {
0 1
  O        0.1973020    -1.3235490    -0.2892290
  C       -1.0344600    -0.8194530     0.2767900
  C       -1.2574290     0.6116450    -0.1105210
  C       -0.1346906     1.5105261    -0.0591344
  C        1.1257810     0.8237890     0.1750290
  C        1.2576400    -0.5068660    -0.0292480
  H       -0.9620370    -0.9265990     1.3719500
  H       -1.8114290    -1.4891710    -0.0946800
  H       -2.2490060     0.9624120    -0.3801030
  H       -0.2469520     2.4774150    -0.3092500
  H        2.0071080     1.4278200     0.3572680
  H        2.2048620    -1.0348020    -0.0884010
units angstrom
no_reorient  #important for SAPT in psi4, default
symmetry c1  #important for SAPT in psi4, default
}

set PROPERTIES_ORIGIN ["COM"]
properties('MP2/aug-cc-pvtz', properties = ['dipole'])
--------------------------------------------------------------------------

    Molecular point group: c1
  Charge       = 0
  Multiplicity = 1
  Basis Set: AUG-CC-PVTZ
    Blend: AUG-CC-PVTZ
  Basis Set: (AUG-CC-PVTZ AUX)
    Blend: AUG-CC-PVTZ-JKFIT

    Orbital Energies [Eh]
    ---------------------

    Doubly Occupied:

       1A    -20.587528     2A    -11.301906     3A    -11.293867
       4A    -11.248159     5A    -11.245255     6A    -11.228406
       7A     -1.407343     8A     -1.085775     9A     -1.032467
      10A     -0.898687    11A     -0.843367    12A     -0.727351
      13A     -0.703907    14A     -0.650193    15A     -0.633273
      16A     -0.609685    17A     -0.578586    18A     -0.530942
      19A     -0.497874    20A     -0.480126    21A     -0.411211
      22A     -0.292627

  @DF-RHF Final Energy:  -267.71944894013359

   => Energetics <=

    Nuclear Repulsion Energy =            222.0253257987971267
    One-Electron Energy =                -802.9124728762898258
    Two-Electron Energy =                 313.1676981373591389
    Total Energy =                       -267.7194489401335886
  Basis Set: (AUG-CC-PVTZ AUX)
    Blend: AUG-CC-PVTZ-RI
    Molecular point group: c1

    Geometry (in Angstrom), charge = 0, multiplicity = 1:

       Center              X                  Y                   Z               Mass
    ------------   -----------------  -----------------  -----------------  -----------------
         O            0.178138651675    -1.319816803115    -0.280358923732    15.994914619570
         C           -1.053623348325    -0.815720803115     0.285660076268    12.000000000000
         C           -1.276592348325     0.615377196885    -0.101650923732    12.000000000000
         C           -0.153853948325     1.514258296885    -0.050264323732    12.000000000000
         C            1.106617651675     0.827521196885     0.183899076268    12.000000000000
         C            1.238476651675    -0.503133803115    -0.020377923732    12.000000000000
         H           -0.981200348325    -0.922866803115     1.380820076268     1.007825032230
         H           -1.830592348325    -1.485438803115    -0.085809923732     1.007825032230
         H           -2.268169348325     0.966144196885    -0.371232923732     1.007825032230
         H           -0.266115348325     2.481147196885    -0.300379923732     1.007825032230
         H            1.987944651675     1.431552196885     0.366138076268     1.007825032230
         H            2.185698651675    -1.031069803115    -0.079530923732     1.007825032230

  Basis Set: AUG-CC-PVTZ
    Blend: AUG-CC-PVTZ
  Basis Set: (AUG-CC-PVTZ AUX)
    Blend: AUG-CC-PVTZ-JKFIT
	 Reference Energy          =    -267.7194489401335886 [Eh]
	 Singles Energy            =      -0.0000000000000000 [Eh]
	 Same-Spin Energy          =      -0.2753923833783337 [Eh]
	 Opposite-Spin Energy      =      -0.8899765204027812 [Eh]
	 Correlation Energy        =      -1.1653689037811148 [Eh]
	 Total Energy              =    -268.8848178439146750 [Eh]

	 ================> DF-SCS-MP2 Energies <==================
	-----------------------------------------------------------
	 SCS Same-Spin Scale       =       0.3333333333333333 [-]
	 SCS Opposite-Spin Scale   =       1.2000000000000000 [-]
	 SCS Same-Spin Energy      =      -0.0917974611261112 [Eh]
	 SCS Opposite-Spin Energy  =      -1.0679718244833374 [Eh]
	 SCS Correlation Energy    =      -1.1597692856094486 [Eh]
	 SCS Total Energy          =    -268.8792182257430454 [Eh]
	-----------------------------------------------------------

  Dipole Moment: [D]
     X:    -0.3332      Y:     0.6149      Z:     0.3935     Total:     0.8025

*** Psi4 exiting successfully. Buy a developer a beer!
