                               Psi4 1.3.2 release

  ==> Input File <==

--------------------------------------------------------------------------
#psi4
#
memory 32 gb

molecule  {
0 1
  O        0.1973020    -1.3235490    -0.2892290
  C       -1.0344600    -0.8194530     0.2767900
  C       -1.2574290     0.6116450    -0.1105210
  C       -0.1783580     1.4194390    -0.0692080
  C        1.1257810     0.8237890     0.1750290
  C        1.2576400    -0.5068660    -0.0292480
  H       -0.9620370    -0.9265990     1.3719500
  H       -1.8114290    -1.4891710    -0.0946800
  H       -2.2490060     0.9624120    -0.3801030
  H       -0.2595724     2.6720691    -0.3534147
  H        2.0071080     1.4278200     0.3572680
  H        2.2048620    -1.0348020    -0.0884010
units angstrom
no_reorient  #important for SAPT in psi4, default
symmetry c1  #important for SAPT in psi4, default
}

set PROPERTIES_ORIGIN ["COM"]
properties('MP2/aug-cc-pvtz', properties = ['dipole'])
--------------------------------------------------------------------------

    Molecular point group: c1
  Charge       = 0
  Multiplicity = 1
  Basis Set: AUG-CC-PVTZ
    Blend: AUG-CC-PVTZ
  Basis Set: (AUG-CC-PVTZ AUX)
    Blend: AUG-CC-PVTZ-JKFIT

    Orbital Energies [Eh]
    ---------------------

    Doubly Occupied:

       1A    -20.588370     2A    -11.302722     3A    -11.293145
       4A    -11.263152     5A    -11.233298     6A    -11.228766
       7A     -1.408789     8A     -1.095024     9A     -1.036389
      10A     -0.894122    11A     -0.837874    12A     -0.711143
      13A     -0.698822    14A     -0.650958    15A     -0.633474
      16A     -0.593872    17A     -0.560547    18A     -0.533142
      19A     -0.507516    20A     -0.463207    21A     -0.420584
      22A     -0.303753

  @DF-RHF Final Energy:  -267.71614616406322

   => Energetics <=

    Nuclear Repulsion Energy =            222.6454501656197351
    One-Electron Energy =                -804.2058503094975777
    Two-Electron Energy =                 313.8442539798145958
    Total Energy =                       -267.7161461640632183
  Basis Set: (AUG-CC-PVTZ AUX)
    Blend: AUG-CC-PVTZ-RI
    Molecular point group: c1

    Geometry (in Angstrom), charge = 0, multiplicity = 1:

       Center              X                  Y                   Z               Mass
    ------------   -----------------  -----------------  -----------------  -----------------
         O            0.184680774483    -1.308884970600    -0.278342959192    15.994914619570
         C           -1.047081225517    -0.804788970600     0.287676040808    12.000000000000
         C           -1.270050225517     0.626309029400    -0.099634959192    12.000000000000
         C           -0.190979225517     1.434103029400    -0.058321959192    12.000000000000
         C            1.113159774483     0.838453029400     0.185915040808    12.000000000000
         C            1.245018774483    -0.492201970600    -0.018361959192    12.000000000000
         H           -0.974658225517    -0.911934970600     1.382836040808     1.007825032230
         H           -1.824050225517    -1.474506970600    -0.083793959192     1.007825032230
         H           -2.261627225517     0.977076029400    -0.369216959192     1.007825032230
         H           -0.272193625517     2.686733129400    -0.342528659192     1.007825032230
         H            1.994486774483     1.442484029400     0.368154040808     1.007825032230
         H            2.192240774483    -1.020137970600    -0.077514959192     1.007825032230

  Basis Set: AUG-CC-PVTZ
    Blend: AUG-CC-PVTZ
  Basis Set: (AUG-CC-PVTZ AUX)
    Blend: AUG-CC-PVTZ-JKFIT
	 Reference Energy          =    -267.7161461640632183 [Eh]
	 Singles Energy            =      -0.0000000000000000 [Eh]
	 Same-Spin Energy          =      -0.2745102801700836 [Eh]
	 Opposite-Spin Energy      =      -0.8886947903491478 [Eh]
	 Correlation Energy        =      -1.1632050705192314 [Eh]
	 Total Energy              =    -268.8793512345824297 [Eh]

	 ================> DF-SCS-MP2 Energies <==================
	-----------------------------------------------------------
	 SCS Same-Spin Scale       =       0.3333333333333333 [-]
	 SCS Opposite-Spin Scale   =       1.2000000000000000 [-]
	 SCS Same-Spin Energy      =      -0.0915034267233612 [Eh]
	 SCS Opposite-Spin Energy  =      -1.0664337484189772 [Eh]
	 SCS Correlation Energy    =      -1.1579371751423384 [Eh]
	 SCS Total Energy          =    -268.8740833392055833 [Eh]
	-----------------------------------------------------------

  Dipole Moment: [D]
     X:    -0.3064      Y:     0.5121      Z:     0.4353     Total:     0.7387

*** Psi4 exiting successfully. Buy a developer a beer!
