                               Psi4 1.4a3.dev225

  ==> Input File <==

--------------------------------------------------------------------------
#psi4
#
memory 32 gb

molecule  {
0 1
  O        0.1973020    -1.3235490    -0.2892290
  C       -1.0344600    -0.8194530     0.2767900
  C       -1.2604034     0.6307358    -0.1156877
  C       -0.1783580     1.4194390    -0.0692080
  C        1.1257810     0.8237890     0.1750290
  C        1.2576400    -0.5068660    -0.0292480
  H       -0.9620370    -0.9265990     1.3719500
  H       -1.8114290    -1.4891710    -0.0946800
  H       -2.2490060     0.9624120    -0.3801030
  H       -0.2469520     2.4774150    -0.3092500
  H        2.0071080     1.4278200     0.3572680
  H        2.2048620    -1.0348020    -0.0884010
units angstrom
no_reorient  #important for SAPT in psi4, default
symmetry c1  #important for SAPT in psi4, default
}

set PROPERTIES_ORIGIN ["COM"]
properties('MP2/aug-cc-pvtz', properties = ['dipole'])
--------------------------------------------------------------------------

    Molecular point group: c1
  Charge       = 0
  Multiplicity = 1
  Basis Set: AUG-CC-PVTZ
    Blend: AUG-CC-PVTZ
  Basis Set: (AUG-CC-PVTZ AUX)
    Blend: AUG-CC-PVTZ-JKFIT

    Orbital Energies [Eh]
    ---------------------

    Doubly Occupied:

       1A    -20.587076     2A    -11.300913     3A    -11.291758
       4A    -11.240452     5A    -11.230518     6A    -11.226241
       7A     -1.406967     8A     -1.096645     9A     -1.032762
      10A     -0.898883    11A     -0.840201    12A     -0.717595
      13A     -0.704189    14A     -0.649414    15A     -0.633321
      16A     -0.606349    17A     -0.569892    18A     -0.533775
      19A     -0.508679    20A     -0.468467    21A     -0.419837
      22A     -0.303492

  @DF-RHF Final Energy:  -267.73835748381191

   => Energetics <=

    Nuclear Repulsion Energy =            223.3295057067417417
    One-Electron Energy =                -805.6008752257980632
    Two-Electron Energy =                 314.5330120352443828
    Total Energy =                       -267.7383574838119102
  Basis Set: (AUG-CC-PVTZ AUX)
    Blend: AUG-CC-PVTZ-RI
    Molecular point group: c1

    Geometry (in Angstrom), charge = 0, multiplicity = 1:

       Center              X                  Y                   Z               Mass
    ------------   -----------------  -----------------  -----------------  -----------------
         O            0.184960797920    -1.309286135608    -0.278129774011    15.994914619570
         C           -1.046801202080    -0.805190135608     0.287889225989    12.000000000000
         C           -1.272744602080     0.644998664392    -0.104588474011    12.000000000000
         C           -0.190699202080     1.433701864392    -0.058108774011    12.000000000000
         C            1.113439797920     0.838051864392     0.186128225989    12.000000000000
         C            1.245298797920    -0.492603135608    -0.018148774011    12.000000000000
         H           -0.974378202080    -0.912336135608     1.383049225989     1.007825032230
         H           -1.823770202080    -1.474908135608    -0.083580774011     1.007825032230
         H           -2.261347202080     0.976674864392    -0.369003774011     1.007825032230
         H           -0.259293202080     2.491677864392    -0.298150774011     1.007825032230
         H            1.994766797920     1.442082864392     0.368367225989     1.007825032230
         H            2.192520797920    -1.020539135608    -0.077301774011     1.007825032230

  Basis Set: AUG-CC-PVTZ
    Blend: AUG-CC-PVTZ
  Basis Set: (AUG-CC-PVTZ AUX)
    Blend: AUG-CC-PVTZ-JKFIT
	 Reference Energy          =    -267.7383574838119102 [Eh]
	 Singles Energy            =      -0.0000000000000000 [Eh]
	 Same-Spin Energy          =      -0.2738341624403323 [Eh]
	 Opposite-Spin Energy      =      -0.8864150102923745 [Eh]
	 Correlation Energy        =      -1.1602491727327067 [Eh]
	 Total Energy              =    -268.8986066565446436 [Eh]

	 ================> DF-SCS-MP2 Energies <==================
	-----------------------------------------------------------
	 SCS Same-Spin Scale       =       0.3333333333333333 [-]
	 SCS Opposite-Spin Scale   =       1.2000000000000000 [-]
	 SCS Same-Spin Energy      =      -0.0912780541467774 [Eh]
	 SCS Opposite-Spin Energy  =      -1.0636980123508493 [Eh]
	 SCS Correlation Energy    =      -1.1549760664976267 [Eh]
	 SCS Total Energy          =    -268.8933335503095350 [Eh]
	-----------------------------------------------------------

  Dipole Moment: [D]
     X:    -0.3349      Y:     0.6166      Z:     0.4200     Total:     0.8178

*** Psi4 exiting successfully. Buy a developer a beer!
