                               Psi4 1.3.2 release

  ==> Input File <==

--------------------------------------------------------------------------
#psi4
#
memory 32 gb

molecule  {
0 1
  O        0.1973020    -1.3235490    -0.2892290
  C       -1.0598041    -0.8243293     0.2724785
  C       -1.2574290     0.6116450    -0.1105210
  C       -0.1783580     1.4194390    -0.0692080
  C        1.1257810     0.8237890     0.1750290
  C        1.2576400    -0.5068660    -0.0292480
  H       -0.9620370    -0.9265990     1.3719500
  H       -1.8114290    -1.4891710    -0.0946800
  H       -2.2490060     0.9624120    -0.3801030
  H       -0.2469520     2.4774150    -0.3092500
  H        2.0071080     1.4278200     0.3572680
  H        2.2048620    -1.0348020    -0.0884010
units angstrom
no_reorient  #important for SAPT in psi4, default
symmetry c1  #important for SAPT in psi4, default
}

set PROPERTIES_ORIGIN ["COM"]
properties('MP2/aug-cc-pvtz', properties = ['dipole'])
--------------------------------------------------------------------------

    Molecular point group: c1
  Charge       = 0
  Multiplicity = 1
  Basis Set: AUG-CC-PVTZ
    Blend: AUG-CC-PVTZ
  Basis Set: (AUG-CC-PVTZ AUX)
    Blend: AUG-CC-PVTZ-JKFIT

    Orbital Energies [Eh]
    ---------------------

    Doubly Occupied:

       1A    -20.585083     2A    -11.300527     3A    -11.291730
       4A    -11.242181     5A    -11.231608     6A    -11.225132
       7A     -1.401142     8A     -1.095575     9A     -1.034652
      10A     -0.899983    11A     -0.839078    12A     -0.718092
      13A     -0.701102    14A     -0.647689    15A     -0.633806
      16A     -0.605075    17A     -0.571492    18A     -0.530872
      19A     -0.512716    20A     -0.470381    21A     -0.418268
      22A     -0.301411

  @DF-RHF Final Energy:  -267.73726532727051

   => Energetics <=

    Nuclear Repulsion Energy =            223.1272331619541944
    One-Electron Energy =                -805.2138051156219944
    Two-Electron Energy =                 314.3493066263972651
    Total Energy =                       -267.7372653272705065
  Basis Set: (AUG-CC-PVTZ AUX)
    Blend: AUG-CC-PVTZ-RI
    Molecular point group: c1

    Geometry (in Angstrom), charge = 0, multiplicity = 1:

       Center              X                  Y                   Z               Mass
    ------------   -----------------  -----------------  -----------------  -----------------
         O            0.188232742075    -1.305780544888    -0.278254861368    15.994914619570
         C           -1.068873357925    -0.806560844888     0.283452638632    12.000000000000
         C           -1.266498257925     0.629413455112    -0.099546861368    12.000000000000
         C           -0.187427257925     1.437207455112    -0.058233861368    12.000000000000
         C            1.116711742075     0.841557455112     0.186003138632    12.000000000000
         C            1.248570742075    -0.489097544888    -0.018273861368    12.000000000000
         H           -0.971106257925    -0.908830544888     1.382924138632     1.007825032230
         H           -1.820498257925    -1.471402544888    -0.083705861368     1.007825032230
         H           -2.258075257925     0.980180455112    -0.369128861368     1.007825032230
         H           -0.256021257925     2.495183455112    -0.298275861368     1.007825032230
         H            1.998038742075     1.445588455112     0.368242138632     1.007825032230
         H            2.195792742075    -1.017033544888    -0.077426861368     1.007825032230

  Basis Set: AUG-CC-PVTZ
    Blend: AUG-CC-PVTZ
  Basis Set: (AUG-CC-PVTZ AUX)
    Blend: AUG-CC-PVTZ-JKFIT
	 Reference Energy          =    -267.7372653272705065 [Eh]
	 Singles Energy            =      -0.0000000000000000 [Eh]
	 Same-Spin Energy          =      -0.2741092881360998 [Eh]
	 Opposite-Spin Energy      =      -0.8868895997035278 [Eh]
	 Correlation Energy        =      -1.1609988878396276 [Eh]
	 Total Energy              =    -268.8982642151101459 [Eh]

	 ================> DF-SCS-MP2 Energies <==================
	-----------------------------------------------------------
	 SCS Same-Spin Scale       =       0.3333333333333333 [-]
	 SCS Opposite-Spin Scale   =       1.2000000000000000 [-]
	 SCS Same-Spin Energy      =      -0.0913697627120333 [Eh]
	 SCS Opposite-Spin Energy  =      -1.0642675196442333 [Eh]
	 SCS Correlation Energy    =      -1.1556372823562666 [Eh]
	 SCS Total Energy          =    -268.8929026096267876 [Eh]
	-----------------------------------------------------------

  Dipole Moment: [D]
     X:    -0.3866      Y:     0.6054      Z:     0.4259     Total:     0.8350

*** Psi4 exiting successfully. Buy a developer a beer!
