                               Psi4 1.3.2 release

  ==> Input File <==

--------------------------------------------------------------------------
#psi4
#
memory 32 gb

molecule  {
0 1
  O        0.1973020    -1.3235490    -0.2892290
  C       -1.0344600    -0.8194530     0.2767900
  C       -1.2574290     0.6116450    -0.1105210
  C       -0.1783580     1.4194390    -0.0692080
  C        1.1257810     0.8237890     0.1750290
  C        1.2576400    -0.5068660    -0.0292480
  H       -0.9620370    -0.9265990     1.3719500
  H       -1.8114290    -1.4891710    -0.0946800
  H       -2.2490060     0.9624120    -0.3801030
  H       -0.2406418     2.3800880    -0.2871677
  H        2.0071080     1.4278200     0.3572680
  H        2.2048620    -1.0348020    -0.0884010
units angstrom
no_reorient  #important for SAPT in psi4, default
symmetry c1  #important for SAPT in psi4, default
}

set PROPERTIES_ORIGIN ["COM"]
properties('MP2/aug-cc-pvtz', properties = ['dipole'])
--------------------------------------------------------------------------

    Molecular point group: c1
  Charge       = 0
  Multiplicity = 1
  Basis Set: AUG-CC-PVTZ
    Blend: AUG-CC-PVTZ
  Basis Set: (AUG-CC-PVTZ AUX)
    Blend: AUG-CC-PVTZ-JKFIT

    Orbital Energies [Eh]
    ---------------------

    Doubly Occupied:

       1A    -20.586654     2A    -11.300205     3A    -11.290503
       4A    -11.231368     5A    -11.229383     6A    -11.225176
       7A     -1.406862     8A     -1.098665     9A     -1.034013
      10A     -0.903673    11A     -0.843261    12A     -0.727520
      13A     -0.704243    14A     -0.649603    15A     -0.633942
      16A     -0.613471    17A     -0.574591    18A     -0.532223
      19A     -0.508370    20A     -0.473498    21A     -0.418390
      22A     -0.301791

  @DF-RHF Final Energy:  -267.73217955338083

   => Energetics <=

    Nuclear Repulsion Energy =            224.0065392750883291
    One-Electron Energy =                -806.9026227578150383
    Two-Electron Energy =                 315.1639039293458495
    Total Energy =                       -267.7321795533808313
  Basis Set: (AUG-CC-PVTZ AUX)
    Blend: AUG-CC-PVTZ-RI
    Molecular point group: c1

    Geometry (in Angstrom), charge = 0, multiplicity = 1:

       Center              X                  Y                   Z               Mass
    ------------   -----------------  -----------------  -----------------  -----------------
         O            0.184448225740    -1.305298193749    -0.279156755722    15.994914619570
         C           -1.047313774260    -0.801202193749     0.286862244278    12.000000000000
         C           -1.270282774260     0.629895806251    -0.100448755722    12.000000000000
         C           -0.191211774260     1.437689806251    -0.059135755722    12.000000000000
         C            1.112927225740     0.842039806251     0.185101244278    12.000000000000
         C            1.244786225740    -0.488615193749    -0.019175755722    12.000000000000
         H           -0.974890774260    -0.908348193749     1.382022244278     1.007825032230
         H           -1.824282774260    -1.470920193749    -0.084607755722     1.007825032230
         H           -2.261859774260     0.980662806251    -0.370030755722     1.007825032230
         H           -0.253495574260     2.398338806251    -0.277095455722     1.007825032230
         H            1.994254225740     1.446070806251     0.367340244278     1.007825032230
         H            2.192008225740    -1.016551193749    -0.078328755722     1.007825032230

  Basis Set: AUG-CC-PVTZ
    Blend: AUG-CC-PVTZ
  Basis Set: (AUG-CC-PVTZ AUX)
    Blend: AUG-CC-PVTZ-JKFIT
	 Reference Energy          =    -267.7321795533808313 [Eh]
	 Singles Energy            =      -0.0000000000000000 [Eh]
	 Same-Spin Energy          =      -0.2740136522111715 [Eh]
	 Opposite-Spin Energy      =      -0.8863648857871856 [Eh]
	 Correlation Energy        =      -1.1603785379983571 [Eh]
	 Total Energy              =    -268.8925580913792146 [Eh]

	 ================> DF-SCS-MP2 Energies <==================
	-----------------------------------------------------------
	 SCS Same-Spin Scale       =       0.3333333333333333 [-]
	 SCS Opposite-Spin Scale   =       1.2000000000000000 [-]
	 SCS Same-Spin Energy      =      -0.0913378840703905 [Eh]
	 SCS Opposite-Spin Energy  =      -1.0636378629446228 [Eh]
	 SCS Correlation Energy    =      -1.1549757470150133 [Eh]
	 SCS Total Energy          =    -268.8871553003958184 [Eh]
	-----------------------------------------------------------

  Dipole Moment: [D]
     X:    -0.3382      Y:     0.6525      Z:     0.4152     Total:     0.8441

*** Psi4 exiting successfully. Buy a developer a beer!
