                               Psi4 1.3.2 release

  ==> Input File <==

--------------------------------------------------------------------------
#psi4
#
memory 32 gb

molecule  {
0 1
  O        0.1973020    -1.3235490    -0.2892290
  C       -1.0344600    -0.8194530     0.2767900
  C       -1.2574290     0.6116450    -0.1105210
  C       -0.3383903     1.2996386    -0.0753349
  C        1.1257810     0.8237890     0.1750290
  C        1.2576400    -0.5068660    -0.0292480
  H       -0.9620370    -0.9265990     1.3719500
  H       -1.8114290    -1.4891710    -0.0946800
  H       -2.2490060     0.9624120    -0.3801030
  H       -0.2469520     2.4774150    -0.3092500
  H        2.0071080     1.4278200     0.3572680
  H        2.2048620    -1.0348020    -0.0884010
units angstrom
no_reorient  #important for SAPT in psi4, default
symmetry c1  #important for SAPT in psi4, default
}

set PROPERTIES_ORIGIN ["COM"]
properties('MP2/aug-cc-pvtz', properties = ['dipole'])
--------------------------------------------------------------------------

    Molecular point group: c1
  Charge       = 0
  Multiplicity = 1
  Basis Set: AUG-CC-PVTZ
    Blend: AUG-CC-PVTZ
  Basis Set: (AUG-CC-PVTZ AUX)
    Blend: AUG-CC-PVTZ-JKFIT

    Orbital Energies [Eh]
    ---------------------

    Doubly Occupied:

       1A    -20.584863     2A    -11.295150     3A    -11.290619
       4A    -11.228814     5A    -11.227634     6A    -11.201438
       7A     -1.406365     8A     -1.130811     9A     -1.032113
      10A     -0.916364    11A     -0.817414    12A     -0.715751
      13A     -0.694899    14A     -0.656077    15A     -0.633397
      16A     -0.613049    17A     -0.558436    18A     -0.529582
      19A     -0.513377    20A     -0.450737    21A     -0.426975
      22A     -0.325886

  @DF-RHF Final Energy:  -267.67141828974104

   => Energetics <=

    Nuclear Repulsion Energy =            225.7819820155131936
    One-Electron Energy =                -810.4072991562243260
    Two-Electron Energy =                 316.9538988509700630
    Total Energy =                       -267.6714182897410410
  Basis Set: (AUG-CC-PVTZ AUX)
    Blend: AUG-CC-PVTZ-RI
    Molecular point group: c1

    Geometry (in Angstrom), charge = 0, multiplicity = 1:

       Center              X                  Y                   Z               Mass
    ------------   -----------------  -----------------  -----------------  -----------------
         O            0.207933152392    -1.288970965984    -0.277989328642    15.994914619570
         C           -1.023828847608    -0.784874965984     0.288029671358    12.000000000000
         C           -1.246797847608     0.646223034016    -0.099281328642    12.000000000000
         C           -0.327759147608     1.334216634016    -0.064095228642    12.000000000000
         C            1.136412152392     0.858367034016     0.186268671358    12.000000000000
         C            1.268271152392    -0.472287965984    -0.018008328642    12.000000000000
         H           -0.951405847608    -0.892020965984     1.383189671358     1.007825032230
         H           -1.800797847608    -1.454592965984    -0.083440328642     1.007825032230
         H           -2.238374847608     0.996990034016    -0.368863328642     1.007825032230
         H           -0.236320847608     2.511993034016    -0.298010328642     1.007825032230
         H            2.017739152392     1.462398034016     0.368507671358     1.007825032230
         H            2.215493152392    -1.000223965984    -0.077161328642     1.007825032230

  Basis Set: AUG-CC-PVTZ
    Blend: AUG-CC-PVTZ
  Basis Set: (AUG-CC-PVTZ AUX)
    Blend: AUG-CC-PVTZ-JKFIT
	 Reference Energy          =    -267.6714182897410410 [Eh]
	 Singles Energy            =      -0.0000000000000000 [Eh]
	 Same-Spin Energy          =      -0.2723678732750605 [Eh]
	 Opposite-Spin Energy      =      -0.8835377958500858 [Eh]
	 Correlation Energy        =      -1.1559056691251464 [Eh]
	 Total Energy              =    -268.8273239588662022 [Eh]

	 ================> DF-SCS-MP2 Energies <==================
	-----------------------------------------------------------
	 SCS Same-Spin Scale       =       0.3333333333333333 [-]
	 SCS Opposite-Spin Scale   =       1.2000000000000000 [-]
	 SCS Same-Spin Energy      =      -0.0907892910916868 [Eh]
	 SCS Opposite-Spin Energy  =      -1.0602453550201030 [Eh]
	 SCS Correlation Energy    =      -1.1510346461117897 [Eh]
	 SCS Total Energy          =    -268.8224529358528230 [Eh]
	-----------------------------------------------------------

  Dipole Moment: [D]
     X:    -0.4796      Y:     0.6001      Z:     0.4487     Total:     0.8897

*** Psi4 exiting successfully. Buy a developer a beer!
