                               Psi4 1.3.2 release

  ==> Input File <==

--------------------------------------------------------------------------
#psi4
#
memory 32 gb

molecule  {
0 1
  O        0.1973020    -1.3235490    -0.2892290
  C       -1.0344600    -0.8194530     0.2767900
  C       -1.2574290     0.6116450    -0.1105210
  C       -0.1783580     1.4194390    -0.0692080
  C        1.1847110     0.9618237     0.1495620
  C        1.2576400    -0.5068660    -0.0292480
  H       -0.9620370    -0.9265990     1.3719500
  H       -1.8114290    -1.4891710    -0.0946800
  H       -2.2490060     0.9624120    -0.3801030
  H       -0.2469520     2.4774150    -0.3092500
  H        2.0071080     1.4278200     0.3572680
  H        2.2048620    -1.0348020    -0.0884010
units angstrom
no_reorient  #important for SAPT in psi4, default
symmetry c1  #important for SAPT in psi4, default
}

set PROPERTIES_ORIGIN ["COM"]
properties('MP2/aug-cc-pvtz', properties = ['dipole'])
--------------------------------------------------------------------------

    Molecular point group: c1
  Charge       = 0
  Multiplicity = 1
  Basis Set: AUG-CC-PVTZ
    Blend: AUG-CC-PVTZ
  Basis Set: (AUG-CC-PVTZ AUX)
    Blend: AUG-CC-PVTZ-JKFIT

    Orbital Energies [Eh]
    ---------------------

    Doubly Occupied:

       1A    -20.599895     2A    -11.325692     3A    -11.293309
       4A    -11.243809     5A    -11.233079     6A    -11.228411
       7A     -1.414568     8A     -1.090037     9A     -1.026149
      10A     -0.894507    11A     -0.848383    12A     -0.722276
      13A     -0.712261    14A     -0.653868    15A     -0.644840
      16A     -0.598046    17A     -0.577951    18A     -0.543269
      19A     -0.514630    20A     -0.457799    21A     -0.415471
      22A     -0.288153

  @DF-RHF Final Energy:  -267.70301637022675

   => Energetics <=

    Nuclear Repulsion Energy =            221.3697245457825886
    One-Electron Energy =                -801.4926748979867170
    Two-Electron Energy =                 312.4199339819774082
    Total Energy =                       -267.7030163702267487
  Basis Set: (AUG-CC-PVTZ AUX)
    Blend: AUG-CC-PVTZ-RI
    Molecular point group: c1

    Geometry (in Angstrom), charge = 0, multiplicity = 1:

       Center              X                  Y                   Z               Mass
    ------------   -----------------  -----------------  -----------------  -----------------
         O            0.175906240205    -1.326683677744    -0.275160514347    15.994914619570
         C           -1.055855759795    -0.822587677744     0.290858485653    12.000000000000
         C           -1.278824759795     0.608510322256    -0.096452514347    12.000000000000
         C           -0.199753759795     1.416304322256    -0.055139514347    12.000000000000
         C            1.163315240205     0.958689022256     0.163630485653    12.000000000000
         C            1.236244240205    -0.510000677744    -0.015179514347    12.000000000000
         H           -0.983432759795    -0.929733677744     1.386018485653     1.007825032230
         H           -1.832824759795    -1.492305677744    -0.080611514347     1.007825032230
         H           -2.270401759795     0.959277322256    -0.366034514347     1.007825032230
         H           -0.268347759795     2.474280322256    -0.295181514347     1.007825032230
         H            1.985712240205     1.424685322256     0.371336485653     1.007825032230
         H            2.183466240205    -1.037936677744    -0.074332514347     1.007825032230

  Basis Set: AUG-CC-PVTZ
    Blend: AUG-CC-PVTZ
  Basis Set: (AUG-CC-PVTZ AUX)
    Blend: AUG-CC-PVTZ-JKFIT
	 Reference Energy          =    -267.7030163702267487 [Eh]
	 Singles Energy            =      -0.0000000000000000 [Eh]
	 Same-Spin Energy          =      -0.2760740632579424 [Eh]
	 Opposite-Spin Energy      =      -0.8911917049756883 [Eh]
	 Correlation Energy        =      -1.1672657682336307 [Eh]
	 Total Energy              =    -268.8702821384603681 [Eh]

	 ================> DF-SCS-MP2 Energies <==================
	-----------------------------------------------------------
	 SCS Same-Spin Scale       =       0.3333333333333333 [-]
	 SCS Opposite-Spin Scale   =       1.2000000000000000 [-]
	 SCS Same-Spin Energy      =      -0.0920246877526475 [Eh]
	 SCS Opposite-Spin Energy  =      -1.0694300459708259 [Eh]
	 SCS Correlation Energy    =      -1.1614547337234733 [Eh]
	 SCS Total Energy          =    -268.8644711039502226 [Eh]
	-----------------------------------------------------------

  Dipole Moment: [D]
     X:    -0.3363      Y:     0.4607      Z:     0.4589     Total:     0.7321

*** Psi4 exiting successfully. Buy a developer a beer!
