                               Psi4 1.3.2 release

  ==> Input File <==

--------------------------------------------------------------------------
#psi4
#
memory 32 gb

molecule  {
0 1
  O        0.1150504    -1.2073136    -0.2797277
  C       -1.0344600    -0.8194530     0.2767900
  C       -1.2574290     0.6116450    -0.1105210
  C       -0.1783580     1.4194390    -0.0692080
  C        1.1257810     0.8237890     0.1750290
  C        1.2576400    -0.5068660    -0.0292480
  H       -0.9620370    -0.9265990     1.3719500
  H       -1.8114290    -1.4891710    -0.0946800
  H       -2.2490060     0.9624120    -0.3801030
  H       -0.2469520     2.4774150    -0.3092500
  H        2.0071080     1.4278200     0.3572680
  H        2.2048620    -1.0348020    -0.0884010
units angstrom
no_reorient  #important for SAPT in psi4, default
symmetry c1  #important for SAPT in psi4, default
}

set PROPERTIES_ORIGIN ["COM"]
properties('MP2/aug-cc-pvtz', properties = ['dipole'])
--------------------------------------------------------------------------

    Molecular point group: c1
  Charge       = 0
  Multiplicity = 1
  Basis Set: AUG-CC-PVTZ
    Blend: AUG-CC-PVTZ
  Basis Set: (AUG-CC-PVTZ AUX)
    Blend: AUG-CC-PVTZ-JKFIT

    Orbital Energies [Eh]
    ---------------------

    Doubly Occupied:

       1A    -20.578919     2A    -11.301123     3A    -11.281381
       4A    -11.237412     5A    -11.228382     6A    -11.227758
       7A     -1.438279     8A     -1.091941     9A     -1.046608
      10A     -0.894564    11A     -0.845921    12A     -0.729200
      13A     -0.709926    14A     -0.664122    15A     -0.641508
      16A     -0.601994    17A     -0.585513    18A     -0.534572
      19A     -0.493985    20A     -0.459836    21A     -0.412168
      22A     -0.302918

  @DF-RHF Final Energy:  -267.73073236627516

   => Energetics <=

    Nuclear Repulsion Energy =            226.5722285956185544
    One-Electron Energy =                -811.9898601611558888
    Two-Electron Energy =                 317.6868991992622000
    Total Energy =                       -267.7307323662751628
  Basis Set: (AUG-CC-PVTZ AUX)
    Blend: AUG-CC-PVTZ-RI
    Molecular point group: c1

    Geometry (in Angstrom), charge = 0, multiplicity = 1:

       Center              X                  Y                   Z               Mass
    ------------   -----------------  -----------------  -----------------  -----------------
         O            0.118309946663    -1.212919685473    -0.271236567852    15.994914619570
         C           -1.031200453337    -0.825059085473     0.285281132148    12.000000000000
         C           -1.254169453337     0.606038914527    -0.102029867852    12.000000000000
         C           -0.175098453337     1.413832914527    -0.060716867852    12.000000000000
         C            1.129040546663     0.818182914527     0.183520132148    12.000000000000
         C            1.260899546663    -0.512472085473    -0.020756867852    12.000000000000
         H           -0.958777453337    -0.932205085473     1.380441132148     1.007825032230
         H           -1.808169453337    -1.494777085473    -0.086188867852     1.007825032230
         H           -2.245746453337     0.956805914527    -0.371611867852     1.007825032230
         H           -0.243692453337     2.471808914527    -0.300758867852     1.007825032230
         H            2.010367546663     1.422213914527     0.365759132148     1.007825032230
         H            2.208121546663    -1.040408085473    -0.079909867852     1.007825032230

  Basis Set: AUG-CC-PVTZ
    Blend: AUG-CC-PVTZ
  Basis Set: (AUG-CC-PVTZ AUX)
    Blend: AUG-CC-PVTZ-JKFIT
	 Reference Energy          =    -267.7307323662751628 [Eh]
	 Singles Energy            =      -0.0000000000000000 [Eh]
	 Same-Spin Energy          =      -0.2739084352856963 [Eh]
	 Opposite-Spin Energy      =      -0.8844183995337119 [Eh]
	 Correlation Energy        =      -1.1583268348194082 [Eh]
	 Total Energy              =    -268.8890592010945966 [Eh]

	 ================> DF-SCS-MP2 Energies <==================
	-----------------------------------------------------------
	 SCS Same-Spin Scale       =       0.3333333333333333 [-]
	 SCS Opposite-Spin Scale   =       1.2000000000000000 [-]
	 SCS Same-Spin Energy      =      -0.0913028117618988 [Eh]
	 SCS Opposite-Spin Energy  =      -1.0613020794404542 [Eh]
	 SCS Correlation Energy    =      -1.1526048912023530 [Eh]
	 SCS Total Energy          =    -268.8833372574775353 [Eh]
	-----------------------------------------------------------

  Dipole Moment: [D]
     X:    -0.0401      Y:     0.4316      Z:     0.3170     Total:     0.5370

*** Psi4 exiting successfully. Buy a developer a beer!
