                               Psi4 1.3.2 release

  ==> Input File <==

--------------------------------------------------------------------------
#psi4
#
memory 32 gb

molecule  {
0 1
  O        0.1973020    -1.3235490    -0.2892290
  C       -1.0344600    -0.8194530     0.2767900
  C       -1.2574290     0.6116450    -0.1105210
  C       -0.1783580     1.4194390    -0.0692080
  C        1.1257810     0.8237890     0.1750290
  C        1.2478921    -0.4084947    -0.0141464
  H       -0.9620370    -0.9265990     1.3719500
  H       -1.8114290    -1.4891710    -0.0946800
  H       -2.2490060     0.9624120    -0.3801030
  H       -0.2469520     2.4774150    -0.3092500
  H        2.0071080     1.4278200     0.3572680
  H        2.2048620    -1.0348020    -0.0884010
units angstrom
no_reorient  #important for SAPT in psi4, default
symmetry c1  #important for SAPT in psi4, default
}

set PROPERTIES_ORIGIN ["COM"]
properties('MP2/aug-cc-pvtz', properties = ['dipole'])
--------------------------------------------------------------------------

    Molecular point group: c1
  Charge       = 0
  Multiplicity = 1
  Basis Set: AUG-CC-PVTZ
    Blend: AUG-CC-PVTZ
  Basis Set: (AUG-CC-PVTZ AUX)
    Blend: AUG-CC-PVTZ-JKFIT

    Orbital Energies [Eh]
    ---------------------

    Doubly Occupied:

       1A    -20.579057     2A    -11.289323     3A    -11.286160
       4A    -11.242801     5A    -11.234504     6A    -11.218175
       7A     -1.384217     8A     -1.110822     9A     -1.042598
      10A     -0.904064    11A     -0.830042    12A     -0.713212
      13A     -0.700553    14A     -0.645893    15A     -0.628434
      16A     -0.597204    17A     -0.572901    18A     -0.523371
      19A     -0.498136    20A     -0.475021    21A     -0.426821
      22A     -0.318951

  @DF-RHF Final Energy:  -267.72289302161965

   => Energetics <=

    Nuclear Repulsion Energy =            224.2114123113825599
    One-Electron Energy =                -807.4240891500105590
    Two-Electron Energy =                 315.4897838170083446
    Total Energy =                       -267.7228930216196545
  Basis Set: (AUG-CC-PVTZ AUX)
    Blend: AUG-CC-PVTZ-RI
    Molecular point group: c1

    Geometry (in Angstrom), charge = 0, multiplicity = 1:

       Center              X                  Y                   Z               Mass
    ------------   -----------------  -----------------  -----------------  -----------------
         O            0.185951536005    -1.320882239648    -0.281094353139    15.994914619570
         C           -1.045810463995    -0.816786239648     0.284924646861    12.000000000000
         C           -1.268779463995     0.614311760352    -0.102386353139    12.000000000000
         C           -0.189708463995     1.422105760352    -0.061073353139    12.000000000000
         C            1.114430536005     0.826455760352     0.183163646861    12.000000000000
         C            1.236541636005    -0.405827939648    -0.006011753139    12.000000000000
         H           -0.973387463995    -0.923932239648     1.380084646861     1.007825032230
         H           -1.822779463995    -1.486504239648    -0.086545353139     1.007825032230
         H           -2.260356463995     0.965078760352    -0.371968353139     1.007825032230
         H           -0.258302463995     2.480081760352    -0.301115353139     1.007825032230
         H            1.995757536005     1.430486760352     0.365402646861     1.007825032230
         H            2.193511536005    -1.032135239648    -0.080266353139     1.007825032230

  Basis Set: AUG-CC-PVTZ
    Blend: AUG-CC-PVTZ
  Basis Set: (AUG-CC-PVTZ AUX)
    Blend: AUG-CC-PVTZ-JKFIT
	 Reference Energy          =    -267.7228930216196545 [Eh]
	 Singles Energy            =      -0.0000000000000000 [Eh]
	 Same-Spin Energy          =      -0.2735381672826106 [Eh]
	 Opposite-Spin Energy      =      -0.8864650846524638 [Eh]
	 Correlation Energy        =      -1.1600032519350743 [Eh]
	 Total Energy              =    -268.8828962735547066 [Eh]

	 ================> DF-SCS-MP2 Energies <==================
	-----------------------------------------------------------
	 SCS Same-Spin Scale       =       0.3333333333333333 [-]
	 SCS Opposite-Spin Scale   =       1.2000000000000000 [-]
	 SCS Same-Spin Energy      =      -0.0911793890942035 [Eh]
	 SCS Opposite-Spin Energy  =      -1.0637581015829565 [Eh]
	 SCS Correlation Energy    =      -1.1549374906771601 [Eh]
	 SCS Total Energy          =    -268.8778305122968391 [Eh]
	-----------------------------------------------------------

  Dipole Moment: [D]
     X:    -0.2578      Y:     0.9638      Z:     0.4846     Total:     1.1091

*** Psi4 exiting successfully. Buy a developer a beer!
