                               Psi4 1.3.2 release

  ==> Input File <==

--------------------------------------------------------------------------
#psi4
#
memory 32 gb

molecule  {
0 1
  O        0.1973020    -1.3235490    -0.2892290
  C       -1.0344600    -0.8194530     0.2767900
  C       -1.2574290     0.6116450    -0.1105210
  C       -0.1651264     1.4010889    -0.0627141
  C        1.1257810     0.8237890     0.1750290
  C        1.2576400    -0.5068660    -0.0292480
  H       -0.9620370    -0.9265990     1.3719500
  H       -1.8114290    -1.4891710    -0.0946800
  H       -2.2490060     0.9624120    -0.3801030
  H       -0.2469520     2.4774150    -0.3092500
  H        2.0071080     1.4278200     0.3572680
  H        2.2048620    -1.0348020    -0.0884010
units angstrom
no_reorient  #important for SAPT in psi4, default
symmetry c1  #important for SAPT in psi4, default
}

set PROPERTIES_ORIGIN ["COM"]
properties('MP2/aug-cc-pvtz', properties = ['dipole'])
--------------------------------------------------------------------------

    Molecular point group: c1
  Charge       = 0
  Multiplicity = 1
  Basis Set: AUG-CC-PVTZ
    Blend: AUG-CC-PVTZ
  Basis Set: (AUG-CC-PVTZ AUX)
    Blend: AUG-CC-PVTZ-JKFIT

    Orbital Energies [Eh]
    ---------------------

    Doubly Occupied:

       1A    -20.587693     2A    -11.301872     3A    -11.290457
       4A    -11.241783     5A    -11.230435     6A    -11.225178
       7A     -1.407957     8A     -1.099192     9A     -1.035484
      10A     -0.896840    11A     -0.842702    12A     -0.717573
      13A     -0.703092    14A     -0.651297    15A     -0.633314
      16A     -0.602958    17A     -0.571541    18A     -0.535503
      19A     -0.507802    20A     -0.469753    21A     -0.421110
      22A     -0.301067

  @DF-RHF Final Energy:  -267.73694080938526

   => Energetics <=

    Nuclear Repulsion Energy =            223.8289214618186520
    One-Electron Energy =                -806.5825192428675336
    Two-Electron Energy =                 315.0166569716636786
    Total Energy =                       -267.7369408093852599
  Basis Set: (AUG-CC-PVTZ AUX)
    Blend: AUG-CC-PVTZ-RI
    Molecular point group: c1

    Geometry (in Angstrom), charge = 0, multiplicity = 1:

       Center              X                  Y                   Z               Mass
    ------------   -----------------  -----------------  -----------------  -----------------
         O            0.182590398364    -1.303809775447    -0.279835332513    15.994914619570
         C           -1.049171601636    -0.799713775447     0.286183667487    12.000000000000
         C           -1.272140601636     0.631384224553    -0.101127332513    12.000000000000
         C           -0.179838001636     1.420828124553    -0.053320432513    12.000000000000
         C            1.111069398364     0.843528224553     0.184422667487    12.000000000000
         C            1.242928398364    -0.487126775447    -0.019854332513    12.000000000000
         H           -0.976748601636    -0.906859775447     1.381343667487     1.007825032230
         H           -1.826140601636    -1.469431775447    -0.085286332513     1.007825032230
         H           -2.263717601636     0.982151224553    -0.370709332513     1.007825032230
         H           -0.261663601636     2.497154224553    -0.299856332513     1.007825032230
         H            1.992396398364     1.447559224553     0.366661667487     1.007825032230
         H            2.190150398364    -1.015062775447    -0.079007332513     1.007825032230

  Basis Set: AUG-CC-PVTZ
    Blend: AUG-CC-PVTZ
  Basis Set: (AUG-CC-PVTZ AUX)
    Blend: AUG-CC-PVTZ-JKFIT
	 Reference Energy          =    -267.7369408093852599 [Eh]
	 Singles Energy            =      -0.0000000000000000 [Eh]
	 Same-Spin Energy          =      -0.2745050919440133 [Eh]
	 Opposite-Spin Energy      =      -0.8870439043837763 [Eh]
	 Correlation Energy        =      -1.1615489963277896 [Eh]
	 Total Energy              =    -268.8984898057130408 [Eh]

	 ================> DF-SCS-MP2 Energies <==================
	-----------------------------------------------------------
	 SCS Same-Spin Scale       =       0.3333333333333333 [-]
	 SCS Opposite-Spin Scale   =       1.2000000000000000 [-]
	 SCS Same-Spin Energy      =      -0.0915016973146711 [Eh]
	 SCS Opposite-Spin Energy  =      -1.0644526852605316 [Eh]
	 SCS Correlation Energy    =      -1.1559543825752028 [Eh]
	 SCS Total Energy          =    -268.8928951919604629 [Eh]
	-----------------------------------------------------------

  Dipole Moment: [D]
     X:    -0.2989      Y:     0.6042      Z:     0.4226     Total:     0.7956

*** Psi4 exiting successfully. Buy a developer a beer!
