                               Psi4 1.3.2 release

  ==> Input File <==

--------------------------------------------------------------------------
#psi4
#
memory 32 gb

molecule  {
0 1
  O        0.1973020    -1.3235490    -0.2892290
  C       -1.0344600    -0.8194530     0.2767900
  C       -1.2574290     0.6116450    -0.1105210
  C       -0.1783580     1.4194390    -0.0692080
  C        1.1145504     0.8013778     0.1790205
  C        1.2576400    -0.5068660    -0.0292480
  H       -0.9620370    -0.9265990     1.3719500
  H       -1.8114290    -1.4891710    -0.0946800
  H       -2.2490060     0.9624120    -0.3801030
  H       -0.2469520     2.4774150    -0.3092500
  H        2.0071080     1.4278200     0.3572680
  H        2.2048620    -1.0348020    -0.0884010
units angstrom
no_reorient  #important for SAPT in psi4, default
symmetry c1  #important for SAPT in psi4, default
}

set PROPERTIES_ORIGIN ["COM"]
properties('MP2/aug-cc-pvtz', properties = ['dipole'])
--------------------------------------------------------------------------

    Molecular point group: c1
  Charge       = 0
  Multiplicity = 1
  Basis Set: AUG-CC-PVTZ
    Blend: AUG-CC-PVTZ
  Basis Set: (AUG-CC-PVTZ AUX)
    Blend: AUG-CC-PVTZ-JKFIT

    Orbital Energies [Eh]
    ---------------------

    Doubly Occupied:

       1A    -20.585096     2A    -11.296802     3A    -11.290845
       4A    -11.241647     5A    -11.231798     6A    -11.225083
       7A     -1.406454     8A     -1.097712     9A     -1.036515
      10A     -0.899899    11A     -0.839071    12A     -0.718870
      13A     -0.701719    14A     -0.649828    15A     -0.630818
      16A     -0.607111    17A     -0.570986    18A     -0.530708
      19A     -0.505233    20A     -0.473135    21A     -0.419574
      22A     -0.304690

  @DF-RHF Final Energy:  -267.73805593921128

   => Energetics <=

    Nuclear Repulsion Energy =            223.8794405261852205
    One-Electron Energy =                -806.7078079325814315
    Two-Electron Energy =                 315.0903114671849039
    Total Energy =                       -267.7380559392112787
  Basis Set: (AUG-CC-PVTZ AUX)
    Blend: AUG-CC-PVTZ-RI
    Molecular point group: c1

    Geometry (in Angstrom), charge = 0, multiplicity = 1:

       Center              X                  Y                   Z               Mass
    ------------   -----------------  -----------------  -----------------  -----------------
         O            0.186168405771    -1.303215771397    -0.279469314504    15.994914619570
         C           -1.045593594229    -0.799119771397     0.286549685496    12.000000000000
         C           -1.268562594229     0.631978228603    -0.100761314504    12.000000000000
         C           -0.189491594229     1.439772228603    -0.059448314504    12.000000000000
         C            1.103416805771     0.821711028603     0.188780185496    12.000000000000
         C            1.246506405771    -0.486532771397    -0.019488314504    12.000000000000
         H           -0.973170594229    -0.906265771397     1.381709685496     1.007825032230
         H           -1.822562594229    -1.468837771397    -0.084920314504     1.007825032230
         H           -2.260139594229     0.982745228603    -0.370343314504     1.007825032230
         H           -0.258085594229     2.497748228603    -0.299490314504     1.007825032230
         H            1.995974405771     1.448153228603     0.367027685496     1.007825032230
         H            2.193728405771    -1.014468771397    -0.078641314504     1.007825032230

  Basis Set: AUG-CC-PVTZ
    Blend: AUG-CC-PVTZ
  Basis Set: (AUG-CC-PVTZ AUX)
    Blend: AUG-CC-PVTZ-JKFIT
	 Reference Energy          =    -267.7380559392112787 [Eh]
	 Singles Energy            =      -0.0000000000000000 [Eh]
	 Same-Spin Energy          =      -0.2739248704684212 [Eh]
	 Opposite-Spin Energy      =      -0.8863034709935407 [Eh]
	 Correlation Energy        =      -1.1602283414619619 [Eh]
	 Total Energy              =    -268.8982842806732378 [Eh]

	 ================> DF-SCS-MP2 Energies <==================
	-----------------------------------------------------------
	 SCS Same-Spin Scale       =       0.3333333333333333 [-]
	 SCS Opposite-Spin Scale   =       1.2000000000000000 [-]
	 SCS Same-Spin Energy      =      -0.0913082901561404 [Eh]
	 SCS Opposite-Spin Energy  =      -1.0635641651922487 [Eh]
	 SCS Correlation Energy    =      -1.1548724553483891 [Eh]
	 SCS Total Energy          =    -268.8929283945596467 [Eh]
	-----------------------------------------------------------

  Dipole Moment: [D]
     X:    -0.3352      Y:     0.6497      Z:     0.4116     Total:     0.8390

*** Psi4 exiting successfully. Buy a developer a beer!
