                               Psi4 1.3.2 release

  ==> Input File <==

--------------------------------------------------------------------------
#psi4
#
memory 32 gb

molecule  {
0 1
  O        0.1973020    -1.3235490    -0.2892290
  C       -1.0344600    -0.8194530     0.2767900
  C       -1.2574290     0.6116450    -0.1105210
  C       -0.1783580     1.4194390    -0.0692080
  C        1.1257810     0.8237890     0.1750290
  C        1.2810113    -0.5047352    -0.0266781
  H       -0.9620370    -0.9265990     1.3719500
  H       -1.8114290    -1.4891710    -0.0946800
  H       -2.2490060     0.9624120    -0.3801030
  H       -0.2469520     2.4774150    -0.3092500
  H        2.0071080     1.4278200     0.3572680
  H        2.2048620    -1.0348020    -0.0884010
units angstrom
no_reorient  #important for SAPT in psi4, default
symmetry c1  #important for SAPT in psi4, default
}

set PROPERTIES_ORIGIN ["COM"]
properties('MP2/aug-cc-pvtz', properties = ['dipole'])
--------------------------------------------------------------------------

    Molecular point group: c1
  Charge       = 0
  Multiplicity = 1
  Basis Set: AUG-CC-PVTZ
    Blend: AUG-CC-PVTZ
  Basis Set: (AUG-CC-PVTZ AUX)
    Blend: AUG-CC-PVTZ-JKFIT

    Orbital Energies [Eh]
    ---------------------

    Doubly Occupied:

       1A    -20.583601     2A    -11.299588     3A    -11.290030
       4A    -11.242062     5A    -11.232564     6A    -11.228131
       7A     -1.397617     8A     -1.095922     9A     -1.034599
      10A     -0.897516    11A     -0.841456    12A     -0.718774
      13A     -0.702074    14A     -0.646767    15A     -0.631534
      16A     -0.606028    17A     -0.571618    18A     -0.532556
      19A     -0.504655    20A     -0.471312    21A     -0.418996
      22A     -0.303673

  @DF-RHF Final Energy:  -267.73708881658968

   => Energetics <=

    Nuclear Repulsion Energy =            223.0931664327597446
    One-Electron Energy =                -805.1583659176061474
    Two-Electron Energy =                 314.3281106682567270
    Total Energy =                       -267.7370888165896758
  Basis Set: (AUG-CC-PVTZ AUX)
    Blend: AUG-CC-PVTZ-RI
    Molecular point group: c1

    Geometry (in Angstrom), charge = 0, multiplicity = 1:

       Center              X                  Y                   Z               Mass
    ------------   -----------------  -----------------  -----------------  -----------------
         O            0.181107297019    -1.306805450894    -0.279261381639    15.994914619570
         C           -1.050654702981    -0.802709450894     0.286757618361    12.000000000000
         C           -1.273623702981     0.628388549106    -0.100553381639    12.000000000000
         C           -0.194552702981     1.436182549106    -0.059240381639    12.000000000000
         C            1.109586297019     0.840532549106     0.184996618361    12.000000000000
         C            1.264816597019    -0.487991650894    -0.016710481639    12.000000000000
         H           -0.978231702981    -0.909855450894     1.381917618361     1.007825032230
         H           -1.827623702981    -1.472427450894    -0.084712381639     1.007825032230
         H           -2.265200702981     0.979155549106    -0.370135381639     1.007825032230
         H           -0.263146702981     2.494158549106    -0.299282381639     1.007825032230
         H            1.990913297019     1.444563549106     0.367235618361     1.007825032230
         H            2.188667297019    -1.018058450894    -0.078433381639     1.007825032230

  Basis Set: AUG-CC-PVTZ
    Blend: AUG-CC-PVTZ
  Basis Set: (AUG-CC-PVTZ AUX)
    Blend: AUG-CC-PVTZ-JKFIT
	 Reference Energy          =    -267.7370888165896758 [Eh]
	 Singles Energy            =      -0.0000000000000000 [Eh]
	 Same-Spin Energy          =      -0.2740336405329865 [Eh]
	 Opposite-Spin Energy      =      -0.8870734986381976 [Eh]
	 Correlation Energy        =      -1.1611071391711842 [Eh]
	 Total Energy              =    -268.8981959557608548 [Eh]

	 ================> DF-SCS-MP2 Energies <==================
	-----------------------------------------------------------
	 SCS Same-Spin Scale       =       0.3333333333333333 [-]
	 SCS Opposite-Spin Scale   =       1.2000000000000000 [-]
	 SCS Same-Spin Energy      =      -0.0913445468443288 [Eh]
	 SCS Opposite-Spin Energy  =      -1.0644881983658372 [Eh]
	 SCS Correlation Energy    =      -1.1558327452101660 [Eh]
	 SCS Total Energy          =    -268.8929215617998238 [Eh]
	-----------------------------------------------------------

  Dipole Moment: [D]
     X:    -0.2851      Y:     0.6819      Z:     0.4286     Total:     0.8544

*** Psi4 exiting successfully. Buy a developer a beer!
