                               Psi4 1.3.2 release

  ==> Input File <==

--------------------------------------------------------------------------
#psi4
#
memory 32 gb

molecule  {
0 1
  O        0.1973020    -1.3235490    -0.2892290
  C       -1.0344600    -0.8194530     0.2767900
  C       -1.2292013     0.5748879    -0.1022847
  C       -0.1783580     1.4194390    -0.0692080
  C        1.1257810     0.8237890     0.1750290
  C        1.2576400    -0.5068660    -0.0292480
  H       -0.9620370    -0.9265990     1.3719500
  H       -1.8114290    -1.4891710    -0.0946800
  H       -2.2490060     0.9624120    -0.3801030
  H       -0.2469520     2.4774150    -0.3092500
  H        2.0071080     1.4278200     0.3572680
  H        2.2048620    -1.0348020    -0.0884010
units angstrom
no_reorient  #important for SAPT in psi4, default
symmetry c1  #important for SAPT in psi4, default
}

set PROPERTIES_ORIGIN ["COM"]
properties('MP2/aug-cc-pvtz', properties = ['dipole'])
--------------------------------------------------------------------------

    Molecular point group: c1
  Charge       = 0
  Multiplicity = 1
  Basis Set: AUG-CC-PVTZ
    Blend: AUG-CC-PVTZ
  Basis Set: (AUG-CC-PVTZ AUX)
    Blend: AUG-CC-PVTZ-JKFIT

    Orbital Energies [Eh]
    ---------------------

    Doubly Occupied:

       1A    -20.586358     2A    -11.299972     3A    -11.289754
       4A    -11.241574     5A    -11.232503     6A    -11.225404
       7A     -1.407981     8A     -1.099166     9A     -1.038416
      10A     -0.899946    11A     -0.839527    12A     -0.720326
      13A     -0.700027    14A     -0.651900    15A     -0.631533
      16A     -0.603199    17A     -0.577078    18A     -0.529941
      19A     -0.508199    20A     -0.472695    21A     -0.418617
      22A     -0.301184

  @DF-RHF Final Energy:  -267.73494697898002

   => Energetics <=

    Nuclear Repulsion Energy =            224.1843252961513144
    One-Electron Energy =                -807.2879490765822084
    Two-Electron Energy =                 315.3686768014508743
    Total Energy =                       -267.7349469789800196
  Basis Set: (AUG-CC-PVTZ AUX)
    Blend: AUG-CC-PVTZ-RI
    Molecular point group: c1

    Geometry (in Angstrom), charge = 0, multiplicity = 1:

       Center              X                  Y                   Z               Mass
    ------------   -----------------  -----------------  -----------------  -----------------
         O            0.180396966993    -1.301117442691    -0.280090187763    15.994914619570
         C           -1.051365033007    -0.797021442691     0.285928812237    12.000000000000
         C           -1.246106333007     0.597319457309    -0.093145887763    12.000000000000
         C           -0.195263033007     1.441870557309    -0.060069187763    12.000000000000
         C            1.108875966993     0.846220557309     0.184167812237    12.000000000000
         C            1.240734966993    -0.484434442691    -0.020109187763    12.000000000000
         H           -0.978942033007    -0.904167442691     1.381088812237     1.007825032230
         H           -1.828334033007    -1.466739442691    -0.085541187763     1.007825032230
         H           -2.265911033007     0.984843557309    -0.370964187763     1.007825032230
         H           -0.263857033007     2.499846557309    -0.300111187763     1.007825032230
         H            1.990202966993     1.450251557309     0.366406812237     1.007825032230
         H            2.187956966993    -1.012370442691    -0.079262187763     1.007825032230

  Basis Set: AUG-CC-PVTZ
    Blend: AUG-CC-PVTZ
  Basis Set: (AUG-CC-PVTZ AUX)
    Blend: AUG-CC-PVTZ-JKFIT
	 Reference Energy          =    -267.7349469789800196 [Eh]
	 Singles Energy            =      -0.0000000000000000 [Eh]
	 Same-Spin Energy          =      -0.2746093160157119 [Eh]
	 Opposite-Spin Energy      =      -0.8871725208408112 [Eh]
	 Correlation Energy        =      -1.1617818368565231 [Eh]
	 Total Energy              =    -268.8967288158365250 [Eh]

	 ================> DF-SCS-MP2 Energies <==================
	-----------------------------------------------------------
	 SCS Same-Spin Scale       =       0.3333333333333333 [-]
	 SCS Opposite-Spin Scale   =       1.2000000000000000 [-]
	 SCS Same-Spin Energy      =      -0.0915364386719039 [Eh]
	 SCS Opposite-Spin Energy  =      -1.0646070250089734 [Eh]
	 SCS Correlation Energy    =      -1.1561434636808774 [Eh]
	 SCS Total Energy          =    -268.8910904426609250 [Eh]
	-----------------------------------------------------------

  Dipole Moment: [D]
     X:    -0.3290      Y:     0.6358      Z:     0.4257     Total:     0.8329

*** Psi4 exiting successfully. Buy a developer a beer!
