                               Psi4 1.3.2 release

  ==> Input File <==

--------------------------------------------------------------------------
#psi4
#
memory 32 gb

molecule  {
0 1
  O        0.1973020    -1.3235490    -0.2892290
  C       -1.0344600    -0.8194530     0.2767900
  C       -1.2574290     0.6116450    -0.1105210
  C       -0.1919183     1.4375431    -0.0757144
  C        1.1257810     0.8237890     0.1750290
  C        1.2576400    -0.5068660    -0.0292480
  H       -0.9620370    -0.9265990     1.3719500
  H       -1.8114290    -1.4891710    -0.0946800
  H       -2.2490060     0.9624120    -0.3801030
  H       -0.2469520     2.4774150    -0.3092500
  H        2.0071080     1.4278200     0.3572680
  H        2.2048620    -1.0348020    -0.0884010
units angstrom
no_reorient  #important for SAPT in psi4, default
symmetry c1  #important for SAPT in psi4, default
}

set PROPERTIES_ORIGIN ["COM"]
properties('MP2/aug-cc-pvtz', properties = ['dipole'])
--------------------------------------------------------------------------

    Molecular point group: c1
  Charge       = 0
  Multiplicity = 1
  Basis Set: AUG-CC-PVTZ
    Blend: AUG-CC-PVTZ
  Basis Set: (AUG-CC-PVTZ AUX)
    Blend: AUG-CC-PVTZ-JKFIT

    Orbital Energies [Eh]
    ---------------------

    Doubly Occupied:

       1A    -20.586484     2A    -11.299928     3A    -11.291856
       4A    -11.241703     5A    -11.232302     6A    -11.227099
       7A     -1.406773     8A     -1.093800     9A     -1.033740
      10A     -0.900261    11A     -0.838676    12A     -0.719426
      13A     -0.703433    14A     -0.648199    15A     -0.633170
      16A     -0.608327    17A     -0.572464    18A     -0.529542
      19A     -0.508403    20A     -0.472000    21A     -0.416709
      22A     -0.303420

  @DF-RHF Final Energy:  -267.73798720943313

   => Energetics <=

    Nuclear Repulsion Energy =            223.1709963216397057
    One-Electron Energy =                -805.2825391251556084
    Two-Electron Energy =                 314.3735555940828021
    Total Energy =                       -267.7379872094331290
  Basis Set: (AUG-CC-PVTZ AUX)
    Blend: AUG-CC-PVTZ-RI
    Molecular point group: c1

    Geometry (in Angstrom), charge = 0, multiplicity = 1:

       Center              X                  Y                   Z               Mass
    ------------   -----------------  -----------------  -----------------  -----------------
         O            0.186509163505    -1.309141814169    -0.277933820396    15.994914619570
         C           -1.045252836495    -0.805045814169     0.288085179604    12.000000000000
         C           -1.268221836495     0.626052185831    -0.099225820396    12.000000000000
         C           -0.202711136495     1.451950285831    -0.064419220396    12.000000000000
         C            1.114988163505     0.838196185831     0.186324179604    12.000000000000
         C            1.246847163505    -0.492458814169    -0.017952820396    12.000000000000
         H           -0.972829836495    -0.912191814169     1.383245179604     1.007825032230
         H           -1.822221836495    -1.474763814169    -0.083384820396     1.007825032230
         H           -2.259798836495     0.976819185831    -0.368807820396     1.007825032230
         H           -0.257744836495     2.491822185831    -0.297954820396     1.007825032230
         H            1.996315163505     1.442227185831     0.368563179604     1.007825032230
         H            2.194069163505    -1.020394814169    -0.077105820396     1.007825032230

  Basis Set: AUG-CC-PVTZ
    Blend: AUG-CC-PVTZ
  Basis Set: (AUG-CC-PVTZ AUX)
    Blend: AUG-CC-PVTZ-JKFIT
	 Reference Energy          =    -267.7379872094331290 [Eh]
	 Singles Energy            =      -0.0000000000000000 [Eh]
	 Same-Spin Energy          =      -0.2737688581236499 [Eh]
	 Opposite-Spin Energy      =      -0.8865273247272659 [Eh]
	 Correlation Energy        =      -1.1602961828509160 [Eh]
	 Total Energy              =    -268.8982833922840427 [Eh]

	 ================> DF-SCS-MP2 Energies <==================
	-----------------------------------------------------------
	 SCS Same-Spin Scale       =       0.3333333333333333 [-]
	 SCS Opposite-Spin Scale   =       1.2000000000000000 [-]
	 SCS Same-Spin Energy      =      -0.0912562860412166 [Eh]
	 SCS Opposite-Spin Energy  =      -1.0638327896727191 [Eh]
	 SCS Correlation Energy    =      -1.1550890757139358 [Eh]
	 SCS Total Energy          =    -268.8930762851470604 [Eh]
	-----------------------------------------------------------

  Dipole Moment: [D]
     X:    -0.3565      Y:     0.6392      Z:     0.4159     Total:     0.8418

*** Psi4 exiting successfully. Buy a developer a beer!
