                               Psi4 1.3.2 release

  ==> Input File <==

--------------------------------------------------------------------------
#psi4
#
memory 32 gb

molecule  {
0 1
  O        0.1973020    -1.3235490    -0.2892290
  C       -1.0344600    -0.8194530     0.2767900
  C       -1.2574290     0.6116450    -0.1105210
  C       -0.1978212     1.3727789    -0.0738015
  C        1.1257810     0.8237890     0.1750290
  C        1.2576400    -0.5068660    -0.0292480
  H       -0.9620370    -0.9265990     1.3719500
  H       -1.8114290    -1.4891710    -0.0946800
  H       -2.2490060     0.9624120    -0.3801030
  H       -0.2469520     2.4774150    -0.3092500
  H        2.0071080     1.4278200     0.3572680
  H        2.2048620    -1.0348020    -0.0884010
units angstrom
no_reorient  #important for SAPT in psi4, default
symmetry c1  #important for SAPT in psi4, default
}

set PROPERTIES_ORIGIN ["COM"]
properties('MP2/aug-cc-pvtz', properties = ['dipole'])
--------------------------------------------------------------------------

    Molecular point group: c1
  Charge       = 0
  Multiplicity = 1
  Basis Set: AUG-CC-PVTZ
    Blend: AUG-CC-PVTZ
  Basis Set: (AUG-CC-PVTZ AUX)
    Blend: AUG-CC-PVTZ-JKFIT

    Orbital Energies [Eh]
    ---------------------

    Doubly Occupied:

       1A    -20.587042     2A    -11.300504     3A    -11.290049
       4A    -11.238749     5A    -11.225641     6A    -11.224430
       7A     -1.407629     8A     -1.103252     9A     -1.036060
      10A     -0.900383    11A     -0.838285    12A     -0.716270
      13A     -0.701816    14A     -0.651921    15A     -0.633478
      16A     -0.604184    17A     -0.567158    18A     -0.534738
      19A     -0.510300    20A     -0.464829    21A     -0.423539
      22A     -0.307011

  @DF-RHF Final Energy:  -267.73615961635591

   => Energetics <=

    Nuclear Repulsion Energy =            224.2909584418329132
    One-Electron Energy =                -807.5196986994758390
    Two-Electron Energy =                 315.4925806412870202
    Total Energy =                       -267.7361596163559057
  Basis Set: (AUG-CC-PVTZ AUX)
    Blend: AUG-CC-PVTZ-RI
    Molecular point group: c1

    Geometry (in Angstrom), charge = 0, multiplicity = 1:

       Center              X                  Y                   Z               Mass
    ------------   -----------------  -----------------  -----------------  -----------------
         O            0.187372561725    -1.299668962695    -0.278213614134    15.994914619570
         C           -1.044389438275    -0.795572962695     0.287805385866    12.000000000000
         C           -1.267358438275     0.635525037305    -0.099505614134    12.000000000000
         C           -0.207750638275     1.396658937305    -0.062786114134    12.000000000000
         C            1.115851561725     0.847669037305     0.186044385866    12.000000000000
         C            1.247710561725    -0.482985962695    -0.018232614134    12.000000000000
         H           -0.971966438275    -0.902718962695     1.382965385866     1.007825032230
         H           -1.821358438275    -1.465290962695    -0.083664614134     1.007825032230
         H           -2.258935438275     0.986292037305    -0.369087614134     1.007825032230
         H           -0.256881438275     2.501295037305    -0.298234614134     1.007825032230
         H            1.997178561725     1.451700037305     0.368283385866     1.007825032230
         H            2.194932561725    -1.010921962695    -0.077385614134     1.007825032230

  Basis Set: AUG-CC-PVTZ
    Blend: AUG-CC-PVTZ
  Basis Set: (AUG-CC-PVTZ AUX)
    Blend: AUG-CC-PVTZ-JKFIT
	 Reference Energy          =    -267.7361596163559057 [Eh]
	 Singles Energy            =      -0.0000000000000000 [Eh]
	 Same-Spin Energy          =      -0.2737846405174653 [Eh]
	 Opposite-Spin Energy      =      -0.8858115973648443 [Eh]
	 Correlation Energy        =      -1.1595962378823095 [Eh]
	 Total Energy              =    -268.8957558542381889 [Eh]

	 ================> DF-SCS-MP2 Energies <==================
	-----------------------------------------------------------
	 SCS Same-Spin Scale       =       0.3333333333333333 [-]
	 SCS Opposite-Spin Scale   =       1.2000000000000000 [-]
	 SCS Same-Spin Energy      =      -0.0912615468391551 [Eh]
	 SCS Opposite-Spin Energy  =      -1.0629739168378132 [Eh]
	 SCS Correlation Energy    =      -1.1542354636769683 [Eh]
	 SCS Total Energy          =    -268.8903950800328744 [Eh]
	-----------------------------------------------------------

  Dipole Moment: [D]
     X:    -0.3252      Y:     0.6083      Z:     0.4345     Total:     0.8152

*** Psi4 exiting successfully. Buy a developer a beer!
