                               Psi4 1.3.2 release

  ==> Input File <==

--------------------------------------------------------------------------
#psi4
#
memory 32 gb

molecule  {
0 1
  O        0.1973020    -1.3235490    -0.2892290
  C       -1.0344600    -0.8194530     0.2767900
  C       -1.2574290     0.6116450    -0.1105210
  C       -0.1783580     1.4194390    -0.0692080
  C        1.1257810     0.8237890     0.1750290
  C        1.2576400    -0.5068660    -0.0292480
  H       -0.9620370    -0.9265990     1.3719500
  H       -1.8114290    -1.4891710    -0.0946800
  H       -2.3403292     0.9947173    -0.4049312
  H       -0.2469520     2.4774150    -0.3092500
  H        2.0071080     1.4278200     0.3572680
  H        2.2048620    -1.0348020    -0.0884010
units angstrom
no_reorient  #important for SAPT in psi4, default
symmetry c1  #important for SAPT in psi4, default
}

set PROPERTIES_ORIGIN ["COM"]
properties('MP2/aug-cc-pvtz', properties = ['dipole'])
--------------------------------------------------------------------------

    Molecular point group: c1
  Charge       = 0
  Multiplicity = 1
  Basis Set: AUG-CC-PVTZ
    Blend: AUG-CC-PVTZ
  Basis Set: (AUG-CC-PVTZ AUX)
    Blend: AUG-CC-PVTZ-JKFIT

    Orbital Energies [Eh]
    ---------------------

    Doubly Occupied:

       1A    -20.587870     2A    -11.301358     3A    -11.292309
       4A    -11.243319     5A    -11.241719     6A    -11.226991
       7A     -1.408093     8A     -1.095958     9A     -1.033918
      10A     -0.898663    11A     -0.836412    12A     -0.718218
      13A     -0.696201    14A     -0.650143    15A     -0.629758
      16A     -0.599610    17A     -0.571343    18A     -0.530782
      19A     -0.507515    20A     -0.468760    21A     -0.419434
      22A     -0.302830

  @DF-RHF Final Energy:  -267.73080002399661

   => Energetics <=

    Nuclear Repulsion Energy =            223.0454574212834871
    One-Electron Energy =                -805.0301047357522748
    Two-Electron Energy =                 314.2538472904722084
    Total Energy =                       -267.7308000239966077
  Basis Set: (AUG-CC-PVTZ AUX)
    Blend: AUG-CC-PVTZ-RI
    Molecular point group: c1

    Geometry (in Angstrom), charge = 0, multiplicity = 1:

       Center              X                  Y                   Z               Mass
    ------------   -----------------  -----------------  -----------------  -----------------
         O            0.185647581517    -1.306890632892    -0.278580494124    15.994914619570
         C           -1.046114418483    -0.802794632892     0.287438505876    12.000000000000
         C           -1.269083418483     0.628303367108    -0.099872494124    12.000000000000
         C           -0.190012418483     1.436097367108    -0.058559494124    12.000000000000
         C            1.114126581517     0.840447367108     0.185677505876    12.000000000000
         C            1.245985581517    -0.490207632892    -0.018599494124    12.000000000000
         H           -0.973691418483    -0.909940632892     1.382598505876     1.007825032230
         H           -1.823083418483    -1.472512632892    -0.084031494124     1.007825032230
         H           -2.351983618483     1.011375667108    -0.394282694124     1.007825032230
         H           -0.258606418483     2.494073367108    -0.298601494124     1.007825032230
         H            1.995453581517     1.444478367108     0.367916505876     1.007825032230
         H            2.193207581517    -1.018143632892    -0.077752494124     1.007825032230

  Basis Set: AUG-CC-PVTZ
    Blend: AUG-CC-PVTZ
  Basis Set: (AUG-CC-PVTZ AUX)
    Blend: AUG-CC-PVTZ-JKFIT
	 Reference Energy          =    -267.7308000239966077 [Eh]
	 Singles Energy            =      -0.0000000000000000 [Eh]
	 Same-Spin Energy          =      -0.2743124893668894 [Eh]
	 Opposite-Spin Energy      =      -0.8875939652000135 [Eh]
	 Correlation Energy        =      -1.1619064545669029 [Eh]
	 Total Energy              =    -268.8927064785635253 [Eh]

	 ================> DF-SCS-MP2 Energies <==================
	-----------------------------------------------------------
	 SCS Same-Spin Scale       =       0.3333333333333333 [-]
	 SCS Opposite-Spin Scale   =       1.2000000000000000 [-]
	 SCS Same-Spin Energy      =      -0.0914374964556298 [Eh]
	 SCS Opposite-Spin Energy  =      -1.0651127582400162 [Eh]
	 SCS Correlation Energy    =      -1.1565502546956459 [Eh]
	 SCS Total Energy          =    -268.8873502786922813 [Eh]
	-----------------------------------------------------------

  Dipole Moment: [D]
     X:    -0.2896      Y:     0.6055      Z:     0.4260     Total:     0.7950

*** Psi4 exiting successfully. Buy a developer a beer!
