                               Psi4 1.3.2 release

  ==> Input File <==

--------------------------------------------------------------------------
#psi4
#
memory 32 gb

molecule  {
0 1
  O        0.1973020    -1.3235490    -0.2892290
  C       -1.1881139    -0.8411233     0.2533831
  C       -1.2574290     0.6116450    -0.1105210
  C       -0.1783580     1.4194390    -0.0692080
  C        1.1257810     0.8237890     0.1750290
  C        1.2576400    -0.5068660    -0.0292480
  H       -0.9620370    -0.9265990     1.3719500
  H       -1.8114290    -1.4891710    -0.0946800
  H       -2.2490060     0.9624120    -0.3801030
  H       -0.2469520     2.4774150    -0.3092500
  H        2.0071080     1.4278200     0.3572680
  H        2.2048620    -1.0348020    -0.0884010
units angstrom
no_reorient  #important for SAPT in psi4, default
symmetry c1  #important for SAPT in psi4, default
}

set PROPERTIES_ORIGIN ["COM"]
properties('MP2/aug-cc-pvtz', properties = ['dipole'])
--------------------------------------------------------------------------

    Molecular point group: c1
  Charge       = 0
  Multiplicity = 1
  Basis Set: AUG-CC-PVTZ
    Blend: AUG-CC-PVTZ
  Basis Set: (AUG-CC-PVTZ AUX)
    Blend: AUG-CC-PVTZ-JKFIT

    Orbital Energies [Eh]
    ---------------------

    Doubly Occupied:

       1A    -20.574271     2A    -11.298963     3A    -11.298450
       4A    -11.245305     5A    -11.234329     6A    -11.220180
       7A     -1.372875     8A     -1.092930     9A     -1.036055
      10A     -0.909826    11A     -0.832745    12A     -0.722869
      13A     -0.691367    14A     -0.644466    15A     -0.637440
      16A     -0.600269    17A     -0.571846    18A     -0.526869
      19A     -0.515769    20A     -0.463753    21A     -0.414767
      22A     -0.297508

  @DF-RHF Final Energy:  -267.70961344400297

   => Energetics <=

    Nuclear Repulsion Energy =            221.3420496304892708
    One-Electron Energy =                -801.6976151615101571
    Two-Electron Energy =                 312.6459520870178608
    Total Energy =                       -267.7096134440029687
  Basis Set: (AUG-CC-PVTZ AUX)
    Blend: AUG-CC-PVTZ-RI
    Molecular point group: c1

    Geometry (in Angstrom), charge = 0, multiplicity = 1:

       Center              X                  Y                   Z               Mass
    ------------   -----------------  -----------------  -----------------  -----------------
         O            0.207000204315    -1.303324140460    -0.275461838555    15.994914619570
         C           -1.178415695685    -0.820898440460     0.267150261445    12.000000000000
         C           -1.247730795685     0.631869859540    -0.096753838555    12.000000000000
         C           -0.168659795685     1.439663859540    -0.055440838555    12.000000000000
         C            1.135479204315     0.844013859540     0.188796161445    12.000000000000
         C            1.267338204315    -0.486641140460    -0.015480838555    12.000000000000
         H           -0.952338795685    -0.906374140460     1.385717161445     1.007825032230
         H           -1.801730795685    -1.468946140460    -0.080912838555     1.007825032230
         H           -2.239307795685     0.982636859540    -0.366335838555     1.007825032230
         H           -0.237253795685     2.497639859540    -0.295482838555     1.007825032230
         H            2.016806204315     1.448044859540     0.371035161445     1.007825032230
         H            2.214560204315    -1.014577140460    -0.074633838555     1.007825032230

  Basis Set: AUG-CC-PVTZ
    Blend: AUG-CC-PVTZ
  Basis Set: (AUG-CC-PVTZ AUX)
    Blend: AUG-CC-PVTZ-JKFIT
	 Reference Energy          =    -267.7096134440029687 [Eh]
	 Singles Energy            =      -0.0000000000000000 [Eh]
	 Same-Spin Energy          =      -0.2746890514523241 [Eh]
	 Opposite-Spin Energy      =      -0.8889735462841459 [Eh]
	 Correlation Energy        =      -1.1636625977364701 [Eh]
	 Total Energy              =    -268.8732760417394161 [Eh]

	 ================> DF-SCS-MP2 Energies <==================
	-----------------------------------------------------------
	 SCS Same-Spin Scale       =       0.3333333333333333 [-]
	 SCS Opposite-Spin Scale   =       1.2000000000000000 [-]
	 SCS Same-Spin Energy      =      -0.0915630171507747 [Eh]
	 SCS Opposite-Spin Energy  =      -1.0667682555409750 [Eh]
	 SCS Correlation Energy    =      -1.1583312726917496 [Eh]
	 SCS Total Energy          =    -268.8679447166946943 [Eh]
	-----------------------------------------------------------

  Dipole Moment: [D]
     X:    -0.6510      Y:     0.5464      Z:     0.4640     Total:     0.9683

*** Psi4 exiting successfully. Buy a developer a beer!
