                               Psi4 1.3.2 release

  ==> Input File <==

--------------------------------------------------------------------------
#psi4
#
memory 32 gb

molecule  {
0 1
  O        0.1973020    -1.3235490    -0.2892290
  C       -1.0344600    -0.8194530     0.2767900
  C       -1.2574290     0.6116450    -0.1105210
  C       -0.1783580     1.4194390    -0.0692080
  C        1.1029260     0.7791549     0.1829363
  C        1.2576400    -0.5068660    -0.0292480
  H       -0.9620370    -0.9265990     1.3719500
  H       -1.8114290    -1.4891710    -0.0946800
  H       -2.2490060     0.9624120    -0.3801030
  H       -0.2469520     2.4774150    -0.3092500
  H        2.0071080     1.4278200     0.3572680
  H        2.2048620    -1.0348020    -0.0884010
units angstrom
no_reorient  #important for SAPT in psi4, default
symmetry c1  #important for SAPT in psi4, default
}

set PROPERTIES_ORIGIN ["COM"]
properties('MP2/aug-cc-pvtz', properties = ['dipole'])
--------------------------------------------------------------------------

    Molecular point group: c1
  Charge       = 0
  Multiplicity = 1
  Basis Set: AUG-CC-PVTZ
    Blend: AUG-CC-PVTZ
  Basis Set: (AUG-CC-PVTZ AUX)
    Blend: AUG-CC-PVTZ-JKFIT

    Orbital Energies [Eh]
    ---------------------

    Doubly Occupied:

       1A    -20.583189     2A    -11.292803     3A    -11.290573
       4A    -11.241677     5A    -11.232263     6A    -11.224063
       7A     -1.405689     8A     -1.099144     9A     -1.038552
      10A     -0.901384    11A     -0.837537    12A     -0.719585
      13A     -0.700307    14A     -0.650082    15A     -0.628594
      16A     -0.608624    17A     -0.570003    18A     -0.529195
      19A     -0.501510    20A     -0.475030    21A     -0.420326
      22A     -0.307147

  @DF-RHF Final Energy:  -267.73618372568410

   => Energetics <=

    Nuclear Repulsion Energy =            224.2707479607597634
    One-Electron Energy =                -807.4993126176955229
    Two-Electron Energy =                 315.4923809312516596
    Total Energy =                       -267.7361837256841000
  Basis Set: (AUG-CC-PVTZ AUX)
    Blend: AUG-CC-PVTZ-RI
    Molecular point group: c1

    Geometry (in Angstrom), charge = 0, multiplicity = 1:

       Center              X                  Y                   Z               Mass
    ------------   -----------------  -----------------  -----------------  -----------------
         O            0.187868669414    -1.299965299207    -0.280042065990    15.994914619570
         C           -1.043893330586    -0.795869299207     0.285976934010    12.000000000000
         C           -1.266862330586     0.635228700793    -0.101334065990    12.000000000000
         C           -0.187791330586     1.443022700793    -0.060021065990    12.000000000000
         C            1.093492669414     0.802738600793     0.192123234010    12.000000000000
         C            1.248206669414    -0.483282299207    -0.020061065990    12.000000000000
         H           -0.971470330586    -0.903015299207     1.381136934010     1.007825032230
         H           -1.820862330586    -1.465587299207    -0.085493065990     1.007825032230
         H           -2.258439330586     0.985995700793    -0.370916065990     1.007825032230
         H           -0.256385330586     2.500998700793    -0.300063065990     1.007825032230
         H            1.997674669414     1.451403700793     0.366454934010     1.007825032230
         H            2.195428669414    -1.011218299207    -0.079214065990     1.007825032230

  Basis Set: AUG-CC-PVTZ
    Blend: AUG-CC-PVTZ
  Basis Set: (AUG-CC-PVTZ AUX)
    Blend: AUG-CC-PVTZ-JKFIT
	 Reference Energy          =    -267.7361837256841000 [Eh]
	 Singles Energy            =      -0.0000000000000000 [Eh]
	 Same-Spin Energy          =      -0.2737736130688029 [Eh]
	 Opposite-Spin Energy      =      -0.8859577669660681 [Eh]
	 Correlation Energy        =      -1.1597313800348710 [Eh]
	 Total Energy              =    -268.8959151057189843 [Eh]

	 ================> DF-SCS-MP2 Energies <==================
	-----------------------------------------------------------
	 SCS Same-Spin Scale       =       0.3333333333333333 [-]
	 SCS Opposite-Spin Scale   =       1.2000000000000000 [-]
	 SCS Same-Spin Energy      =      -0.0912578710229343 [Eh]
	 SCS Opposite-Spin Energy  =      -1.0631493203592817 [Eh]
	 SCS Correlation Energy    =      -1.1544071913822160 [Eh]
	 SCS Total Energy          =    -268.8905909170663335 [Eh]
	-----------------------------------------------------------

  Dipole Moment: [D]
     X:    -0.3448      Y:     0.6754      Z:     0.4039     Total:     0.8592

*** Psi4 exiting successfully. Buy a developer a beer!
