                               Psi4 1.3.2 release

  ==> Input File <==

--------------------------------------------------------------------------
#psi4
#
memory 32 gb

molecule  {
0 1
  O        0.1973020    -1.3235490    -0.2892290
  C       -0.9837024    -0.8087286     0.2836607
  C       -1.2574290     0.6116450    -0.1105210
  C       -0.1783580     1.4194390    -0.0692080
  C        1.1257810     0.8237890     0.1750290
  C        1.2576400    -0.5068660    -0.0292480
  H       -0.9620370    -0.9265990     1.3719500
  H       -1.8114290    -1.4891710    -0.0946800
  H       -2.2490060     0.9624120    -0.3801030
  H       -0.2469520     2.4774150    -0.3092500
  H        2.0071080     1.4278200     0.3572680
  H        2.2048620    -1.0348020    -0.0884010
units angstrom
no_reorient  #important for SAPT in psi4, default
symmetry c1  #important for SAPT in psi4, default
}

set PROPERTIES_ORIGIN ["COM"]
properties('MP2/aug-cc-pvtz', properties = ['dipole'])
--------------------------------------------------------------------------

    Molecular point group: c1
  Charge       = 0
  Multiplicity = 1
  Basis Set: AUG-CC-PVTZ
    Blend: AUG-CC-PVTZ
  Basis Set: (AUG-CC-PVTZ AUX)
    Blend: AUG-CC-PVTZ-JKFIT

    Orbital Energies [Eh]
    ---------------------

    Doubly Occupied:

       1A    -20.590997     2A    -11.301684     3A    -11.290795
       4A    -11.240897     5A    -11.231100     6A    -11.228313
       7A     -1.420705     8A     -1.098281     9A     -1.034779
      10A     -0.896051    11A     -0.843906    12A     -0.719638
      13A     -0.707852    14A     -0.654249    15A     -0.633424
      16A     -0.606584    17A     -0.574149    18A     -0.535338
      19A     -0.495961    20A     -0.472253    21A     -0.419969
      22A     -0.303931

  @DF-RHF Final Energy:  -267.73545408138858

   => Energetics <=

    Nuclear Repulsion Energy =            224.2596564235399228
    One-Electron Energy =                -807.3885098954657451
    Two-Electron Energy =                 315.3933993905372404
    Total Energy =                       -267.7354540813885819
  Basis Set: (AUG-CC-PVTZ AUX)
    Blend: AUG-CC-PVTZ-RI
    Molecular point group: c1

    Geometry (in Angstrom), charge = 0, multiplicity = 1:

       Center              X                  Y                   Z               Mass
    ------------   -----------------  -----------------  -----------------  -----------------
         O            0.177101590899    -1.308062409158    -0.279890445838    15.994914619570
         C           -1.003902809101    -0.793242009158     0.292999254162    12.000000000000
         C           -1.277629409101     0.627131590842    -0.101182445838    12.000000000000
         C           -0.198558409101     1.434925590842    -0.059869445838    12.000000000000
         C            1.105580590899     0.839275590842     0.184367554162    12.000000000000
         C            1.237439590899    -0.491379409158    -0.019909445838    12.000000000000
         H           -0.982237409101    -0.911112409158     1.381288554162     1.007825032230
         H           -1.831629409101    -1.473684409158    -0.085341445838     1.007825032230
         H           -2.269206409101     0.977898590842    -0.370764445838     1.007825032230
         H           -0.267152409101     2.492901590842    -0.299911445838     1.007825032230
         H            1.986907590899     1.443306590842     0.366606554162     1.007825032230
         H            2.184661590899    -1.019315409158    -0.079062445838     1.007825032230

  Basis Set: AUG-CC-PVTZ
    Blend: AUG-CC-PVTZ
  Basis Set: (AUG-CC-PVTZ AUX)
    Blend: AUG-CC-PVTZ-JKFIT
	 Reference Energy          =    -267.7354540813885819 [Eh]
	 Singles Energy            =      -0.0000000000000000 [Eh]
	 Same-Spin Energy          =      -0.2742632429713665 [Eh]
	 Opposite-Spin Energy      =      -0.8867103937523221 [Eh]
	 Correlation Energy        =      -1.1609736367236887 [Eh]
	 Total Energy              =    -268.8964277181122497 [Eh]

	 ================> DF-SCS-MP2 Energies <==================
	-----------------------------------------------------------
	 SCS Same-Spin Scale       =       0.3333333333333333 [-]
	 SCS Opposite-Spin Scale   =       1.2000000000000000 [-]
	 SCS Same-Spin Energy      =      -0.0914210809904555 [Eh]
	 SCS Opposite-Spin Energy  =      -1.0640524725027865 [Eh]
	 SCS Correlation Energy    =      -1.1554735534932419 [Eh]
	 SCS Total Energy          =    -268.8909276348818480 [Eh]
	-----------------------------------------------------------

  Dipole Moment: [D]
     X:    -0.2016      Y:     0.6638      Z:     0.4012     Total:     0.8014

*** Psi4 exiting successfully. Buy a developer a beer!
