                               Psi4 1.4a3.dev225

  ==> Input File <==

--------------------------------------------------------------------------
#psi4
#
memory 32 gb

molecule  {
0 1
  O        0.1973020    -1.3235490    -0.2892290
  C       -1.0344600    -0.8194530     0.2767900
  C       -1.2574290     0.6116450    -0.1105210
  C       -0.1783580     1.4194390    -0.0692080
  C        1.1257810     0.8237890     0.1750290
  C        1.2556904    -0.4871917    -0.0262277
  H       -0.9620370    -0.9265990     1.3719500
  H       -1.8114290    -1.4891710    -0.0946800
  H       -2.2490060     0.9624120    -0.3801030
  H       -0.2469520     2.4774150    -0.3092500
  H        2.0071080     1.4278200     0.3572680
  H        2.2048620    -1.0348020    -0.0884010
units angstrom
no_reorient  #important for SAPT in psi4, default
symmetry c1  #important for SAPT in psi4, default
}

set PROPERTIES_ORIGIN ["COM"]
properties('MP2/aug-cc-pvtz', properties = ['dipole'])
--------------------------------------------------------------------------

    Molecular point group: c1
  Charge       = 0
  Multiplicity = 1
  Basis Set: AUG-CC-PVTZ
    Blend: AUG-CC-PVTZ
  Basis Set: (AUG-CC-PVTZ AUX)
    Blend: AUG-CC-PVTZ-JKFIT

    Orbital Energies [Eh]
    ---------------------

    Doubly Occupied:

       1A    -20.585332     2A    -11.298483     3A    -11.290084
       4A    -11.241892     5A    -11.232016     6A    -11.224812
       7A     -1.402488     8A     -1.098537     9A     -1.036146
      10A     -0.899770    11A     -0.838492    12A     -0.716714
      13A     -0.703081    14A     -0.648262    15A     -0.631905
      16A     -0.604175    17A     -0.572408    18A     -0.530772
      19A     -0.506566    20A     -0.471947    21A     -0.420444
      22A     -0.305682

  @DF-RHF Final Energy:  -267.73785324686679

   => Energetics <=

    Nuclear Repulsion Energy =            223.6258506305208584
    One-Electron Energy =                -806.2073878558849174
    Two-Electron Energy =                 314.8436839784972676
    Total Energy =                       -267.7378532468667913
  Basis Set: (AUG-CC-PVTZ AUX)
    Blend: AUG-CC-PVTZ-RI
    Molecular point group: c1

    Geometry (in Angstrom), charge = 0, multiplicity = 1:

       Center              X                  Y                   Z               Mass
    ------------   -----------------  -----------------  -----------------  -----------------
         O            0.184810903717    -1.309371482279    -0.279327260200    15.994914619570
         C           -1.046951096283    -0.805275482279     0.286691739800    12.000000000000
         C           -1.269920096283     0.625822517721    -0.100619260200    12.000000000000
         C           -0.190849096283     1.433616517721    -0.059306260200    12.000000000000
         C            1.113289903717     0.837966517721     0.184930739800    12.000000000000
         C            1.243199303717    -0.473014182279    -0.016325960200    12.000000000000
         H           -0.974528096283    -0.912421482279     1.381851739800     1.007825032230
         H           -1.823920096283    -1.474993482279    -0.084778260200     1.007825032230
         H           -2.261497096283     0.976589517721    -0.370201260200     1.007825032230
         H           -0.259443096283     2.491592517721    -0.299348260200     1.007825032230
         H            1.994616903717     1.441997517721     0.367169739800     1.007825032230
         H            2.192370903717    -1.020624482279    -0.078499260200     1.007825032230

  Basis Set: AUG-CC-PVTZ
    Blend: AUG-CC-PVTZ
  Basis Set: (AUG-CC-PVTZ AUX)
    Blend: AUG-CC-PVTZ-JKFIT
	 Reference Energy          =    -267.7378532468667913 [Eh]
	 Singles Energy            =      -0.0000000000000000 [Eh]
	 Same-Spin Energy          =      -0.2739379628998405 [Eh]
	 Opposite-Spin Energy      =      -0.8865803002181786 [Eh]
	 Correlation Energy        =      -1.1605182631180191 [Eh]
	 Total Energy              =    -268.8983715099848268 [Eh]

	 ================> DF-SCS-MP2 Energies <==================
	-----------------------------------------------------------
	 SCS Same-Spin Scale       =       0.3333333333333333 [-]
	 SCS Opposite-Spin Scale   =       1.2000000000000000 [-]
	 SCS Same-Spin Energy      =      -0.0913126542999468 [Eh]
	 SCS Opposite-Spin Energy  =      -1.0638963602618143 [Eh]
	 SCS Correlation Energy    =      -1.1552090145617611 [Eh]
	 SCS Total Energy          =    -268.8930622614285539 [Eh]
	-----------------------------------------------------------

  Dipole Moment: [D]
     X:    -0.3120      Y:     0.6903      Z:     0.4324     Total:     0.8722

*** Psi4 exiting successfully. Buy a developer a beer!
