                               Psi4 1.3.2 release

  ==> Input File <==

--------------------------------------------------------------------------
#psi4
#
memory 32 gb

molecule  {
0 1
  O        0.1973020    -1.3235490    -0.2892290
  C       -1.0852084    -0.8287683     0.2680503
  C       -1.2574290     0.6116450    -0.1105210
  C       -0.1783580     1.4194390    -0.0692080
  C        1.1257810     0.8237890     0.1750290
  C        1.2576400    -0.5068660    -0.0292480
  H       -0.9620370    -0.9265990     1.3719500
  H       -1.8114290    -1.4891710    -0.0946800
  H       -2.2490060     0.9624120    -0.3801030
  H       -0.2469520     2.4774150    -0.3092500
  H        2.0071080     1.4278200     0.3572680
  H        2.2048620    -1.0348020    -0.0884010
units angstrom
no_reorient  #important for SAPT in psi4, default
symmetry c1  #important for SAPT in psi4, default
}

set PROPERTIES_ORIGIN ["COM"]
properties('MP2/aug-cc-pvtz', properties = ['dipole'])
--------------------------------------------------------------------------

    Molecular point group: c1
  Charge       = 0
  Multiplicity = 1
  Basis Set: AUG-CC-PVTZ
    Blend: AUG-CC-PVTZ
  Basis Set: (AUG-CC-PVTZ AUX)
    Blend: AUG-CC-PVTZ-JKFIT

    Orbital Energies [Eh]
    ---------------------

    Doubly Occupied:

       1A    -20.583067     2A    -11.300212     3A    -11.292578
       4A    -11.242705     5A    -11.231976     6A    -11.224135
       7A     -1.395174     8A     -1.094873     9A     -1.034777
      10A     -0.901613    11A     -0.837639    12A     -0.718303
      13A     -0.698904    14A     -0.645743    15A     -0.635021
      16A     -0.604417    17A     -0.571298    18A     -0.529265
      19A     -0.516070    20A     -0.469391    21A     -0.417651
      22A     -0.300598

  @DF-RHF Final Energy:  -267.73485112918479

   => Energetics <=

    Nuclear Repulsion Energy =            222.7636980026556159
    One-Electron Energy =                -804.5062817849011481
    Two-Electron Energy =                 314.0077326530607706
    Total Energy =                       -267.7348511291847899
  Basis Set: (AUG-CC-PVTZ AUX)
    Blend: AUG-CC-PVTZ-RI
    Molecular point group: c1

    Geometry (in Angstrom), charge = 0, multiplicity = 1:

       Center              X                  Y                   Z               Mass
    ------------   -----------------  -----------------  -----------------  -----------------
         O            0.191948547423    -1.305131266618    -0.277607162780    15.994914619570
         C           -1.090561852577    -0.810350566618     0.279672137220    12.000000000000
         C           -1.262782452577     0.630062733382    -0.098899162780    12.000000000000
         C           -0.183711452577     1.437856733382    -0.057586162780    12.000000000000
         C            1.120427547423     0.842206733382     0.186650837220    12.000000000000
         C            1.252286547423    -0.488448266618    -0.017626162780    12.000000000000
         H           -0.967390452577    -0.908181266618     1.383571837220     1.007825032230
         H           -1.816782452577    -1.470753266618    -0.083058162780     1.007825032230
         H           -2.254359452577     0.980829733382    -0.368481162780     1.007825032230
         H           -0.252305452577     2.495832733382    -0.297628162780     1.007825032230
         H            2.001754547423     1.446237733382     0.368889837220     1.007825032230
         H            2.199508547423    -1.016384266618    -0.076779162780     1.007825032230

  Basis Set: AUG-CC-PVTZ
    Blend: AUG-CC-PVTZ
  Basis Set: (AUG-CC-PVTZ AUX)
    Blend: AUG-CC-PVTZ-JKFIT
	 Reference Energy          =    -267.7348511291847899 [Eh]
	 Singles Energy            =      -0.0000000000000000 [Eh]
	 Same-Spin Energy          =      -0.2741424525399747 [Eh]
	 Opposite-Spin Energy      =      -0.8871252246981012 [Eh]
	 Correlation Energy        =      -1.1612676772380759 [Eh]
	 Total Energy              =    -268.8961188064228622 [Eh]

	 ================> DF-SCS-MP2 Energies <==================
	-----------------------------------------------------------
	 SCS Same-Spin Scale       =       0.3333333333333333 [-]
	 SCS Opposite-Spin Scale   =       1.2000000000000000 [-]
	 SCS Same-Spin Energy      =      -0.0913808175133249 [Eh]
	 SCS Opposite-Spin Energy  =      -1.0645502696377214 [Eh]
	 SCS Correlation Energy    =      -1.1559310871510462 [Eh]
	 SCS Total Energy          =    -268.8907822163358219 [Eh]
	-----------------------------------------------------------

  Dipole Moment: [D]
     X:    -0.4428      Y:     0.5899      Z:     0.4323     Total:     0.8550

*** Psi4 exiting successfully. Buy a developer a beer!
