                               Psi4 1.3.2 release

  ==> Input File <==

--------------------------------------------------------------------------
#psi4
#
memory 32 gb

molecule  {
0 1
  O        0.1140009    -1.2095658    -0.2683724
  C       -1.0344600    -0.8194530     0.2767900
  C       -1.2574290     0.6116450    -0.1105210
  C       -0.1783580     1.4194390    -0.0692080
  C        1.1257810     0.8237890     0.1750290
  C        1.2576400    -0.5068660    -0.0292480
  H       -0.9620370    -0.9265990     1.3719500
  H       -1.8114290    -1.4891710    -0.0946800
  H       -2.2490060     0.9624120    -0.3801030
  H       -0.2469520     2.4774150    -0.3092500
  H        2.0071080     1.4278200     0.3572680
  H        2.2048620    -1.0348020    -0.0884010
units angstrom
no_reorient  #important for SAPT in psi4, default
symmetry c1  #important for SAPT in psi4, default
}

set PROPERTIES_ORIGIN ["COM"]
properties('MP2/aug-cc-pvtz', properties = ['dipole'])
--------------------------------------------------------------------------

    Molecular point group: c1
  Charge       = 0
  Multiplicity = 1
  Basis Set: AUG-CC-PVTZ
    Blend: AUG-CC-PVTZ
  Basis Set: (AUG-CC-PVTZ AUX)
    Blend: AUG-CC-PVTZ-JKFIT

    Orbital Energies [Eh]
    ---------------------

    Doubly Occupied:

       1A    -20.578859     2A    -11.301543     3A    -11.280895
       4A    -11.237486     5A    -11.228241     6A    -11.227801
       7A     -1.439994     8A     -1.092085     9A     -1.047116
      10A     -0.894611    11A     -0.846524    12A     -0.729587
      13A     -0.709835    14A     -0.665057    15A     -0.642458
      16A     -0.601936    17A     -0.586191    18A     -0.534157
      19A     -0.493275    20A     -0.459726    21A     -0.412556
      22A     -0.302544

  @DF-RHF Final Energy:  -267.73011192930028

   => Energetics <=

    Nuclear Repulsion Energy =            226.6472278531270774
    One-Electron Energy =                -812.1297263559802104
    Two-Electron Energy =                 317.7523865735528261
    Total Energy =                       -267.7301119293002785
  Basis Set: (AUG-CC-PVTZ AUX)
    Blend: AUG-CC-PVTZ-RI
    Molecular point group: c1

    Geometry (in Angstrom), charge = 0, multiplicity = 1:

       Center              X                  Y                   Z               Mass
    ------------   -----------------  -----------------  -----------------  -----------------
         O            0.117465057601    -1.214732795664    -0.262095101660    15.994914619570
         C           -1.030995842399    -0.824619995664     0.283067298340    12.000000000000
         C           -1.253964842399     0.606478004336    -0.104243701660    12.000000000000
         C           -0.174893842399     1.414272004336    -0.062930701660    12.000000000000
         C            1.129245157601     0.818622004336     0.181306298340    12.000000000000
         C            1.261104157601    -0.512032995664    -0.022970701660    12.000000000000
         H           -0.958572842399    -0.931765995664     1.378227298340     1.007825032230
         H           -1.807964842399    -1.494337995664    -0.088402701660     1.007825032230
         H           -2.245541842399     0.957245004336    -0.373825701660     1.007825032230
         H           -0.243487842399     2.472248004336    -0.302972701660     1.007825032230
         H            2.010572157601     1.422653004336     0.363545298340     1.007825032230
         H            2.208326157601    -1.039968995664    -0.082123701660     1.007825032230

  Basis Set: AUG-CC-PVTZ
    Blend: AUG-CC-PVTZ
  Basis Set: (AUG-CC-PVTZ AUX)
    Blend: AUG-CC-PVTZ-JKFIT
	 Reference Energy          =    -267.7301119293002785 [Eh]
	 Singles Energy            =      -0.0000000000000000 [Eh]
	 Same-Spin Energy          =      -0.2738876056368154 [Eh]
	 Opposite-Spin Energy      =      -0.8843120335963830 [Eh]
	 Correlation Energy        =      -1.1581996392331984 [Eh]
	 Total Energy              =    -268.8883115685334815 [Eh]

	 ================> DF-SCS-MP2 Energies <==================
	-----------------------------------------------------------
	 SCS Same-Spin Scale       =       0.3333333333333333 [-]
	 SCS Opposite-Spin Scale   =       1.2000000000000000 [-]
	 SCS Same-Spin Energy      =      -0.0912958685456051 [Eh]
	 SCS Opposite-Spin Energy  =      -1.0611744403156596 [Eh]
	 SCS Correlation Energy    =      -1.1524703088612647 [Eh]
	 SCS Total Energy          =    -268.8825822381615467 [Eh]
	-----------------------------------------------------------

  Dipole Moment: [D]
     X:    -0.0265      Y:     0.4322      Z:     0.2968     Total:     0.5250

*** Psi4 exiting successfully. Buy a developer a beer!
