                               Psi4 1.3.2 release

  ==> Input File <==

--------------------------------------------------------------------------
#psi4
#
memory 32 gb

molecule  {
0 1
  O        0.2593518    -1.3946400    -0.3015638
  C       -1.0344600    -0.8194530     0.2767900
  C       -1.2574290     0.6116450    -0.1105210
  C       -0.1783580     1.4194390    -0.0692080
  C        1.1257810     0.8237890     0.1750290
  C        1.2576400    -0.5068660    -0.0292480
  H       -0.9620370    -0.9265990     1.3719500
  H       -1.8114290    -1.4891710    -0.0946800
  H       -2.2490060     0.9624120    -0.3801030
  H       -0.2469520     2.4774150    -0.3092500
  H        2.0071080     1.4278200     0.3572680
  H        2.2048620    -1.0348020    -0.0884010
units angstrom
no_reorient  #important for SAPT in psi4, default
symmetry c1  #important for SAPT in psi4, default
}

set PROPERTIES_ORIGIN ["COM"]
properties('MP2/aug-cc-pvtz', properties = ['dipole'])
--------------------------------------------------------------------------

    Molecular point group: c1
  Charge       = 0
  Multiplicity = 1
  Basis Set: AUG-CC-PVTZ
    Blend: AUG-CC-PVTZ
  Basis Set: (AUG-CC-PVTZ AUX)
    Blend: AUG-CC-PVTZ-JKFIT

    Orbital Energies [Eh]
    ---------------------

    Doubly Occupied:

       1A    -20.590680     2A    -11.301090     3A    -11.298886
       4A    -11.244571     5A    -11.233285     6A    -11.225357
       7A     -1.389947     8A     -1.099932     9A     -1.028012
      10A     -0.902023    11A     -0.835538    12A     -0.712966
      13A     -0.701946    14A     -0.641907    15A     -0.627682
      16A     -0.606947    17A     -0.562244    18A     -0.531706
      19A     -0.515143    20A     -0.474990    21A     -0.420991
      22A     -0.302399

  @DF-RHF Final Energy:  -267.72942856609279

   => Energetics <=

    Nuclear Repulsion Energy =            221.5666096942858871
    One-Electron Energy =                -802.0955929273227412
    Two-Electron Energy =                 312.7995546669440046
    Total Energy =                       -267.7294285660927926
  Basis Set: (AUG-CC-PVTZ AUX)
    Blend: AUG-CC-PVTZ-RI
    Molecular point group: c1

    Geometry (in Angstrom), charge = 0, multiplicity = 1:

       Center              X                  Y                   Z               Mass
    ------------   -----------------  -----------------  -----------------  -----------------
         O            0.234478288282    -1.363724855966    -0.288815493104    15.994914619570
         C           -1.059333511718    -0.788537855966     0.289538306896    12.000000000000
         C           -1.282302511718     0.642560144034    -0.097772693104    12.000000000000
         C           -0.203231511718     1.450354144034    -0.056459693104    12.000000000000
         C            1.100907488282     0.854704144034     0.187777306896    12.000000000000
         C            1.232766488282    -0.475950855966    -0.016499693104    12.000000000000
         H           -0.986910511718    -0.895683855966     1.384698306896     1.007825032230
         H           -1.836302511718    -1.458255855966    -0.081931693104     1.007825032230
         H           -2.273879511718     0.993327144034    -0.367354693104     1.007825032230
         H           -0.271825511718     2.508330144034    -0.296501693104     1.007825032230
         H            1.982234488282     1.458735144034     0.370016306896     1.007825032230
         H            2.179988488282    -1.003886855966    -0.075652693104     1.007825032230

  Basis Set: AUG-CC-PVTZ
    Blend: AUG-CC-PVTZ
  Basis Set: (AUG-CC-PVTZ AUX)
    Blend: AUG-CC-PVTZ-JKFIT
	 Reference Energy          =    -267.7294285660927926 [Eh]
	 Singles Energy            =      -0.0000000000000000 [Eh]
	 Same-Spin Energy          =      -0.2748587353776588 [Eh]
	 Opposite-Spin Energy      =      -0.8893595244545695 [Eh]
	 Correlation Energy        =      -1.1642182598322282 [Eh]
	 Total Energy              =    -268.8936468259250319 [Eh]

	 ================> DF-SCS-MP2 Energies <==================
	-----------------------------------------------------------
	 SCS Same-Spin Scale       =       0.3333333333333333 [-]
	 SCS Opposite-Spin Scale   =       1.2000000000000000 [-]
	 SCS Same-Spin Energy      =      -0.0916195784592196 [Eh]
	 SCS Opposite-Spin Energy  =      -1.0672314293454832 [Eh]
	 SCS Correlation Energy    =      -1.1588510078047027 [Eh]
	 SCS Total Energy          =    -268.8882795738974778 [Eh]
	-----------------------------------------------------------

  Dipole Moment: [D]
     X:    -0.5133      Y:     0.7361      Z:     0.4816     Total:     1.0185

*** Psi4 exiting successfully. Buy a developer a beer!
