                               Psi4 1.3.2 release

  ==> Input File <==

--------------------------------------------------------------------------
#psi4
#
memory 32 gb

molecule  {
0 1
  O        0.1973020    -1.3235490    -0.2892290
  C       -1.0344600    -0.8194530     0.2767900
  C       -1.2574290     0.6116450    -0.1105210
  C       -0.1783580     1.4194390    -0.0692080
  C        1.1257810     0.8237890     0.1750290
  C        1.2576400    -0.5068660    -0.0292480
  H       -0.9620370    -0.9265990     1.3719500
  H       -1.8114290    -1.4891710    -0.0946800
  H       -2.2490060     0.9624120    -0.3801030
  H       -0.2469520     2.4774150    -0.3092500
  H        1.9257960     1.3720916     0.3404545
  H        2.2048620    -1.0348020    -0.0884010
units angstrom
no_reorient  #important for SAPT in psi4, default
symmetry c1  #important for SAPT in psi4, default
}

set PROPERTIES_ORIGIN ["COM"]
properties('MP2/aug-cc-pvtz', properties = ['dipole'])
--------------------------------------------------------------------------

    Molecular point group: c1
  Charge       = 0
  Multiplicity = 1
  Basis Set: AUG-CC-PVTZ
    Blend: AUG-CC-PVTZ
  Basis Set: (AUG-CC-PVTZ AUX)
    Blend: AUG-CC-PVTZ-JKFIT

    Orbital Energies [Eh]
    ---------------------

    Doubly Occupied:

       1A    -20.586585     2A    -11.300475     3A    -11.290768
       4A    -11.240757     5A    -11.230716     6A    -11.214352
       7A     -1.406884     8A     -1.097582     9A     -1.036704
      10A     -0.900703    11A     -0.843487    12A     -0.722351
      13A     -0.708610    14A     -0.652942    15A     -0.638091
      16A     -0.606335    17A     -0.574406    18A     -0.534625
      19A     -0.510647    20A     -0.470762    21A     -0.418407
      22A     -0.301891

  @DF-RHF Final Energy:  -267.73201743818441

   => Energetics <=

    Nuclear Repulsion Energy =            224.0110115516375799
    One-Electron Energy =                -806.9098969914266490
    Two-Electron Energy =                 315.1668680016046551
    Total Energy =                       -267.7320174381844140
  Basis Set: (AUG-CC-PVTZ AUX)
    Blend: AUG-CC-PVTZ-RI
    Molecular point group: c1

    Geometry (in Angstrom), charge = 0, multiplicity = 1:

       Center              X                  Y                   Z               Mass
    ------------   -----------------  -----------------  -----------------  -----------------
         O            0.185524601158    -1.305809202494    -0.278678948923    15.994914619570
         C           -1.046237398842    -0.801713202494     0.287340051077    12.000000000000
         C           -1.269206398842     0.629384797506    -0.099970948923    12.000000000000
         C           -0.190135398842     1.437178797506    -0.058657948923    12.000000000000
         C            1.114003601158     0.841528797506     0.185579051077    12.000000000000
         C            1.245862601158    -0.489126202494    -0.018697948923    12.000000000000
         H           -0.973814398842    -0.908859202494     1.382500051077     1.007825032230
         H           -1.823206398842    -1.471431202494    -0.084129948923     1.007825032230
         H           -2.260783398842     0.980151797506    -0.369552948923     1.007825032230
         H           -0.258729398842     2.495154797506    -0.298699948923     1.007825032230
         H            1.914018601158     1.389831397506     0.351004551077     1.007825032230
         H            2.193084601158    -1.017062202494    -0.077850948923     1.007825032230

  Basis Set: AUG-CC-PVTZ
    Blend: AUG-CC-PVTZ
  Basis Set: (AUG-CC-PVTZ AUX)
    Blend: AUG-CC-PVTZ-JKFIT
	 Reference Energy          =    -267.7320174381844140 [Eh]
	 Singles Energy            =      -0.0000000000000000 [Eh]
	 Same-Spin Energy          =      -0.2740246700744458 [Eh]
	 Opposite-Spin Energy      =      -0.8863916021339905 [Eh]
	 Correlation Energy        =      -1.1604162722084364 [Eh]
	 Total Energy              =    -268.8924337103928224 [Eh]

	 ================> DF-SCS-MP2 Energies <==================
	-----------------------------------------------------------
	 SCS Same-Spin Scale       =       0.3333333333333333 [-]
	 SCS Opposite-Spin Scale   =       1.2000000000000000 [-]
	 SCS Same-Spin Energy      =      -0.0913415566914819 [Eh]
	 SCS Opposite-Spin Energy  =      -1.0636699225607886 [Eh]
	 SCS Correlation Energy    =      -1.1550114792522705 [Eh]
	 SCS Total Energy          =    -268.8870289174366803 [Eh]
	-----------------------------------------------------------

  Dipole Moment: [D]
     X:    -0.3041      Y:     0.6215      Z:     0.4212     Total:     0.8101

*** Psi4 exiting successfully. Buy a developer a beer!
