                               Psi4 1.3.2 release

  ==> Input File <==

--------------------------------------------------------------------------
#psi4
#
memory 32 gb

molecule  {
0 1
  O        0.1973020    -1.3235490    -0.2892290
  C       -1.0344600    -0.8194530     0.2767900
  C       -1.2574290     0.6116450    -0.1105210
  C       -0.1522275     1.3824983    -0.0562349
  C        1.1257810     0.8237890     0.1750290
  C        1.2576400    -0.5068660    -0.0292480
  H       -0.9620370    -0.9265990     1.3719500
  H       -1.8114290    -1.4891710    -0.0946800
  H       -2.2490060     0.9624120    -0.3801030
  H       -0.2469520     2.4774150    -0.3092500
  H        2.0071080     1.4278200     0.3572680
  H        2.2048620    -1.0348020    -0.0884010
units angstrom
no_reorient  #important for SAPT in psi4, default
symmetry c1  #important for SAPT in psi4, default
}

set PROPERTIES_ORIGIN ["COM"]
properties('MP2/aug-cc-pvtz', properties = ['dipole'])
--------------------------------------------------------------------------

    Molecular point group: c1
  Charge       = 0
  Multiplicity = 1
  Basis Set: AUG-CC-PVTZ
    Blend: AUG-CC-PVTZ
  Basis Set: (AUG-CC-PVTZ AUX)
    Blend: AUG-CC-PVTZ-JKFIT

    Orbital Energies [Eh]
    ---------------------

    Doubly Occupied:

       1A    -20.588378     2A    -11.302947     3A    -11.289798
       4A    -11.241930     5A    -11.229593     6A    -11.224193
       7A     -1.408642     8A     -1.102259     9A     -1.036378
      10A     -0.895212    11A     -0.844978    12A     -0.717371
      13A     -0.702658    14A     -0.652899    15A     -0.633665
      16A     -0.600531    17A     -0.571030    18A     -0.538421
      19A     -0.507451    20A     -0.467653    21A     -0.423463
      22A     -0.299903

  @DF-RHF Final Energy:  -267.73438845099201

   => Energetics <=

    Nuclear Repulsion Energy =            224.1693251757379812
    One-Electron Energy =                -807.2487257266075176
    Two-Electron Energy =                 315.3450120998775219
    Total Energy =                       -267.7343884509920144
  Basis Set: (AUG-CC-PVTZ AUX)
    Blend: AUG-CC-PVTZ-RI
    Molecular point group: c1

    Geometry (in Angstrom), charge = 0, multiplicity = 1:

       Center              X                  Y                   Z               Mass
    ------------   -----------------  -----------------  -----------------  -----------------
         O            0.180703717699    -1.301090588109    -0.280783024282    15.994914619570
         C           -1.051058282301    -0.796994588109     0.285235975718    12.000000000000
         C           -1.274027282301     0.634103411891    -0.102075024282    12.000000000000
         C           -0.168825782301     1.404956711891    -0.047788924282    12.000000000000
         C            1.109182717699     0.846247411891     0.183474975718    12.000000000000
         C            1.241041717699    -0.484407588109    -0.020802024282    12.000000000000
         H           -0.978635282301    -0.904140588109     1.380395975718     1.007825032230
         H           -1.828027282301    -1.466712588109    -0.086234024282     1.007825032230
         H           -2.265604282301     0.984870411891    -0.371657024282     1.007825032230
         H           -0.263550282301     2.499873411891    -0.300804024282     1.007825032230
         H            1.990509717699     1.450278411891     0.365713975718     1.007825032230
         H            2.188263717699    -1.012343588109    -0.079955024282     1.007825032230

  Basis Set: AUG-CC-PVTZ
    Blend: AUG-CC-PVTZ
  Basis Set: (AUG-CC-PVTZ AUX)
    Blend: AUG-CC-PVTZ-JKFIT
	 Reference Energy          =    -267.7343884509920144 [Eh]
	 Singles Energy            =      -0.0000000000000000 [Eh]
	 Same-Spin Energy          =      -0.2749280106124973 [Eh]
	 Opposite-Spin Energy      =      -0.8874234724005421 [Eh]
	 Correlation Energy        =      -1.1623514830130395 [Eh]
	 Total Energy              =    -268.8967399340050406 [Eh]

	 ================> DF-SCS-MP2 Energies <==================
	-----------------------------------------------------------
	 SCS Same-Spin Scale       =       0.3333333333333333 [-]
	 SCS Opposite-Spin Scale   =       1.2000000000000000 [-]
	 SCS Same-Spin Energy      =      -0.0916426702041657 [Eh]
	 SCS Opposite-Spin Energy  =      -1.0649081668806504 [Eh]
	 SCS Correlation Energy    =      -1.1565508370848161 [Eh]
	 SCS Total Energy          =    -268.8909392880768223 [Eh]
	-----------------------------------------------------------

  Dipole Moment: [D]
     X:    -0.2691      Y:     0.5831      Z:     0.4266     Total:     0.7710

*** Psi4 exiting successfully. Buy a developer a beer!
