                               Psi4 1.3.2 release

  ==> Input File <==

--------------------------------------------------------------------------
#psi4
#
memory 32 gb

molecule  {
0 1
  O        0.1973020    -1.3235490    -0.2892290
  C       -1.0810594    -0.9003826     0.2384548
  C       -1.2574290     0.6116450    -0.1105210
  C       -0.1783580     1.4194390    -0.0692080
  C        1.1257810     0.8237890     0.1750290
  C        1.2576400    -0.5068660    -0.0292480
  H       -0.9620370    -0.9265990     1.3719500
  H       -1.8114290    -1.4891710    -0.0946800
  H       -2.2490060     0.9624120    -0.3801030
  H       -0.2469520     2.4774150    -0.3092500
  H        2.0071080     1.4278200     0.3572680
  H        2.2048620    -1.0348020    -0.0884010
units angstrom
no_reorient  #important for SAPT in psi4, default
symmetry c1  #important for SAPT in psi4, default
}

set PROPERTIES_ORIGIN ["COM"]
properties('MP2/aug-cc-pvtz', properties = ['dipole'])
--------------------------------------------------------------------------

    Molecular point group: c1
  Charge       = 0
  Multiplicity = 1
  Basis Set: AUG-CC-PVTZ
    Blend: AUG-CC-PVTZ
  Basis Set: (AUG-CC-PVTZ AUX)
    Blend: AUG-CC-PVTZ-JKFIT

    Orbital Energies [Eh]
    ---------------------

    Doubly Occupied:

       1A    -20.584401     2A    -11.300630     3A    -11.292957
       4A    -11.240688     5A    -11.235092     6A    -11.225374
       7A     -1.403578     8A     -1.090517     9A     -1.033399
      10A     -0.904135    11A     -0.837341    12A     -0.722753
      13A     -0.696818    14A     -0.650289    15A     -0.642682
      16A     -0.600882    17A     -0.576219    18A     -0.529253
      19A     -0.515803    20A     -0.457714    21A     -0.417859
      22A     -0.299912

  @DF-RHF Final Energy:  -267.72682944171896

   => Energetics <=

    Nuclear Repulsion Energy =            222.4366276685207140
    One-Electron Energy =                -803.8103212580043646
    Two-Electron Energy =                 313.6468641477646884
    Total Energy =                       -267.7268294417189622
  Basis Set: (AUG-CC-PVTZ AUX)
    Blend: AUG-CC-PVTZ-RI
    Molecular point group: c1

    Geometry (in Angstrom), charge = 0, multiplicity = 1:

       Center              X                  Y                   Z               Mass
    ------------   -----------------  -----------------  -----------------  -----------------
         O            0.191341686522    -1.294656473024    -0.273278324073    15.994914619570
         C           -1.087019713478    -0.871490073024     0.254405475927    12.000000000000
         C           -1.263389313478     0.640537526976    -0.094570324073    12.000000000000
         C           -0.184318313478     1.448331526976    -0.053257324073    12.000000000000
         C            1.119820686522     0.852681526976     0.190979675927    12.000000000000
         C            1.251679686522    -0.477973473024    -0.013297324073    12.000000000000
         H           -0.967997313478    -0.897706473024     1.387900675927     1.007825032230
         H           -1.817389313478    -1.460278473024    -0.078729324073     1.007825032230
         H           -2.254966313478     0.991304526976    -0.364152324073     1.007825032230
         H           -0.252912313478     2.506307526976    -0.293299324073     1.007825032230
         H            2.001147686522     1.456712526976     0.373218675927     1.007825032230
         H            2.198901686522    -1.005909473024    -0.072450324073     1.007825032230

  Basis Set: AUG-CC-PVTZ
    Blend: AUG-CC-PVTZ
  Basis Set: (AUG-CC-PVTZ AUX)
    Blend: AUG-CC-PVTZ-JKFIT
	 Reference Energy          =    -267.7268294417189622 [Eh]
	 Singles Energy            =      -0.0000000000000000 [Eh]
	 Same-Spin Energy          =      -0.2734273745109707 [Eh]
	 Opposite-Spin Energy      =      -0.8862289827650001 [Eh]
	 Correlation Energy        =      -1.1596563572759706 [Eh]
	 Total Energy              =    -268.8864857989949542 [Eh]

	 ================> DF-SCS-MP2 Energies <==================
	-----------------------------------------------------------
	 SCS Same-Spin Scale       =       0.3333333333333333 [-]
	 SCS Opposite-Spin Scale   =       1.2000000000000000 [-]
	 SCS Same-Spin Energy      =      -0.0911424581703235 [Eh]
	 SCS Opposite-Spin Energy  =      -1.0634747793179999 [Eh]
	 SCS Correlation Energy    =      -1.1546172374883235 [Eh]
	 SCS Total Energy          =    -268.8814466792072722 [Eh]
	-----------------------------------------------------------

  Dipole Moment: [D]
     X:    -0.4101      Y:     0.5192      Z:     0.3570     Total:     0.7518

*** Psi4 exiting successfully. Buy a developer a beer!
