                               Psi4 1.3.2 release

  ==> Input File <==

--------------------------------------------------------------------------
#psi4
#
memory 32 gb

molecule  {
0 1
  O        0.1973020    -1.3235490    -0.2892290
  C       -1.0344600    -0.8194530     0.2767900
  C       -1.2574290     0.6116450    -0.1105210
  C       -0.1783580     1.4194390    -0.0692080
  C        1.1257810     0.8237890     0.1750290
  C        1.2576400    -0.5068660    -0.0292480
  H       -0.9620370    -0.9265990     1.3719500
  H       -1.8114290    -1.4891710    -0.0946800
  H       -2.2490060     0.9624120    -0.3801030
  H       -0.2343316     2.2827609    -0.2650853
  H        2.0071080     1.4278200     0.3572680
  H        2.2048620    -1.0348020    -0.0884010
units angstrom
no_reorient  #important for SAPT in psi4, default
symmetry c1  #important for SAPT in psi4, default
}

set PROPERTIES_ORIGIN ["COM"]
properties('MP2/aug-cc-pvtz', properties = ['dipole'])
--------------------------------------------------------------------------

    Molecular point group: c1
  Charge       = 0
  Multiplicity = 1
  Basis Set: AUG-CC-PVTZ
    Blend: AUG-CC-PVTZ
  Basis Set: (AUG-CC-PVTZ AUX)
    Blend: AUG-CC-PVTZ-JKFIT

    Orbital Energies [Eh]
    ---------------------

    Doubly Occupied:

       1A    -20.586395     2A    -11.299700     3A    -11.290102
       4A    -11.230963     5A    -11.224576     6A    -11.217818
       7A     -1.406547     8A     -1.102552     9A     -1.033616
      10A     -0.912016    11A     -0.846718    12A     -0.739496
      13A     -0.704633    14A     -0.649873    15A     -0.635779
      16A     -0.619473    17A     -0.575982    18A     -0.532089
      19A     -0.508634    20A     -0.475208    21A     -0.418199
      22A     -0.301536

  @DF-RHF Final Energy:  -267.70319316917005

   => Energetics <=

    Nuclear Repulsion Energy =            224.5951550375942816
    One-Electron Energy =                -807.9728875976755944
    Two-Electron Energy =                 315.6745393909112636
    Total Energy =                       -267.7031931691700493
  Basis Set: (AUG-CC-PVTZ AUX)
    Blend: AUG-CC-PVTZ-RI
    Molecular point group: c1

    Geometry (in Angstrom), charge = 0, multiplicity = 1:

       Center              X                  Y                   Z               Mass
    ------------   -----------------  -----------------  -----------------  -----------------
         O            0.184370709492    -1.304102600646    -0.279428022051    15.994914619570
         C           -1.047391290508    -0.800006600646     0.286590977949    12.000000000000
         C           -1.270360290508     0.631091399354    -0.100720022051    12.000000000000
         C           -0.191289290508     1.438885399354    -0.059407022051    12.000000000000
         C            1.112849709492     0.843235399354     0.184829977949    12.000000000000
         C            1.244708709492    -0.487419600646    -0.019447022051    12.000000000000
         H           -0.974968290508    -0.907152600646     1.381750977949     1.007825032230
         H           -1.824360290508    -1.469724600646    -0.084879022051     1.007825032230
         H           -2.261937290508     0.981858399354    -0.370302022051     1.007825032230
         H           -0.247262890508     2.302207299354    -0.255284322051     1.007825032230
         H            1.994176709492     1.447266399354     0.367068977949     1.007825032230
         H            2.191930709492    -1.015355600646    -0.078600022051     1.007825032230

  Basis Set: AUG-CC-PVTZ
    Blend: AUG-CC-PVTZ
  Basis Set: (AUG-CC-PVTZ AUX)
    Blend: AUG-CC-PVTZ-JKFIT
	 Reference Energy          =    -267.7031931691700493 [Eh]
	 Singles Energy            =      -0.0000000000000000 [Eh]
	 Same-Spin Energy          =      -0.2740110346071784 [Eh]
	 Opposite-Spin Energy      =      -0.8864437945767498 [Eh]
	 Correlation Energy        =      -1.1604548291839283 [Eh]
	 Total Energy              =    -268.8636479983539971 [Eh]

	 ================> DF-SCS-MP2 Energies <==================
	-----------------------------------------------------------
	 SCS Same-Spin Scale       =       0.3333333333333333 [-]
	 SCS Opposite-Spin Scale   =       1.2000000000000000 [-]
	 SCS Same-Spin Energy      =      -0.0913370115357261 [Eh]
	 SCS Opposite-Spin Energy  =      -1.0637325534920998 [Eh]
	 SCS Correlation Energy    =      -1.1550695650278260 [Eh]
	 SCS Total Energy          =    -268.8582627341978650 [Eh]
	-----------------------------------------------------------

  Dipole Moment: [D]
     X:    -0.3486      Y:     0.6654      Z:     0.4138     Total:     0.8576

*** Psi4 exiting successfully. Buy a developer a beer!
