                               Psi4 1.4a3.dev225

  ==> Input File <==

--------------------------------------------------------------------------
#psi4
#
memory 32 gb

molecule  {
0 1
  O        0.1973020    -1.3235490    -0.2892290
  C       -1.0344600    -0.8194530     0.2767900
  C       -1.2574290     0.6116450    -0.1105210
  C       -0.1783580     1.4194390    -0.0692080
  C        1.1257810     0.8237890     0.1750290
  C        1.2576400    -0.5068660    -0.0292480
  H       -0.9620370    -0.9265990     1.3719500
  H       -1.8114290    -1.4891710    -0.0946800
  H       -2.2490060     0.9624120    -0.3801030
  H       -0.2456900     2.4579496    -0.3048335
  H        2.0071080     1.4278200     0.3572680
  H        2.2048620    -1.0348020    -0.0884010
units angstrom
no_reorient  #important for SAPT in psi4, default
symmetry c1  #important for SAPT in psi4, default
}

set PROPERTIES_ORIGIN ["COM"]
properties('MP2/aug-cc-pvtz', properties = ['dipole'])
--------------------------------------------------------------------------

    Molecular point group: c1
  Charge       = 0
  Multiplicity = 1
  Basis Set: AUG-CC-PVTZ
    Blend: AUG-CC-PVTZ
  Basis Set: (AUG-CC-PVTZ AUX)
    Blend: AUG-CC-PVTZ-JKFIT

    Orbital Energies [Eh]
    ---------------------

    Doubly Occupied:

       1A    -20.586968     2A    -11.300721     3A    -11.290996
       4A    -11.239389     5A    -11.231206     6A    -11.225939
       7A     -1.407227     8A     -1.096726     9A     -1.034471
      10A     -0.899348    11A     -0.841054    12A     -0.719808
      13A     -0.703605    14A     -0.649672    15A     -0.633223
      16A     -0.607229    17A     -0.572669    18A     -0.532438
      19A     -0.508189    20A     -0.471725    21A     -0.418742
      22A     -0.302135

  @DF-RHF Final Energy:  -267.73824811368797

   => Energetics <=

    Nuclear Repulsion Energy =            223.5928748580709851
    One-Electron Energy =                -806.1152860503525517
    Two-Electron Energy =                 314.7841630785935649
    Total Energy =                       -267.7382481136879733
  Basis Set: (AUG-CC-PVTZ AUX)
    Blend: AUG-CC-PVTZ-RI
    Molecular point group: c1

    Geometry (in Angstrom), charge = 0, multiplicity = 1:

       Center              X                  Y                   Z               Mass
    ------------   -----------------  -----------------  -----------------  -----------------
         O            0.184510239230    -1.306254667248    -0.278939744133    15.994914619570
         C           -1.047251760770    -0.802158667248     0.287079255867    12.000000000000
         C           -1.270220760770     0.628939332752    -0.100231744133    12.000000000000
         C           -0.191149760770     1.436733332752    -0.058918744133    12.000000000000
         C            1.112989239230     0.841083332752     0.185318255867    12.000000000000
         C            1.244848239230    -0.489571667248    -0.018958744133    12.000000000000
         H           -0.974828760770    -0.909304667248     1.382239255867     1.007825032230
         H           -1.824220760770    -1.471876667248    -0.084390744133     1.007825032230
         H           -2.261797760770     0.979706332752    -0.369813744133     1.007825032230
         H           -0.258481760770     2.475243932752    -0.294544244133     1.007825032230
         H            1.994316239230     1.445114332752     0.367557255867     1.007825032230
         H            2.192070239230    -1.017507667248    -0.078111744133     1.007825032230

  Basis Set: AUG-CC-PVTZ
    Blend: AUG-CC-PVTZ
  Basis Set: (AUG-CC-PVTZ AUX)
    Blend: AUG-CC-PVTZ-JKFIT
	 Reference Energy          =    -267.7382481136879733 [Eh]
	 Singles Energy            =      -0.0000000000000000 [Eh]
	 Same-Spin Energy          =      -0.2740906215091863 [Eh]
	 Opposite-Spin Energy      =      -0.8866319327945351 [Eh]
	 Correlation Energy        =      -1.1607225543037214 [Eh]
	 Total Energy              =    -268.8989706679917049 [Eh]

	 ================> DF-SCS-MP2 Energies <==================
	-----------------------------------------------------------
	 SCS Same-Spin Scale       =       0.3333333333333333 [-]
	 SCS Opposite-Spin Scale   =       1.2000000000000000 [-]
	 SCS Same-Spin Energy      =      -0.0913635405030621 [Eh]
	 SCS Opposite-Spin Energy  =      -1.0639583193534421 [Eh]
	 SCS Correlation Energy    =      -1.1553218598565043 [Eh]
	 SCS Total Energy          =    -268.8935699735444587 [Eh]
	-----------------------------------------------------------

  Dipole Moment: [D]
     X:    -0.3300      Y:     0.6301      Z:     0.4181     Total:     0.8251

*** Psi4 exiting successfully. Buy a developer a beer!
