                               Psi4 1.4a3.dev225

  ==> Input File <==

--------------------------------------------------------------------------
#psi4
#
memory 32 gb

molecule  {
0 1
  O        0.1973020    -1.3235490    -0.2892290
  C       -1.0344600    -0.8194530     0.2767900
  C       -1.2574290     0.6116450    -0.1105210
  C       -0.1783580     1.4194390    -0.0692080
  C        1.1257810     0.8237890     0.1750290
  C        1.2576400    -0.5068660    -0.0292480
  H       -0.9620370    -0.9265990     1.3719500
  H       -1.8114290    -1.4891710    -0.0946800
  H       -2.2490060     0.9624120    -0.3801030
  H       -0.2501071     2.5260785    -0.3202912
  H        2.0071080     1.4278200     0.3572680
  H        2.2048620    -1.0348020    -0.0884010
units angstrom
no_reorient  #important for SAPT in psi4, default
symmetry c1  #important for SAPT in psi4, default
}

set PROPERTIES_ORIGIN ["COM"]
properties('MP2/aug-cc-pvtz', properties = ['dipole'])
--------------------------------------------------------------------------

    Molecular point group: c1
  Charge       = 0
  Multiplicity = 1
  Basis Set: AUG-CC-PVTZ
    Blend: AUG-CC-PVTZ
  Basis Set: (AUG-CC-PVTZ AUX)
    Blend: AUG-CC-PVTZ-JKFIT

    Orbital Energies [Eh]
    ---------------------

    Doubly Occupied:

       1A    -20.587326     2A    -11.301262     3A    -11.291554
       4A    -11.247393     5A    -11.231709     6A    -11.226720
       7A     -1.407633     8A     -1.095690     9A     -1.034976
      10A     -0.896831    11A     -0.839597    12A     -0.715096
      13A     -0.702542    14A     -0.649919    15A     -0.633023
      16A     -0.601749    17A     -0.569970    18A     -0.532674
      19A     -0.508020    20A     -0.469722    21A     -0.419191
      22A     -0.302542

  @DF-RHF Final Energy:  -267.73572145112325

   => Energetics <=

    Nuclear Repulsion Energy =            223.2645637785685722
    One-Electron Energy =                -805.4702909636358754
    Two-Electron Energy =                 314.4700057339440491
    Total Energy =                       -267.7357214511232542
  Basis Set: (AUG-CC-PVTZ AUX)
    Blend: AUG-CC-PVTZ-RI
    Molecular point group: c1

    Geometry (in Angstrom), charge = 0, multiplicity = 1:

       Center              X                  Y                   Z               Mass
    ------------   -----------------  -----------------  -----------------  -----------------
         O            0.184564500112    -1.307091581560    -0.278749857457    15.994914619570
         C           -1.047197499888    -0.802995581560     0.287269142543    12.000000000000
         C           -1.270166499888     0.628102418440    -0.100041857457    12.000000000000
         C           -0.191095499888     1.435896418440    -0.058728857457    12.000000000000
         C            1.113043500112     0.840246418440     0.185508142543    12.000000000000
         C            1.244902500112    -0.490408581560    -0.018768857457    12.000000000000
         H           -0.974774499888    -0.910141581560     1.382429142543     1.007825032230
         H           -1.824166499888    -1.472713581560    -0.084200857457     1.007825032230
         H           -2.261743499888     0.978869418440    -0.369623857457     1.007825032230
         H           -0.262844599888     2.542535918440    -0.309812057457     1.007825032230
         H            1.994370500112     1.444277418440     0.367747142543     1.007825032230
         H            2.192124500112    -1.018344581560    -0.077921857457     1.007825032230

  Basis Set: AUG-CC-PVTZ
    Blend: AUG-CC-PVTZ
  Basis Set: (AUG-CC-PVTZ AUX)
    Blend: AUG-CC-PVTZ-JKFIT
	 Reference Energy          =    -267.7357214511232542 [Eh]
	 Singles Energy            =      -0.0000000000000000 [Eh]
	 Same-Spin Energy          =      -0.2741995413482924 [Eh]
	 Opposite-Spin Energy      =      -0.8871011231895476 [Eh]
	 Correlation Energy        =      -1.1613006645378401 [Eh]
	 Total Energy              =    -268.8970221156611160 [Eh]

	 ================> DF-SCS-MP2 Energies <==================
	-----------------------------------------------------------
	 SCS Same-Spin Scale       =       0.3333333333333333 [-]
	 SCS Opposite-Spin Scale   =       1.2000000000000000 [-]
	 SCS Same-Spin Energy      =      -0.0913998471160975 [Eh]
	 SCS Opposite-Spin Energy  =      -1.0645213478274571 [Eh]
	 SCS Correlation Energy    =      -1.1559211949435546 [Eh]
	 SCS Total Energy          =    -268.8916426460668276 [Eh]
	-----------------------------------------------------------

  Dipole Moment: [D]
     X:    -0.3228      Y:     0.6015      Z:     0.4221     Total:     0.8026

*** Psi4 exiting successfully. Buy a developer a beer!
