                               Psi4 1.3.2 release

  ==> Input File <==

--------------------------------------------------------------------------
#psi4
#
memory 32 gb

molecule  {
0 1
  O        0.1973020    -1.3235490    -0.2892290
  C       -1.0344600    -0.8194530     0.2767900
  C       -1.2574290     0.6116450    -0.1105210
  C       -0.1783580     1.4194390    -0.0692080
  C        1.1257810     0.8237890     0.1750290
  C        1.2576400    -0.5068660    -0.0292480
  H       -0.9620370    -0.9265990     1.3719500
  H       -1.8114290    -1.4891710    -0.0946800
  H       -2.2490060     0.9624120    -0.3801030
  H       -0.2469520     2.4774150    -0.3092500
  H        2.0071080     1.4278200     0.3572680
  H        2.3793007    -1.1320258    -0.0992945
units angstrom
no_reorient  #important for SAPT in psi4, default
symmetry c1  #important for SAPT in psi4, default
}

set PROPERTIES_ORIGIN ["COM"]
properties('MP2/aug-cc-pvtz', properties = ['dipole'])
--------------------------------------------------------------------------

    Molecular point group: c1
  Charge       = 0
  Multiplicity = 1
  Basis Set: AUG-CC-PVTZ
    Blend: AUG-CC-PVTZ
  Basis Set: (AUG-CC-PVTZ AUX)
    Blend: AUG-CC-PVTZ-JKFIT

    Orbital Energies [Eh]
    ---------------------

    Doubly Occupied:

       1A    -20.590160     2A    -11.321655     3A    -11.292802
       4A    -11.243161     5A    -11.232272     6A    -11.227931
       7A     -1.409366     8A     -1.097739     9A     -1.031252
      10A     -0.899385    11A     -0.831082    12A     -0.707635
      13A     -0.699752    14A     -0.648234    15A     -0.630923
      16A     -0.598056    17A     -0.566310    18A     -0.525889
      19A     -0.508365    20A     -0.467003    21A     -0.419580
      22A     -0.303352

  @DF-RHF Final Energy:  -267.71560176276893

   => Energetics <=

    Nuclear Repulsion Energy =            222.6088486417228864
    One-Electron Energy =                -804.1450920838041156
    Two-Electron Energy =                 313.8206416793123594
    Total Energy =                       -267.7156017627689266
  Basis Set: (AUG-CC-PVTZ AUX)
    Blend: AUG-CC-PVTZ-RI
    Molecular point group: c1

    Geometry (in Angstrom), charge = 0, multiplicity = 1:

       Center              X                  Y                   Z               Mass
    ------------   -----------------  -----------------  -----------------  -----------------
         O            0.182382888594    -1.305299461486    -0.278751671845    15.994914619570
         C           -1.049379111406    -0.801203461486     0.287267328155    12.000000000000
         C           -1.272348111406     0.629894538514    -0.100043671845    12.000000000000
         C           -0.193277111406     1.437688538514    -0.058730671845    12.000000000000
         C            1.110861888594     0.842038538514     0.185506328155    12.000000000000
         C            1.242720888594    -0.488616461486    -0.018770671845    12.000000000000
         H           -0.976956111406    -0.908349461486     1.382427328155     1.007825032230
         H           -1.826348111406    -1.470921461486    -0.084202671845     1.007825032230
         H           -2.263925111406     0.980661538514    -0.369625671845     1.007825032230
         H           -0.261871111406     2.495664538514    -0.298772671845     1.007825032230
         H            1.992188888594     1.446069538514     0.367745328155     1.007825032230
         H            2.364381588594    -1.113776261486    -0.088817171845     1.007825032230

  Basis Set: AUG-CC-PVTZ
    Blend: AUG-CC-PVTZ
  Basis Set: (AUG-CC-PVTZ AUX)
    Blend: AUG-CC-PVTZ-JKFIT
	 Reference Energy          =    -267.7156017627689266 [Eh]
	 Singles Energy            =      -0.0000000000000000 [Eh]
	 Same-Spin Energy          =      -0.2747266919305643 [Eh]
	 Opposite-Spin Energy      =      -0.8890038253923334 [Eh]
	 Correlation Energy        =      -1.1637305173228976 [Eh]
	 Total Energy              =    -268.8793322800918304 [Eh]

	 ================> DF-SCS-MP2 Energies <==================
	-----------------------------------------------------------
	 SCS Same-Spin Scale       =       0.3333333333333333 [-]
	 SCS Opposite-Spin Scale   =       1.2000000000000000 [-]
	 SCS Same-Spin Energy      =      -0.0915755639768548 [Eh]
	 SCS Opposite-Spin Energy  =      -1.0668045904707999 [Eh]
	 SCS Correlation Energy    =      -1.1583801544476546 [Eh]
	 SCS Total Energy          =    -268.8739819172165539 [Eh]
	-----------------------------------------------------------

  Dipole Moment: [D]
     X:    -0.4169      Y:     0.6386      Z:     0.4201     Total:     0.8707

*** Psi4 exiting successfully. Buy a developer a beer!
