                               Psi4 1.3.2 release

  ==> Input File <==

--------------------------------------------------------------------------
#psi4
#
memory 32 gb

molecule  {
0 1
  O        0.1973020    -1.3235490    -0.2892290
  C       -1.0344600    -0.8194530     0.2767900
  C       -1.1689409     0.5045042    -0.0857012
  C       -0.1783580     1.4194390    -0.0692080
  C        1.1257810     0.8237890     0.1750290
  C        1.2576400    -0.5068660    -0.0292480
  H       -0.9620370    -0.9265990     1.3719500
  H       -1.8114290    -1.4891710    -0.0946800
  H       -2.2490060     0.9624120    -0.3801030
  H       -0.2469520     2.4774150    -0.3092500
  H        2.0071080     1.4278200     0.3572680
  H        2.2048620    -1.0348020    -0.0884010
units angstrom
no_reorient  #important for SAPT in psi4, default
symmetry c1  #important for SAPT in psi4, default
}

set PROPERTIES_ORIGIN ["COM"]
properties('MP2/aug-cc-pvtz', properties = ['dipole'])
--------------------------------------------------------------------------

    Molecular point group: c1
  Charge       = 0
  Multiplicity = 1
  Basis Set: AUG-CC-PVTZ
    Blend: AUG-CC-PVTZ
  Basis Set: (AUG-CC-PVTZ AUX)
    Blend: AUG-CC-PVTZ-JKFIT

    Orbital Energies [Eh]
    ---------------------

    Doubly Occupied:

       1A    -20.585356     2A    -11.298402     3A    -11.286811
       4A    -11.242391     5A    -11.235853     6A    -11.224378
       7A     -1.410252     8A     -1.106615     9A     -1.047375
      10A     -0.903964    11A     -0.837791    12A     -0.725466
      13A     -0.696568    14A     -0.658292    15A     -0.630730
      16A     -0.596530    17A     -0.588244    18A     -0.528006
      19A     -0.509931    20A     -0.464168    21A     -0.417868
      22A     -0.299355

  @DF-RHF Final Energy:  -267.71284110382209

   => Energetics <=

    Nuclear Repulsion Energy =            225.6510932526113891
    One-Electron Energy =                -810.1391750153525209
    Two-Electron Energy =                 316.7752406589190173
    Total Energy =                       -267.7128411038220861
  Basis Set: (AUG-CC-PVTZ AUX)
    Blend: AUG-CC-PVTZ-RI
    Molecular point group: c1

    Geometry (in Angstrom), charge = 0, multiplicity = 1:

       Center              X                  Y                   Z               Mass
    ------------   -----------------  -----------------  -----------------  -----------------
         O            0.171582871876    -1.290822645006    -0.282515803032    15.994914619570
         C           -1.060179128124    -0.786726645006     0.283503196968    12.000000000000
         C           -1.194660028124     0.537230554994    -0.078988003032    12.000000000000
         C           -0.204077128124     1.452165354994    -0.062494803032    12.000000000000
         C            1.100061871876     0.856515354994     0.181742196968    12.000000000000
         C            1.231920871876    -0.474139645006    -0.022534803032    12.000000000000
         H           -0.987756128124    -0.893872645006     1.378663196968     1.007825032230
         H           -1.837148128124    -1.456444645006    -0.087966803032     1.007825032230
         H           -2.274725128124     0.995138354994    -0.373389803032     1.007825032230
         H           -0.272671128124     2.510141354994    -0.302536803032     1.007825032230
         H            1.981388871876     1.460546354994     0.363981196968     1.007825032230
         H            2.179142871876    -1.002075645006    -0.081687803032     1.007825032230

  Basis Set: AUG-CC-PVTZ
    Blend: AUG-CC-PVTZ
  Basis Set: (AUG-CC-PVTZ AUX)
    Blend: AUG-CC-PVTZ-JKFIT
	 Reference Energy          =    -267.7128411038220861 [Eh]
	 Singles Energy            =      -0.0000000000000000 [Eh]
	 Same-Spin Energy          =      -0.2760852092607489 [Eh]
	 Opposite-Spin Energy      =      -0.8889931009488024 [Eh]
	 Correlation Energy        =      -1.1650783102095512 [Eh]
	 Total Energy              =    -268.8779194140316235 [Eh]

	 ================> DF-SCS-MP2 Energies <==================
	-----------------------------------------------------------
	 SCS Same-Spin Scale       =       0.3333333333333333 [-]
	 SCS Opposite-Spin Scale   =       1.2000000000000000 [-]
	 SCS Same-Spin Energy      =      -0.0920284030869163 [Eh]
	 SCS Opposite-Spin Energy  =      -1.0667917211385627 [Eh]
	 SCS Correlation Energy    =      -1.1588201242254790 [Eh]
	 SCS Total Energy          =    -268.8716612280475715 [Eh]
	-----------------------------------------------------------

  Dipole Moment: [D]
     X:    -0.3046      Y:     0.6478      Z:     0.4410     Total:     0.8407

*** Psi4 exiting successfully. Buy a developer a beer!
