                               Psi4 1.4a3.dev225

  ==> Input File <==

--------------------------------------------------------------------------
#psi4
#
memory 32 gb

molecule  {
0 1
  O        0.1973020    -1.3235490    -0.2892290
  C       -1.0344600    -0.8194530     0.2767900
  C       -1.2574290     0.6116450    -0.1105210
  C       -0.1783580     1.4194390    -0.0692080
  C        1.1257810     0.8237890     0.1750290
  C        1.2731942    -0.4948860    -0.0254343
  H       -0.9620370    -0.9265990     1.3719500
  H       -1.8114290    -1.4891710    -0.0946800
  H       -2.2490060     0.9624120    -0.3801030
  H       -0.2469520     2.4774150    -0.3092500
  H        2.0071080     1.4278200     0.3572680
  H        2.2048620    -1.0348020    -0.0884010
units angstrom
no_reorient  #important for SAPT in psi4, default
symmetry c1  #important for SAPT in psi4, default
}

set PROPERTIES_ORIGIN ["COM"]
properties('MP2/aug-cc-pvtz', properties = ['dipole'])
--------------------------------------------------------------------------

    Molecular point group: c1
  Charge       = 0
  Multiplicity = 1
  Basis Set: AUG-CC-PVTZ
    Blend: AUG-CC-PVTZ
  Basis Set: (AUG-CC-PVTZ AUX)
    Blend: AUG-CC-PVTZ-JKFIT

    Orbital Energies [Eh]
    ---------------------

    Doubly Occupied:

       1A    -20.583681     2A    -11.298680     3A    -11.289779
       4A    -11.242042     5A    -11.232552     6A    -11.226809
       7A     -1.397894     8A     -1.097146     9A     -1.035432
      10A     -0.898464    11A     -0.840008    12A     -0.717682
      13A     -0.702360    14A     -0.646808    15A     -0.631293
      16A     -0.605229    17A     -0.571913    18A     -0.531651
      19A     -0.504851    20A     -0.471750    21A     -0.419783
      22A     -0.305088

  @DF-RHF Final Energy:  -267.73760322195704

   => Energetics <=

    Nuclear Repulsion Energy =            223.2788791897211240
    One-Electron Energy =                -805.5311756126529872
    Two-Electron Energy =                 314.5146932009748184
    Total Energy =                       -267.7376032219570448
  Basis Set: (AUG-CC-PVTZ AUX)
    Blend: AUG-CC-PVTZ-RI
    Molecular point group: c1

    Geometry (in Angstrom), charge = 0, multiplicity = 1:

       Center              X                  Y                   Z               Mass
    ------------   -----------------  -----------------  -----------------  -----------------
         O            0.182250679123    -1.308246061736    -0.279443308269    15.994914619570
         C           -1.049511320877    -0.804150061736     0.286575691731    12.000000000000
         C           -1.272480320877     0.626947938264    -0.100735308269    12.000000000000
         C           -0.193409320877     1.434741938264    -0.059422308269    12.000000000000
         C            1.110729679123     0.839091938264     0.184814691731    12.000000000000
         C            1.258142879123    -0.479583061736    -0.015648608269    12.000000000000
         H           -0.977088320877    -0.911296061736     1.381735691731     1.007825032230
         H           -1.826480320877    -1.473868061736    -0.084894308269     1.007825032230
         H           -2.264057320877     0.977714938264    -0.370317308269     1.007825032230
         H           -0.262003320877     2.492717938264    -0.299464308269     1.007825032230
         H            1.992056679123     1.443122938264     0.367053691731     1.007825032230
         H            2.189810679123    -1.019499061736    -0.078615308269     1.007825032230

  Basis Set: AUG-CC-PVTZ
    Blend: AUG-CC-PVTZ
  Basis Set: (AUG-CC-PVTZ AUX)
    Blend: AUG-CC-PVTZ-JKFIT
	 Reference Energy          =    -267.7376032219570448 [Eh]
	 Singles Energy            =      -0.0000000000000000 [Eh]
	 Same-Spin Energy          =      -0.2739551786765642 [Eh]
	 Opposite-Spin Energy      =      -0.8868667321513553 [Eh]
	 Correlation Energy        =      -1.1608219108279194 [Eh]
	 Total Energy              =    -268.8984251327849506 [Eh]

	 ================> DF-SCS-MP2 Energies <==================
	-----------------------------------------------------------
	 SCS Same-Spin Scale       =       0.3333333333333333 [-]
	 SCS Opposite-Spin Scale   =       1.2000000000000000 [-]
	 SCS Same-Spin Energy      =      -0.0913183928921880 [Eh]
	 SCS Opposite-Spin Energy  =      -1.0642400785816262 [Eh]
	 SCS Correlation Energy    =      -1.1555584714738143 [Eh]
	 SCS Total Energy          =    -268.8931616934308408 [Eh]
	-----------------------------------------------------------

  Dipole Moment: [D]
     X:    -0.2880      Y:     0.6999      Z:     0.4327     Total:     0.8719

*** Psi4 exiting successfully. Buy a developer a beer!
