                               Psi4 1.4a3.dev225

  ==> Input File <==

--------------------------------------------------------------------------
#psi4
#
memory 32 gb

molecule  {
0 1
  O        0.1973020    -1.3235490    -0.2892290
  C       -1.0344600    -0.8194530     0.2767900
  C       -1.2574290     0.6116450    -0.1105210
  C       -0.1783580     1.4194390    -0.0692080
  C        1.1257810     0.8237890     0.1750290
  C        1.2576400    -0.5068660    -0.0292480
  H       -0.9620370    -0.9265990     1.3719500
  H       -1.8114290    -1.4891710    -0.0946800
  H       -2.2490060     0.9624120    -0.3801030
  H       -0.2469520     2.4774150    -0.3092500
  H        1.9908456     1.4166743     0.3539053
  H        2.2048620    -1.0348020    -0.0884010
units angstrom
no_reorient  #important for SAPT in psi4, default
symmetry c1  #important for SAPT in psi4, default
}

set PROPERTIES_ORIGIN ["COM"]
properties('MP2/aug-cc-pvtz', properties = ['dipole'])
--------------------------------------------------------------------------

    Molecular point group: c1
  Charge       = 0
  Multiplicity = 1
  Basis Set: AUG-CC-PVTZ
    Blend: AUG-CC-PVTZ
  Basis Set: (AUG-CC-PVTZ AUX)
    Blend: AUG-CC-PVTZ-JKFIT

    Orbital Energies [Eh]
    ---------------------

    Doubly Occupied:

       1A    -20.586948     2A    -11.300762     3A    -11.291057
       4A    -11.241497     5A    -11.231202     6A    -11.223834
       7A     -1.407227     8A     -1.096537     9A     -1.034948
      10A     -0.898860    11A     -0.841078    12A     -0.718703
      13A     -0.704463    14A     -0.650175    15A     -0.634292
      16A     -0.605787    17A     -0.572550    18A     -0.532953
      19A     -0.508767    20A     -0.471102    21A     -0.418750
      22A     -0.302153

  @DF-RHF Final Energy:  -267.73824061472050

   => Energetics <=

    Nuclear Repulsion Energy =            223.5937122096868848
    One-Electron Energy =                -806.1166116399675730
    Two-Electron Energy =                 314.7846588155601353
    Total Energy =                       -267.7382406147204961
  Basis Set: (AUG-CC-PVTZ AUX)
    Blend: AUG-CC-PVTZ-RI
    Molecular point group: c1

    Geometry (in Angstrom), charge = 0, multiplicity = 1:

       Center              X                  Y                   Z               Mass
    ------------   -----------------  -----------------  -----------------  -----------------
         O            0.184725513822    -1.306356868752    -0.278844182282    15.994914619570
         C           -1.047036486178    -0.802260868752     0.287174817718    12.000000000000
         C           -1.270005486178     0.628837131248    -0.100136182282    12.000000000000
         C           -0.190934486178     1.436631131248    -0.058823182282    12.000000000000
         C            1.113204513822     0.840981131248     0.185413817718    12.000000000000
         C            1.245063513822    -0.489673868752    -0.018863182282    12.000000000000
         H           -0.974613486178    -0.909406868752     1.382334817718     1.007825032230
         H           -1.824005486178    -1.471978868752    -0.084295182282     1.007825032230
         H           -2.261582486178     0.979604131248    -0.369718182282     1.007825032230
         H           -0.259528486178     2.494607131248    -0.298865182282     1.007825032230
         H            1.978269113822     1.433866431248     0.364290117718     1.007825032230
         H            2.192285513822    -1.017609868752    -0.078016182282     1.007825032230

  Basis Set: AUG-CC-PVTZ
    Blend: AUG-CC-PVTZ
  Basis Set: (AUG-CC-PVTZ AUX)
    Blend: AUG-CC-PVTZ-JKFIT
	 Reference Energy          =    -267.7382406147204961 [Eh]
	 Singles Energy            =      -0.0000000000000000 [Eh]
	 Same-Spin Energy          =      -0.2740934912980756 [Eh]
	 Opposite-Spin Energy      =      -0.8866384030372928 [Eh]
	 Correlation Energy        =      -1.1607318943353684 [Eh]
	 Total Energy              =    -268.8989725090558522 [Eh]

	 ================> DF-SCS-MP2 Energies <==================
	-----------------------------------------------------------
	 SCS Same-Spin Scale       =       0.3333333333333333 [-]
	 SCS Opposite-Spin Scale   =       1.2000000000000000 [-]
	 SCS Same-Spin Energy      =      -0.0913644970993585 [Eh]
	 SCS Opposite-Spin Energy  =      -1.0639660836447513 [Eh]
	 SCS Correlation Energy    =      -1.1553305807441099 [Eh]
	 SCS Total Energy          =    -268.8935711954646308 [Eh]
	-----------------------------------------------------------

  Dipole Moment: [D]
     X:    -0.3224      Y:     0.6232      Z:     0.4197     Total:     0.8176

*** Psi4 exiting successfully. Buy a developer a beer!
