                               Psi4 1.3.2 release

  ==> Input File <==

--------------------------------------------------------------------------
#psi4
#
memory 32 gb

molecule  {
0 1
  O        0.1973020    -1.3235490    -0.2892290
  C       -1.0344600    -0.8194530     0.2767900
  C       -1.2574290     0.6116450    -0.1105210
  C       -0.2117844     1.3270833    -0.0948650
  C        1.1257810     0.8237890     0.1750290
  C        1.2576400    -0.5068660    -0.0292480
  H       -0.9620370    -0.9265990     1.3719500
  H       -1.8114290    -1.4891710    -0.0946800
  H       -2.2490060     0.9624120    -0.3801030
  H       -0.2469520     2.4774150    -0.3092500
  H        2.0071080     1.4278200     0.3572680
  H        2.2048620    -1.0348020    -0.0884010
units angstrom
no_reorient  #important for SAPT in psi4, default
symmetry c1  #important for SAPT in psi4, default
}

set PROPERTIES_ORIGIN ["COM"]
properties('MP2/aug-cc-pvtz', properties = ['dipole'])
--------------------------------------------------------------------------

    Molecular point group: c1
  Charge       = 0
  Multiplicity = 1
  Basis Set: AUG-CC-PVTZ
    Blend: AUG-CC-PVTZ
  Basis Set: (AUG-CC-PVTZ AUX)
    Blend: AUG-CC-PVTZ-JKFIT

    Orbital Energies [Eh]
    ---------------------

    Doubly Occupied:

       1A    -20.587231     2A    -11.300349     3A    -11.289324
       4A    -11.236267     5A    -11.225434     6A    -11.218290
       7A     -1.408188     8A     -1.110361     9A     -1.037677
      10A     -0.902881    11A     -0.835782    12A     -0.716205
      13A     -0.699500    14A     -0.654558    15A     -0.634354
      16A     -0.603883    17A     -0.562376    18A     -0.536927
      19A     -0.511378    20A     -0.458263    21A     -0.427680
      22A     -0.311105

  @DF-RHF Final Energy:  -267.72729393103333

   => Energetics <=

    Nuclear Repulsion Energy =            225.0679043325484088
    One-Electron Energy =                -809.0543727447915217
    Two-Electron Energy =                 316.2591744812097545
    Total Energy =                       -267.7272939310333300
  Basis Set: (AUG-CC-PVTZ AUX)
    Blend: AUG-CC-PVTZ-RI
    Molecular point group: c1

    Geometry (in Angstrom), charge = 0, multiplicity = 1:

       Center              X                  Y                   Z               Mass
    ------------   -----------------  -----------------  -----------------  -----------------
         O            0.189414914131    -1.292985214084    -0.275132723657    15.994914619570
         C           -1.042347085869    -0.788889214084     0.290886276343    12.000000000000
         C           -1.265316085869     0.642208785916    -0.096424723657    12.000000000000
         C           -0.219671485869     1.357647085916    -0.080768723657    12.000000000000
         C            1.117893914131     0.854352785916     0.189125276343    12.000000000000
         C            1.249752914131    -0.476302214084    -0.015151723657    12.000000000000
         H           -0.969924085869    -0.896035214084     1.386046276343     1.007825032230
         H           -1.819316085869    -1.458607214084    -0.080583723657     1.007825032230
         H           -2.256893085869     0.992975785916    -0.366006723657     1.007825032230
         H           -0.254839085869     2.507978785916    -0.295153723657     1.007825032230
         H            1.999220914131     1.458383785916     0.371364276343     1.007825032230
         H            2.196974914131    -1.004238214084    -0.074304723657     1.007825032230

  Basis Set: AUG-CC-PVTZ
    Blend: AUG-CC-PVTZ
  Basis Set: (AUG-CC-PVTZ AUX)
    Blend: AUG-CC-PVTZ-JKFIT
	 Reference Energy          =    -267.7272939310333300 [Eh]
	 Singles Energy            =      -0.0000000000000000 [Eh]
	 Same-Spin Energy          =      -0.2736784307647088 [Eh]
	 Opposite-Spin Energy      =      -0.8853471574960866 [Eh]
	 Correlation Energy        =      -1.1590255882607954 [Eh]
	 Total Energy              =    -268.8863195192941475 [Eh]

	 ================> DF-SCS-MP2 Energies <==================
	-----------------------------------------------------------
	 SCS Same-Spin Scale       =       0.3333333333333333 [-]
	 SCS Opposite-Spin Scale   =       1.2000000000000000 [-]
	 SCS Same-Spin Energy      =      -0.0912261435882362 [Eh]
	 SCS Opposite-Spin Energy  =      -1.0624165889953039 [Eh]
	 SCS Correlation Energy    =      -1.1536427325835401 [Eh]
	 SCS Total Energy          =    -268.8809366636168647 [Eh]
	-----------------------------------------------------------

  Dipole Moment: [D]
     X:    -0.3244      Y:     0.5855      Z:     0.4601     Total:     0.8122

*** Psi4 exiting successfully. Buy a developer a beer!
