                               Psi4 1.3.2 release

  ==> Input File <==

--------------------------------------------------------------------------
#psi4
#
memory 32 gb

molecule  {
0 1
  O        0.1973020    -1.3235490    -0.2892290
  C       -1.0344600    -0.8194530     0.2767900
  C       -1.2300056     0.5757120    -0.0973871
  C       -0.1783580     1.4194390    -0.0692080
  C        1.1257810     0.8237890     0.1750290
  C        1.2576400    -0.5068660    -0.0292480
  H       -0.9620370    -0.9265990     1.3719500
  H       -1.8114290    -1.4891710    -0.0946800
  H       -2.2490060     0.9624120    -0.3801030
  H       -0.2469520     2.4774150    -0.3092500
  H        2.0071080     1.4278200     0.3572680
  H        2.2048620    -1.0348020    -0.0884010
units angstrom
no_reorient  #important for SAPT in psi4, default
symmetry c1  #important for SAPT in psi4, default
}

set PROPERTIES_ORIGIN ["COM"]
properties('MP2/aug-cc-pvtz', properties = ['dipole'])
--------------------------------------------------------------------------

    Molecular point group: c1
  Charge       = 0
  Multiplicity = 1
  Basis Set: AUG-CC-PVTZ
    Blend: AUG-CC-PVTZ
  Basis Set: (AUG-CC-PVTZ AUX)
    Blend: AUG-CC-PVTZ-JKFIT

    Orbital Energies [Eh]
    ---------------------

    Doubly Occupied:

       1A    -20.586392     2A    -11.299987     3A    -11.289734
       4A    -11.241567     5A    -11.232535     6A    -11.225408
       7A     -1.407984     8A     -1.099205     9A     -1.038463
      10A     -0.899983    11A     -0.839590    12A     -0.720285
      13A     -0.699969    14A     -0.652011    15A     -0.631542
      16A     -0.603253    17A     -0.577017    18A     -0.529907
      19A     -0.508342    20A     -0.472669    21A     -0.418628
      22A     -0.301162

  @DF-RHF Final Energy:  -267.73494866425119

   => Energetics <=

    Nuclear Repulsion Energy =            224.1786135980318591
    One-Electron Energy =                -807.2758599203888252
    Two-Electron Energy =                 315.3622976581058310
    Total Energy =                       -267.7349486642511920
  Basis Set: (AUG-CC-PVTZ AUX)
    Blend: AUG-CC-PVTZ-RI
    Molecular point group: c1

    Geometry (in Angstrom), charge = 0, multiplicity = 1:

       Center              X                  Y                   Z               Mass
    ------------   -----------------  -----------------  -----------------  -----------------
         O            0.180514609370    -1.301237981151    -0.280806543981    15.994914619570
         C           -1.051247390630    -0.797141981151     0.285212456019    12.000000000000
         C           -1.246792990630     0.598023018849    -0.088964643981    12.000000000000
         C           -0.195145390630     1.441750018849    -0.060785543981    12.000000000000
         C            1.108993609370     0.846100018849     0.183451456019    12.000000000000
         C            1.240852609370    -0.484554981151    -0.020825543981    12.000000000000
         H           -0.978824390630    -0.904287981151     1.380372456019     1.007825032230
         H           -1.828216390630    -1.466859981151    -0.086257543981     1.007825032230
         H           -2.265793390630     0.984723018849    -0.371680543981     1.007825032230
         H           -0.263739390630     2.499726018849    -0.300827543981     1.007825032230
         H            1.990320609370     1.450131018849     0.365690456019     1.007825032230
         H            2.188074609370    -1.012490981151    -0.079978543981     1.007825032230

  Basis Set: AUG-CC-PVTZ
    Blend: AUG-CC-PVTZ
  Basis Set: (AUG-CC-PVTZ AUX)
    Blend: AUG-CC-PVTZ-JKFIT
	 Reference Energy          =    -267.7349486642511920 [Eh]
	 Singles Energy            =      -0.0000000000000000 [Eh]
	 Same-Spin Energy          =      -0.2746041317541927 [Eh]
	 Opposite-Spin Energy      =      -0.8871616091261632 [Eh]
	 Correlation Energy        =      -1.1617657408803559 [Eh]
	 Total Energy              =    -268.8967144051315472 [Eh]

	 ================> DF-SCS-MP2 Energies <==================
	-----------------------------------------------------------
	 SCS Same-Spin Scale       =       0.3333333333333333 [-]
	 SCS Opposite-Spin Scale   =       1.2000000000000000 [-]
	 SCS Same-Spin Energy      =      -0.0915347105847309 [Eh]
	 SCS Opposite-Spin Energy  =      -1.0645939309513957 [Eh]
	 SCS Correlation Energy    =      -1.1561286415361265 [Eh]
	 SCS Total Energy          =    -268.8910773057872916 [Eh]
	-----------------------------------------------------------

  Dipole Moment: [D]
     X:    -0.3282      Y:     0.6351      Z:     0.4200     Total:     0.8291

*** Psi4 exiting successfully. Buy a developer a beer!
