                               Psi4 1.3.2 release

  ==> Input File <==

--------------------------------------------------------------------------
#psi4
#
memory 32 gb

molecule  {
0 1
  O        0.1973020    -1.3235490    -0.2892290
  C       -0.9332782    -0.7962736     0.2900511
  C       -1.2574290     0.6116450    -0.1105210
  C       -0.1783580     1.4194390    -0.0692080
  C        1.1257810     0.8237890     0.1750290
  C        1.2576400    -0.5068660    -0.0292480
  H       -0.9620370    -0.9265990     1.3719500
  H       -1.8114290    -1.4891710    -0.0946800
  H       -2.2490060     0.9624120    -0.3801030
  H       -0.2469520     2.4774150    -0.3092500
  H        2.0071080     1.4278200     0.3572680
  H        2.2048620    -1.0348020    -0.0884010
units angstrom
no_reorient  #important for SAPT in psi4, default
symmetry c1  #important for SAPT in psi4, default
}

set PROPERTIES_ORIGIN ["COM"]
properties('MP2/aug-cc-pvtz', properties = ['dipole'])
--------------------------------------------------------------------------

    Molecular point group: c1
  Charge       = 0
  Multiplicity = 1
  Basis Set: AUG-CC-PVTZ
    Blend: AUG-CC-PVTZ
  Basis Set: (AUG-CC-PVTZ AUX)
    Blend: AUG-CC-PVTZ-JKFIT

    Orbital Energies [Eh]
    ---------------------

    Doubly Occupied:

       1A    -20.594861     2A    -11.302682     3A    -11.291588
       4A    -11.240301     5A    -11.231266     6A    -11.230610
       7A     -1.435053     8A     -1.100618     9A     -1.035221
      10A     -0.894234    11A     -0.847346    12A     -0.722182
      13A     -0.712422    14A     -0.659248    15A     -0.635320
      16A     -0.607789    17A     -0.577109    18A     -0.537687
      19A     -0.481058    20A     -0.472569    21A     -0.420713
      22A     -0.305708

  @DF-RHF Final Energy:  -267.72706386215214

   => Energetics <=

    Nuclear Repulsion Energy =            225.0412524986315645
    One-Electron Energy =                -808.8654612337793424
    Two-Electron Energy =                 316.0971448729956137
    Total Energy =                       -267.7270638621521357
  Basis Set: (AUG-CC-PVTZ AUX)
    Blend: AUG-CC-PVTZ-RI
    Molecular point group: c1

    Geometry (in Angstrom), charge = 0, multiplicity = 1:

       Center              X                  Y                   Z               Mass
    ------------   -----------------  -----------------  -----------------  -----------------
         O            0.169726205157    -1.309884161995    -0.280825149117    15.994914619570
         C           -0.960853994843    -0.782608761995     0.298454950883    12.000000000000
         C           -1.285004794843     0.625309838005    -0.102117149117    12.000000000000
         C           -0.205933794843     1.433103838005    -0.060804149117    12.000000000000
         C            1.098205205157     0.837453838005     0.183432850883    12.000000000000
         C            1.230064205157    -0.493201161995    -0.020844149117    12.000000000000
         H           -0.989612794843    -0.912934161995     1.380353850883     1.007825032230
         H           -1.839004794843    -1.475506161995    -0.086276149117     1.007825032230
         H           -2.276581794843     0.976076838005    -0.371699149117     1.007825032230
         H           -0.274527794843     2.491079838005    -0.300846149117     1.007825032230
         H            1.979532205157     1.441484838005     0.365671850883     1.007825032230
         H            2.177286205157    -1.021137161995    -0.079997149117     1.007825032230

  Basis Set: AUG-CC-PVTZ
    Blend: AUG-CC-PVTZ
  Basis Set: (AUG-CC-PVTZ AUX)
    Blend: AUG-CC-PVTZ-JKFIT
	 Reference Energy          =    -267.7270638621521357 [Eh]
	 Singles Energy            =      -0.0000000000000000 [Eh]
	 Same-Spin Energy          =      -0.2745876390769764 [Eh]
	 Opposite-Spin Energy      =      -0.8870467421136081 [Eh]
	 Correlation Energy        =      -1.1616343811905845 [Eh]
	 Total Energy              =    -268.8886982433427306 [Eh]

	 ================> DF-SCS-MP2 Energies <==================
	-----------------------------------------------------------
	 SCS Same-Spin Scale       =       0.3333333333333333 [-]
	 SCS Opposite-Spin Scale   =       1.2000000000000000 [-]
	 SCS Same-Spin Energy      =      -0.0915292130256588 [Eh]
	 SCS Opposite-Spin Energy  =      -1.0644560905363296 [Eh]
	 SCS Correlation Energy    =      -1.1559853035619885 [Eh]
	 SCS Total Energy          =    -268.8830491657141124 [Eh]
	-----------------------------------------------------------

  Dipole Moment: [D]
     X:    -0.0642      Y:     0.7128      Z:     0.3823     Total:     0.8114

*** Psi4 exiting successfully. Buy a developer a beer!
