                               Psi4 1.3.2 release

  ==> Input File <==

--------------------------------------------------------------------------
#psi4
#
memory 32 gb

molecule  {
0 1
  O        0.1973020    -1.3235490    -0.2892290
  C       -1.0344600    -0.8194530     0.2767900
  C       -1.2574290     0.6116450    -0.1105210
  C       -0.1783580     1.4194390    -0.0692080
  C        1.1257810     0.8237890     0.1750290
  C        1.2576400    -0.5068660    -0.0292480
  H       -0.9751717    -0.9071668     1.1733301
  H       -1.8114290    -1.4891710    -0.0946800
  H       -2.2490060     0.9624120    -0.3801030
  H       -0.2469520     2.4774150    -0.3092500
  H        2.0071080     1.4278200     0.3572680
  H        2.2048620    -1.0348020    -0.0884010
units angstrom
no_reorient  #important for SAPT in psi4, default
symmetry c1  #important for SAPT in psi4, default
}

set PROPERTIES_ORIGIN ["COM"]
properties('MP2/aug-cc-pvtz', properties = ['dipole'])
--------------------------------------------------------------------------

    Molecular point group: c1
  Charge       = 0
  Multiplicity = 1
  Basis Set: AUG-CC-PVTZ
    Blend: AUG-CC-PVTZ
  Basis Set: (AUG-CC-PVTZ AUX)
    Blend: AUG-CC-PVTZ-JKFIT

    Orbital Energies [Eh]
    ---------------------

    Doubly Occupied:

       1A    -20.584216     2A    -11.299972     3A    -11.266871
       4A    -11.240964     5A    -11.229726     6A    -11.224775
       7A     -1.406490     8A     -1.096561     9A     -1.043285
      10A     -0.914588    11A     -0.839326    12A     -0.733065
      13A     -0.714428    14A     -0.648632    15A     -0.636921
      16A     -0.604613    17A     -0.571648    18A     -0.543194
      19A     -0.511251    20A     -0.474008    21A     -0.418067
      22A     -0.302005

  @DF-RHF Final Energy:  -267.70723182840243

   => Energetics <=

    Nuclear Repulsion Energy =            224.5560597336693718
    One-Electron Energy =                -807.9173705975053963
    Two-Electron Energy =                 315.6540790354335968
    Total Energy =                       -267.7072318284024277
  Basis Set: (AUG-CC-PVTZ AUX)
    Blend: AUG-CC-PVTZ-RI
    Molecular point group: c1

    Geometry (in Angstrom), charge = 0, multiplicity = 1:

       Center              X                  Y                   Z               Mass
    ------------   -----------------  -----------------  -----------------  -----------------
         O            0.184687092287    -1.306732496160    -0.276445588658    15.994914619570
         C           -1.047074907713    -0.802636496160     0.289573411342    12.000000000000
         C           -1.270043907713     0.628461503840    -0.097737588658    12.000000000000
         C           -0.190972907713     1.436255503840    -0.056424588658    12.000000000000
         C            1.113166092287     0.840605503840     0.187812411342    12.000000000000
         C            1.245025092287    -0.490049496160    -0.016464588658    12.000000000000
         H           -0.987786607713    -0.890350296160     1.186113511342     1.007825032230
         H           -1.824043907713    -1.472354496160    -0.081896588658     1.007825032230
         H           -2.261620907713     0.979228503840    -0.367319588658     1.007825032230
         H           -0.259566907713     2.494231503840    -0.296466588658     1.007825032230
         H            1.994493092287     1.444636503840     0.370051411342     1.007825032230
         H            2.192247092287    -1.017985496160    -0.075617588658     1.007825032230

  Basis Set: AUG-CC-PVTZ
    Blend: AUG-CC-PVTZ
  Basis Set: (AUG-CC-PVTZ AUX)
    Blend: AUG-CC-PVTZ-JKFIT
	 Reference Energy          =    -267.7072318284024277 [Eh]
	 Singles Energy            =      -0.0000000000000000 [Eh]
	 Same-Spin Energy          =      -0.2737630315110987 [Eh]
	 Opposite-Spin Energy      =      -0.8857806580265783 [Eh]
	 Correlation Energy        =      -1.1595436895376769 [Eh]
	 Total Energy              =    -268.8667755179400842 [Eh]

	 ================> DF-SCS-MP2 Energies <==================
	-----------------------------------------------------------
	 SCS Same-Spin Scale       =       0.3333333333333333 [-]
	 SCS Opposite-Spin Scale   =       1.2000000000000000 [-]
	 SCS Same-Spin Energy      =      -0.0912543438370329 [Eh]
	 SCS Opposite-Spin Energy  =      -1.0629367896318940 [Eh]
	 SCS Correlation Energy    =      -1.1541911334689268 [Eh]
	 SCS Total Energy          =    -268.8614229618713694 [Eh]
	-----------------------------------------------------------

  Dipole Moment: [D]
     X:    -0.3822      Y:     0.5564      Z:     0.5283     Total:     0.8572

*** Psi4 exiting successfully. Buy a developer a beer!
