                               Psi4 1.4a3.dev225

  ==> Input File <==

--------------------------------------------------------------------------
#psi4
#
memory 32 gb

molecule  {
0 1
  O        0.1973020    -1.3235490    -0.2892290
  C       -1.0344600    -0.8194530     0.2767900
  C       -1.2574290     0.6116450    -0.1105210
  C       -0.1783580     1.4194390    -0.0692080
  C        1.1257810     0.8237890     0.1750290
  C        1.2576400    -0.5068660    -0.0292480
  H       -0.9620370    -0.9265990     1.3719500
  H       -1.8114290    -1.4891710    -0.0946800
  H       -2.2490060     0.9624120    -0.3801030
  H       -0.2469520     2.4774150    -0.3092500
  H        2.0071080     1.4278200     0.3572680
  H        2.1612523    -1.0104961    -0.0856776
units angstrom
no_reorient  #important for SAPT in psi4, default
symmetry c1  #important for SAPT in psi4, default
}

set PROPERTIES_ORIGIN ["COM"]
properties('MP2/aug-cc-pvtz', properties = ['dipole'])
--------------------------------------------------------------------------

    Molecular point group: c1
  Charge       = 0
  Multiplicity = 1
  Basis Set: AUG-CC-PVTZ
    Blend: AUG-CC-PVTZ
  Basis Set: (AUG-CC-PVTZ AUX)
    Blend: AUG-CC-PVTZ-JKFIT

    Orbital Energies [Eh]
    ---------------------

    Doubly Occupied:

       1A    -20.586441     2A    -11.295101     3A    -11.290846
       4A    -11.241460     5A    -11.231235     6A    -11.225910
       7A     -1.406997     8A     -1.096169     9A     -1.036270
      10A     -0.898545    11A     -0.844709    12A     -0.723489
      13A     -0.703419    14A     -0.650582    15A     -0.633884
      16A     -0.607409    17A     -0.572971    18A     -0.533640
      19A     -0.508015    20A     -0.471807    21A     -0.418730
      22A     -0.302108

  @DF-RHF Final Energy:  -267.73734547958026

   => Energetics <=

    Nuclear Repulsion Energy =            223.7528175285201826
    One-Electron Energy =                -806.4208516504006639
    Two-Electron Energy =                 314.9306886423002538
    Total Energy =                       -267.7373454795802559
  Basis Set: (AUG-CC-PVTZ AUX)
    Blend: AUG-CC-PVTZ-RI
    Molecular point group: c1

    Geometry (in Angstrom), charge = 0, multiplicity = 1:

       Center              X                  Y                   Z               Mass
    ------------   -----------------  -----------------  -----------------  -----------------
         O            0.185061455644    -1.306792366043    -0.278918945623    15.994914619570
         C           -1.046700544356    -0.802696366043     0.287100054377    12.000000000000
         C           -1.269669544356     0.628401633957    -0.100210945623    12.000000000000
         C           -0.190598544356     1.436195633957    -0.058897945623    12.000000000000
         C            1.113540455644     0.840545633957     0.185339054377    12.000000000000
         C            1.245399455644    -0.490109366043    -0.018937945623    12.000000000000
         H           -0.974277544356    -0.909842366043     1.382260054377     1.007825032230
         H           -1.823669544356    -1.472414366043    -0.084369945623     1.007825032230
         H           -2.261246544356     0.979168633957    -0.369792945623     1.007825032230
         H           -0.259192544356     2.494171633957    -0.298939945623     1.007825032230
         H            1.994867455644     1.444576633957     0.367578054377     1.007825032230
         H            2.149011755644    -0.993739466043    -0.075367545623     1.007825032230

  Basis Set: AUG-CC-PVTZ
    Blend: AUG-CC-PVTZ
  Basis Set: (AUG-CC-PVTZ AUX)
    Blend: AUG-CC-PVTZ-JKFIT
	 Reference Energy          =    -267.7373454795802559 [Eh]
	 Singles Energy            =      -0.0000000000000000 [Eh]
	 Same-Spin Energy          =      -0.2740109913944790 [Eh]
	 Opposite-Spin Energy      =      -0.8864317980874132 [Eh]
	 Correlation Energy        =      -1.1604427894818923 [Eh]
	 Total Energy              =    -268.8977882690621755 [Eh]

	 ================> DF-SCS-MP2 Energies <==================
	-----------------------------------------------------------
	 SCS Same-Spin Scale       =       0.3333333333333333 [-]
	 SCS Opposite-Spin Scale   =       1.2000000000000000 [-]
	 SCS Same-Spin Energy      =      -0.0913369971314930 [Eh]
	 SCS Opposite-Spin Energy  =      -1.0637181577048958 [Eh]
	 SCS Correlation Energy    =      -1.1550551548363888 [Eh]
	 SCS Total Energy          =    -268.8924006344166173 [Eh]
	-----------------------------------------------------------

  Dipole Moment: [D]
     X:    -0.3158      Y:     0.6245      Z:     0.4196     Total:     0.8160

*** Psi4 exiting successfully. Buy a developer a beer!
