                               Psi4 1.3.2 release

  ==> Input File <==

--------------------------------------------------------------------------
#psi4
#
memory 32 gb

molecule  {
0 1
  O        0.1973020    -1.3235490    -0.2892290
  C       -1.1020366    -0.9416455     0.2183110
  C       -1.2574290     0.6116450    -0.1105210
  C       -0.1783580     1.4194390    -0.0692080
  C        1.1257810     0.8237890     0.1750290
  C        1.2576400    -0.5068660    -0.0292480
  H       -0.9620370    -0.9265990     1.3719500
  H       -1.8114290    -1.4891710    -0.0946800
  H       -2.2490060     0.9624120    -0.3801030
  H       -0.2469520     2.4774150    -0.3092500
  H        2.0071080     1.4278200     0.3572680
  H        2.2048620    -1.0348020    -0.0884010
units angstrom
no_reorient  #important for SAPT in psi4, default
symmetry c1  #important for SAPT in psi4, default
}

set PROPERTIES_ORIGIN ["COM"]
properties('MP2/aug-cc-pvtz', properties = ['dipole'])
--------------------------------------------------------------------------

    Molecular point group: c1
  Charge       = 0
  Multiplicity = 1
  Basis Set: AUG-CC-PVTZ
    Blend: AUG-CC-PVTZ
  Basis Set: (AUG-CC-PVTZ AUX)
    Blend: AUG-CC-PVTZ-JKFIT

    Orbital Energies [Eh]
    ---------------------

    Doubly Occupied:

       1A    -20.583457     2A    -11.300888     3A    -11.294892
       4A    -11.240398     5A    -11.237102     6A    -11.225220
       7A     -1.402065     8A     -1.088462     9A     -1.033394
      10A     -0.908449    11A     -0.835740    12A     -0.727648
      13A     -0.694158    14A     -0.655203    15A     -0.643506
      16A     -0.598698    17A     -0.577729    18A     -0.529846
      19A     -0.513561    20A     -0.450507    21A     -0.417164
      22A     -0.298864

  @DF-RHF Final Energy:  -267.70969687508125

   => Energetics <=

    Nuclear Repulsion Energy =            221.9344368379795753
    One-Electron Energy =                -802.7743645964097823
    Two-Electron Energy =                 313.1302308833489860
    Total Energy =                       -267.7096968750812493
  Basis Set: (AUG-CC-PVTZ AUX)
    Blend: AUG-CC-PVTZ-RI
    Molecular point group: c1

    Geometry (in Angstrom), charge = 0, multiplicity = 1:

       Center              X                  Y                   Z               Mass
    ------------   -----------------  -----------------  -----------------  -----------------
         O            0.194409954175    -1.288621081201    -0.270331955160    15.994914619570
         C           -1.104928645825    -0.906717581201     0.237208044840    12.000000000000
         C           -1.260321045825     0.646572918799    -0.091623955160    12.000000000000
         C           -0.181250045825     1.454366918799    -0.050310955160    12.000000000000
         C            1.122888954175     0.858716918799     0.193926044840    12.000000000000
         C            1.254747954175    -0.471938081201    -0.010350955160    12.000000000000
         H           -0.964929045825    -0.891671081201     1.390847044840     1.007825032230
         H           -1.814321045825    -1.454243081201    -0.075782955160     1.007825032230
         H           -2.251898045825     0.997339918799    -0.361205955160     1.007825032230
         H           -0.249844045825     2.512342918799    -0.290352955160     1.007825032230
         H            2.004215954175     1.462747918799     0.376165044840     1.007825032230
         H            2.201969954175    -0.999874081201    -0.069503955160     1.007825032230

  Basis Set: AUG-CC-PVTZ
    Blend: AUG-CC-PVTZ
  Basis Set: (AUG-CC-PVTZ AUX)
    Blend: AUG-CC-PVTZ-JKFIT
	 Reference Energy          =    -267.7096968750812493 [Eh]
	 Singles Energy            =      -0.0000000000000000 [Eh]
	 Same-Spin Energy          =      -0.2733204906663630 [Eh]
	 Opposite-Spin Energy      =      -0.8865806471491483 [Eh]
	 Correlation Energy        =      -1.1599011378155113 [Eh]
	 Total Energy              =    -268.8695980128967449 [Eh]

	 ================> DF-SCS-MP2 Energies <==================
	-----------------------------------------------------------
	 SCS Same-Spin Scale       =       0.3333333333333333 [-]
	 SCS Opposite-Spin Scale   =       1.2000000000000000 [-]
	 SCS Same-Spin Energy      =      -0.0911068302221210 [Eh]
	 SCS Opposite-Spin Energy  =      -1.0638967765789780 [Eh]
	 SCS Correlation Energy    =      -1.1550036068010989 [Eh]
	 SCS Total Energy          =    -268.8647004818823234 [Eh]
	-----------------------------------------------------------

  Dipole Moment: [D]
     X:    -0.4313      Y:     0.4775      Z:     0.3204     Total:     0.7188

*** Psi4 exiting successfully. Buy a developer a beer!
