                               Psi4 1.3.2 release

  ==> Input File <==

--------------------------------------------------------------------------
#psi4
#
memory 32 gb

molecule  {
0 1
  O        0.1411184    -1.2469762    -0.2832055
  C       -1.0344600    -0.8194530     0.2767900
  C       -1.2574290     0.6116450    -0.1105210
  C       -0.1783580     1.4194390    -0.0692080
  C        1.1257810     0.8237890     0.1750290
  C        1.2576400    -0.5068660    -0.0292480
  H       -0.9620370    -0.9265990     1.3719500
  H       -1.8114290    -1.4891710    -0.0946800
  H       -2.2490060     0.9624120    -0.3801030
  H       -0.2469520     2.4774150    -0.3092500
  H        2.0071080     1.4278200     0.3572680
  H        2.2048620    -1.0348020    -0.0884010
units angstrom
no_reorient  #important for SAPT in psi4, default
symmetry c1  #important for SAPT in psi4, default
}

set PROPERTIES_ORIGIN ["COM"]
properties('MP2/aug-cc-pvtz', properties = ['dipole'])
--------------------------------------------------------------------------

    Molecular point group: c1
  Charge       = 0
  Multiplicity = 1
  Basis Set: AUG-CC-PVTZ
    Blend: AUG-CC-PVTZ
  Basis Set: (AUG-CC-PVTZ AUX)
    Blend: AUG-CC-PVTZ-JKFIT

    Orbital Energies [Eh]
    ---------------------

    Doubly Occupied:

       1A    -20.581896     2A    -11.300909     3A    -11.284415
       4A    -11.238859     5A    -11.229376     6A    -11.227155
       7A     -1.427187     8A     -1.093209     9A     -1.042382
      10A     -0.895713    11A     -0.844459    12A     -0.725140
      13A     -0.707105    14A     -0.658912    15A     -0.638765
      16A     -0.603158    17A     -0.581571    18A     -0.533972
      19A     -0.499021    20A     -0.463978    21A     -0.414972
      22A     -0.302585

  @DF-RHF Final Energy:  -267.73628240042933

   => Energetics <=

    Nuclear Repulsion Energy =            225.5185614379424806
    One-Electron Energy =                -809.9202050397913126
    Two-Electron Energy =                 316.6653612014195005
    Total Energy =                       -267.7362824004293316
  Basis Set: (AUG-CC-PVTZ AUX)
    Blend: AUG-CC-PVTZ-RI
    Molecular point group: c1

    Geometry (in Angstrom), charge = 0, multiplicity = 1:

       Center              X                  Y                   Z               Mass
    ------------   -----------------  -----------------  -----------------  -----------------
         O            0.139295719007    -1.244849649190    -0.274036334579    15.994914619570
         C           -1.036282680993    -0.817326449190     0.285959165421    12.000000000000
         C           -1.259251680993     0.613771550810    -0.101351834579    12.000000000000
         C           -0.180180680993     1.421565550810    -0.060038834579    12.000000000000
         C            1.123958319007     0.825915550810     0.184198165421    12.000000000000
         C            1.255817319007    -0.504739449190    -0.020078834579    12.000000000000
         H           -0.963859680993    -0.924472449190     1.381119165421     1.007825032230
         H           -1.813251680993    -1.487044449190    -0.085510834579     1.007825032230
         H           -2.250828680993     0.964538550810    -0.370933834579     1.007825032230
         H           -0.248774680993     2.479541550810    -0.300080834579     1.007825032230
         H            2.005285319007     1.429946550810     0.366437165421     1.007825032230
         H            2.203039319007    -1.032675449190    -0.079231834579     1.007825032230

  Basis Set: AUG-CC-PVTZ
    Blend: AUG-CC-PVTZ
  Basis Set: (AUG-CC-PVTZ AUX)
    Blend: AUG-CC-PVTZ-JKFIT
	 Reference Energy          =    -267.7362824004293316 [Eh]
	 Singles Energy            =      -0.0000000000000000 [Eh]
	 Same-Spin Energy          =      -0.2738594748266397 [Eh]
	 Opposite-Spin Energy      =      -0.8849832289348263 [Eh]
	 Correlation Energy        =      -1.1588427037614659 [Eh]
	 Total Energy              =    -268.8951251041908108 [Eh]

	 ================> DF-SCS-MP2 Energies <==================
	-----------------------------------------------------------
	 SCS Same-Spin Scale       =       0.3333333333333333 [-]
	 SCS Opposite-Spin Scale   =       1.2000000000000000 [-]
	 SCS Same-Spin Energy      =      -0.0912864916088799 [Eh]
	 SCS Opposite-Spin Energy  =      -1.0619798747217915 [Eh]
	 SCS Correlation Energy    =      -1.1532663663306713 [Eh]
	 SCS Total Energy          =    -268.8895487667600150 [Eh]
	-----------------------------------------------------------

  Dipole Moment: [D]
     X:    -0.1387      Y:     0.4985      Z:     0.3546     Total:     0.6272

*** Psi4 exiting successfully. Buy a developer a beer!
