                               Psi4 1.4a3.dev225

  ==> Input File <==

--------------------------------------------------------------------------
#psi4
#
memory 32 gb

molecule  {
0 1
  O        0.1973020    -1.3235490    -0.2892290
  C       -1.0344600    -0.8194530     0.2767900
  C       -1.2574290     0.6116450    -0.1105210
  C       -0.1943612     1.4074590    -0.0698207
  C        1.1257810     0.8237890     0.1750290
  C        1.2576400    -0.5068660    -0.0292480
  H       -0.9620370    -0.9265990     1.3719500
  H       -1.8114290    -1.4891710    -0.0946800
  H       -2.2490060     0.9624120    -0.3801030
  H       -0.2469520     2.4774150    -0.3092500
  H        2.0071080     1.4278200     0.3572680
  H        2.2048620    -1.0348020    -0.0884010
units angstrom
no_reorient  #important for SAPT in psi4, default
symmetry c1  #important for SAPT in psi4, default
}

set PROPERTIES_ORIGIN ["COM"]
properties('MP2/aug-cc-pvtz', properties = ['dipole'])
--------------------------------------------------------------------------

    Molecular point group: c1
  Charge       = 0
  Multiplicity = 1
  Basis Set: AUG-CC-PVTZ
    Blend: AUG-CC-PVTZ
  Basis Set: (AUG-CC-PVTZ AUX)
    Blend: AUG-CC-PVTZ-JKFIT

    Orbital Energies [Eh]
    ---------------------

    Doubly Occupied:

       1A    -20.586733     2A    -11.300211     3A    -11.290926
       4A    -11.240322     5A    -11.228614     6A    -11.226312
       7A     -1.407137     8A     -1.098187     9A     -1.034752
      10A     -0.899968    11A     -0.838667    12A     -0.717314
      13A     -0.702974    14A     -0.649882    15A     -0.633110
      16A     -0.606043    17A     -0.570184    18A     -0.532024
      19A     -0.509453    20A     -0.468935    21A     -0.419997
      22A     -0.304992

  @DF-RHF Final Energy:  -267.73861728668214

   => Energetics <=

    Nuclear Repulsion Energy =            223.6926201782250416
    One-Electron Energy =                -806.3290007774943433
    Two-Electron Energy =                 314.8977633125871307
    Total Energy =                       -267.7386172866821425
  Basis Set: (AUG-CC-PVTZ AUX)
    Blend: AUG-CC-PVTZ-RI
    Molecular point group: c1

    Geometry (in Angstrom), charge = 0, multiplicity = 1:

       Center              X                  Y                   Z               Mass
    ------------   -----------------  -----------------  -----------------  -----------------
         O            0.186866478640    -1.304741509510    -0.278795872961    15.994914619570
         C           -1.044895521360    -0.800645509510     0.287223127039    12.000000000000
         C           -1.267864521360     0.630452490490    -0.100087872961    12.000000000000
         C           -0.204796721360     1.426266490490    -0.059387572961    12.000000000000
         C            1.115345478640     0.842596490490     0.185462127039    12.000000000000
         C            1.247204478640    -0.488058509510    -0.018814872961    12.000000000000
         H           -0.972472521360    -0.907791509510     1.382383127039     1.007825032230
         H           -1.821864521360    -1.470363509510    -0.084246872961     1.007825032230
         H           -2.259441521360     0.981219490490    -0.369669872961     1.007825032230
         H           -0.257387521360     2.496222490490    -0.298816872961     1.007825032230
         H            1.996672478640     1.446627490490     0.367701127039     1.007825032230
         H            2.194426478640    -1.015994509510    -0.077967872961     1.007825032230

  Basis Set: AUG-CC-PVTZ
    Blend: AUG-CC-PVTZ
  Basis Set: (AUG-CC-PVTZ AUX)
    Blend: AUG-CC-PVTZ-JKFIT
	 Reference Energy          =    -267.7386172866821425 [Eh]
	 Singles Energy            =      -0.0000000000000000 [Eh]
	 Same-Spin Energy          =      -0.2737674999995634 [Eh]
	 Opposite-Spin Energy      =      -0.8861411743688402 [Eh]
	 Correlation Energy        =      -1.1599086743684035 [Eh]
	 Total Energy              =    -268.8985259610505523 [Eh]

	 ================> DF-SCS-MP2 Energies <==================
	-----------------------------------------------------------
	 SCS Same-Spin Scale       =       0.3333333333333333 [-]
	 SCS Opposite-Spin Scale   =       1.2000000000000000 [-]
	 SCS Same-Spin Energy      =      -0.0912558333331878 [Eh]
	 SCS Opposite-Spin Energy  =      -1.0633694092426083 [Eh]
	 SCS Correlation Energy    =      -1.1546252425757961 [Eh]
	 SCS Total Energy          =    -268.8932425292579182 [Eh]
	-----------------------------------------------------------

  Dipole Moment: [D]
     X:    -0.3403      Y:     0.6258      Z:     0.4215     Total:     0.8277

*** Psi4 exiting successfully. Buy a developer a beer!
