                               Psi4 1.4a3.dev225

  ==> Input File <==

--------------------------------------------------------------------------
#psi4
#
memory 32 gb

molecule  {
0 1
  O        0.1973020    -1.3235490    -0.2892290
  C       -1.0344600    -0.8194530     0.2767900
  C       -1.2574290     0.6116450    -0.1105210
  C       -0.1383499     1.4493891    -0.0676763
  C        1.1257810     0.8237890     0.1750290
  C        1.2576400    -0.5068660    -0.0292480
  H       -0.9620370    -0.9265990     1.3719500
  H       -1.8114290    -1.4891710    -0.0946800
  H       -2.2490060     0.9624120    -0.3801030
  H       -0.2469520     2.4774150    -0.3092500
  H        2.0071080     1.4278200     0.3572680
  H        2.2048620    -1.0348020    -0.0884010
units angstrom
no_reorient  #important for SAPT in psi4, default
symmetry c1  #important for SAPT in psi4, default
}

set PROPERTIES_ORIGIN ["COM"]
properties('MP2/aug-cc-pvtz', properties = ['dipole'])
--------------------------------------------------------------------------

    Molecular point group: c1
  Charge       = 0
  Multiplicity = 1
  Basis Set: AUG-CC-PVTZ
    Blend: AUG-CC-PVTZ
  Basis Set: (AUG-CC-PVTZ AUX)
    Blend: AUG-CC-PVTZ-JKFIT

    Orbital Energies [Eh]
    ---------------------

    Doubly Occupied:

       1A    -20.587970     2A    -11.302564     3A    -11.291786
       4A    -11.245117     5A    -11.237795     6A    -11.225881
       7A     -1.407901     8A     -1.093332     9A     -1.033878
      10A     -0.895713    11A     -0.844684    12A     -0.721047
      13A     -0.704011    14A     -0.650543    15A     -0.633138
      16A     -0.604934    17A     -0.576385    18A     -0.533626
      19A     -0.503918    20A     -0.475766    21A     -0.416811
      22A     -0.295234

  @DF-RHF Final Energy:  -267.73192087651364

   => Energetics <=

    Nuclear Repulsion Energy =            223.0279932397867526
    One-Electron Energy =                -804.9557564496602708
    Two-Electron Energy =                 314.1958423333599058
    Total Energy =                       -267.7319208765136409
  Basis Set: (AUG-CC-PVTZ AUX)
    Blend: AUG-CC-PVTZ-RI
    Molecular point group: c1

    Geometry (in Angstrom), charge = 0, multiplicity = 1:

       Center              X                  Y                   Z               Mass
    ------------   -----------------  -----------------  -----------------  -----------------
         O            0.178673885730    -1.310874490533    -0.279109527460    15.994914619570
         C           -1.053088114270    -0.806778490533     0.286909472540    12.000000000000
         C           -1.276057114270     0.624319509467    -0.100401527460    12.000000000000
         C           -0.156978014270     1.462063609467    -0.057556827460    12.000000000000
         C            1.107152885730     0.836463509467     0.185148472540    12.000000000000
         C            1.239011885730    -0.494191490533    -0.019128527460    12.000000000000
         H           -0.980665114270    -0.913924490533     1.382069472540     1.007825032230
         H           -1.830057114270    -1.476496490533    -0.084560527460     1.007825032230
         H           -2.267634114270     0.975086509467    -0.369983527460     1.007825032230
         H           -0.265580114270     2.490089509467    -0.299130527460     1.007825032230
         H            1.988479885730     1.440494509467     0.367387472540     1.007825032230
         H            2.186233885730    -1.022127490533    -0.078281527460     1.007825032230

  Basis Set: AUG-CC-PVTZ
    Blend: AUG-CC-PVTZ
  Basis Set: (AUG-CC-PVTZ AUX)
    Blend: AUG-CC-PVTZ-JKFIT
	 Reference Energy          =    -267.7319208765136409 [Eh]
	 Singles Energy            =      -0.0000000000000000 [Eh]
	 Same-Spin Energy          =      -0.2751517775951534 [Eh]
	 Opposite-Spin Energy      =      -0.8885390834974836 [Eh]
	 Correlation Energy        =      -1.1636908610926369 [Eh]
	 Total Energy              =    -268.8956117376062593 [Eh]

	 ================> DF-SCS-MP2 Energies <==================
	-----------------------------------------------------------
	 SCS Same-Spin Scale       =       0.3333333333333333 [-]
	 SCS Opposite-Spin Scale   =       1.2000000000000000 [-]
	 SCS Same-Spin Energy      =      -0.0917172591983844 [Eh]
	 SCS Opposite-Spin Energy  =      -1.0662469001969803 [Eh]
	 SCS Correlation Energy    =      -1.1579641593953647 [Eh]
	 SCS Total Energy          =    -268.8898850359090034 [Eh]
	-----------------------------------------------------------

  Dipole Moment: [D]
     X:    -0.2997      Y:     0.6125      Z:     0.4135     Total:     0.7975

*** Psi4 exiting successfully. Buy a developer a beer!
