                               Psi4 1.3.2 release

  ==> Input File <==

--------------------------------------------------------------------------
#psi4
#
memory 32 gb

molecule  {
0 1
  O        0.1973020    -1.3235490    -0.2892290
  C       -1.0344600    -0.8194530     0.2767900
  C       -1.2013010     0.5408069    -0.0842189
  C       -0.1783580     1.4194390    -0.0692080
  C        1.1257810     0.8237890     0.1750290
  C        1.2576400    -0.5068660    -0.0292480
  H       -0.9620370    -0.9265990     1.3719500
  H       -1.8114290    -1.4891710    -0.0946800
  H       -2.2490060     0.9624120    -0.3801030
  H       -0.2469520     2.4774150    -0.3092500
  H        2.0071080     1.4278200     0.3572680
  H        2.2048620    -1.0348020    -0.0884010
units angstrom
no_reorient  #important for SAPT in psi4, default
symmetry c1  #important for SAPT in psi4, default
}

set PROPERTIES_ORIGIN ["COM"]
properties('MP2/aug-cc-pvtz', properties = ['dipole'])
--------------------------------------------------------------------------

    Molecular point group: c1
  Charge       = 0
  Multiplicity = 1
  Basis Set: AUG-CC-PVTZ
    Blend: AUG-CC-PVTZ
  Basis Set: (AUG-CC-PVTZ AUX)
    Blend: AUG-CC-PVTZ-JKFIT

    Orbital Energies [Eh]
    ---------------------

    Doubly Occupied:

       1A    -20.585826     2A    -11.299169     3A    -11.288246
       4A    -11.241787     5A    -11.234082     6A    -11.224807
       7A     -1.408914     8A     -1.102664     9A     -1.042792
      10A     -0.901876    11A     -0.838734    12A     -0.722638
      13A     -0.697637    14A     -0.655067    15A     -0.630816
      16A     -0.599957    17A     -0.582577    18A     -0.528374
      19A     -0.509056    20A     -0.470222    21A     -0.418320
      22A     -0.300150

  @DF-RHF Final Energy:  -267.72647330568765

   => Energetics <=

    Nuclear Repulsion Energy =            224.8913954287119168
    One-Electron Energy =                -808.6683196108548373
    Two-Electron Energy =                 316.0504508764552725
    Total Energy =                       -267.7264733056876480
  Basis Set: (AUG-CC-PVTZ AUX)
    Blend: AUG-CC-PVTZ-RI
    Molecular point group: c1

    Geometry (in Angstrom), charge = 0, multiplicity = 1:

       Center              X                  Y                   Z               Mass
    ------------   -----------------  -----------------  -----------------  -----------------
         O            0.176316079744    -1.296132524309    -0.282732614291    15.994914619570
         C           -1.055445920256    -0.792036524309     0.283286385709    12.000000000000
         C           -1.222286920256     0.568223375691    -0.077722514291    12.000000000000
         C           -0.199343920256     1.446855475691    -0.062711614291    12.000000000000
         C            1.104795079744     0.851205475691     0.181525385709    12.000000000000
         C            1.236654079744    -0.479449524309    -0.022751614291    12.000000000000
         H           -0.983022920256    -0.899182524309     1.378446385709     1.007825032230
         H           -1.832414920256    -1.461754524309    -0.088183614291     1.007825032230
         H           -2.269991920256     0.989828475691    -0.373606614291     1.007825032230
         H           -0.267937920256     2.504831475691    -0.302753614291     1.007825032230
         H            1.986122079744     1.455236475691     0.363764385709     1.007825032230
         H            2.183876079744    -1.007385524309    -0.081904614291     1.007825032230

  Basis Set: AUG-CC-PVTZ
    Blend: AUG-CC-PVTZ
  Basis Set: (AUG-CC-PVTZ AUX)
    Blend: AUG-CC-PVTZ-JKFIT
	 Reference Energy          =    -267.7264733056876480 [Eh]
	 Singles Energy            =      -0.0000000000000000 [Eh]
	 Same-Spin Energy          =      -0.2752523902297599 [Eh]
	 Opposite-Spin Energy      =      -0.8878994808554690 [Eh]
	 Correlation Energy        =      -1.1631518710852289 [Eh]
	 Total Energy              =    -268.8896251767728813 [Eh]

	 ================> DF-SCS-MP2 Energies <==================
	-----------------------------------------------------------
	 SCS Same-Spin Scale       =       0.3333333333333333 [-]
	 SCS Opposite-Spin Scale   =       1.2000000000000000 [-]
	 SCS Same-Spin Energy      =      -0.0917507967432533 [Eh]
	 SCS Opposite-Spin Energy  =      -1.0654793770265627 [Eh]
	 SCS Correlation Energy    =      -1.1572301737698161 [Eh]
	 SCS Total Energy          =    -268.8837034794574379 [Eh]
	-----------------------------------------------------------

  Dipole Moment: [D]
     X:    -0.3206      Y:     0.6433      Z:     0.4219     Total:     0.8334

*** Psi4 exiting successfully. Buy a developer a beer!
