                               Psi4 1.4a3.dev225

  ==> Input File <==

--------------------------------------------------------------------------
#psi4
#
memory 32 gb

molecule  {
0 1
  O        0.1973020    -1.3235490    -0.2892290
  C       -1.0344600    -0.8194530     0.2767900
  C       -1.2574290     0.6116450    -0.1105210
  C       -0.1623548     1.4314190    -0.0685953
  C        1.1257810     0.8237890     0.1750290
  C        1.2576400    -0.5068660    -0.0292480
  H       -0.9620370    -0.9265990     1.3719500
  H       -1.8114290    -1.4891710    -0.0946800
  H       -2.2490060     0.9624120    -0.3801030
  H       -0.2469520     2.4774150    -0.3092500
  H        2.0071080     1.4278200     0.3572680
  H        2.2048620    -1.0348020    -0.0884010
units angstrom
no_reorient  #important for SAPT in psi4, default
symmetry c1  #important for SAPT in psi4, default
}

set PROPERTIES_ORIGIN ["COM"]
properties('MP2/aug-cc-pvtz', properties = ['dipole'])
--------------------------------------------------------------------------

    Molecular point group: c1
  Charge       = 0
  Multiplicity = 1
  Basis Set: AUG-CC-PVTZ
    Blend: AUG-CC-PVTZ
  Basis Set: (AUG-CC-PVTZ AUX)
    Blend: AUG-CC-PVTZ-JKFIT

    Orbital Energies [Eh]
    ---------------------

    Doubly Occupied:

       1A    -20.587412     2A    -11.301538     3A    -11.291385
       4A    -11.243080     5A    -11.233982     6A    -11.226019
       7A     -1.407550     8A     -1.094911     9A     -1.034372
      10A     -0.897250    11A     -0.842362    12A     -0.719301
      13A     -0.703665    14A     -0.649826    15A     -0.633143
      16A     -0.605276    17A     -0.573821    18A     -0.532967
      19A     -0.506613    20A     -0.473219    21A     -0.417906
      22A     -0.299453

  @DF-RHF Final Energy:  -267.73647120385147

   => Energetics <=

    Nuclear Repulsion Energy =            223.3051097166443526
    One-Electron Energy =                -805.5330605561072161
    Two-Electron Energy =                 314.4914796356114266
    Total Energy =                       -267.7364712038514654
  Basis Set: (AUG-CC-PVTZ AUX)
    Blend: AUG-CC-PVTZ-RI
    Molecular point group: c1

    Geometry (in Angstrom), charge = 0, multiplicity = 1:

       Center              X                  Y                   Z               Mass
    ------------   -----------------  -----------------  -----------------  -----------------
         O            0.182185005336    -1.308246061736    -0.278975108283    15.994914619570
         C           -1.049576994664    -0.804150061736     0.287043891717    12.000000000000
         C           -1.272545994664     0.626947938264    -0.100267108283    12.000000000000
         C           -0.177471794664     1.446721938264    -0.058341408283    12.000000000000
         C            1.110664005336     0.839091938264     0.185282891717    12.000000000000
         C            1.242523005336    -0.491563061736    -0.018994108283    12.000000000000
         H           -0.977153994664    -0.911296061736     1.382203891717     1.007825032230
         H           -1.826545994664    -1.473868061736    -0.084426108283     1.007825032230
         H           -2.264122994664     0.977714938264    -0.369849108283     1.007825032230
         H           -0.262068994664     2.492717938264    -0.298996108283     1.007825032230
         H            1.991991005336     1.443122938264     0.367521891717     1.007825032230
         H            2.189745005336    -1.019499061736    -0.078147108283     1.007825032230

  Basis Set: AUG-CC-PVTZ
    Blend: AUG-CC-PVTZ
  Basis Set: (AUG-CC-PVTZ AUX)
    Blend: AUG-CC-PVTZ-JKFIT
	 Reference Energy          =    -267.7364712038514654 [Eh]
	 Singles Energy            =      -0.0000000000000000 [Eh]
	 Same-Spin Energy          =      -0.2745054154024374 [Eh]
	 Opposite-Spin Energy      =      -0.8874134959041875 [Eh]
	 Correlation Energy        =      -1.1619189113066248 [Eh]
	 Total Energy              =    -268.8983901151580653 [Eh]

	 ================> DF-SCS-MP2 Energies <==================
	-----------------------------------------------------------
	 SCS Same-Spin Scale       =       0.3333333333333333 [-]
	 SCS Opposite-Spin Scale   =       1.2000000000000000 [-]
	 SCS Same-Spin Energy      =      -0.0915018051341458 [Eh]
	 SCS Opposite-Spin Energy  =      -1.0648961950850249 [Eh]
	 SCS Correlation Energy    =      -1.1563980002191707 [Eh]
	 SCS Total Energy          =    -268.8928692040706210 [Eh]
	-----------------------------------------------------------

  Dipole Moment: [D]
     X:    -0.3163      Y:     0.6191      Z:     0.4168     Total:     0.8106

*** Psi4 exiting successfully. Buy a developer a beer!
