                               Psi4 1.3.2 release

  ==> Input File <==

--------------------------------------------------------------------------
#psi4
#
memory 32 gb

molecule  {
0 1
  O        0.2922204    -1.4285845    -0.3072372
  C       -1.0344600    -0.8194530     0.2767900
  C       -1.2574290     0.6116450    -0.1105210
  C       -0.1783580     1.4194390    -0.0692080
  C        1.1257810     0.8237890     0.1750290
  C        1.2576400    -0.5068660    -0.0292480
  H       -0.9620370    -0.9265990     1.3719500
  H       -1.8114290    -1.4891710    -0.0946800
  H       -2.2490060     0.9624120    -0.3801030
  H       -0.2469520     2.4774150    -0.3092500
  H        2.0071080     1.4278200     0.3572680
  H        2.2048620    -1.0348020    -0.0884010
units angstrom
no_reorient  #important for SAPT in psi4, default
symmetry c1  #important for SAPT in psi4, default
}

set PROPERTIES_ORIGIN ["COM"]
properties('MP2/aug-cc-pvtz', properties = ['dipole'])
--------------------------------------------------------------------------

    Molecular point group: c1
  Charge       = 0
  Multiplicity = 1
  Basis Set: AUG-CC-PVTZ
    Blend: AUG-CC-PVTZ
  Basis Set: (AUG-CC-PVTZ AUX)
    Blend: AUG-CC-PVTZ-JKFIT

    Orbital Energies [Eh]
    ---------------------

    Doubly Occupied:

       1A    -20.591797     2A    -11.302942     3A    -11.301335
       4A    -11.246057     5A    -11.234232     6A    -11.225026
       7A     -1.382428     8A     -1.101777     9A     -1.025331
      10A     -0.903956    11A     -0.832914    12A     -0.711002
      13A     -0.701804    14A     -0.638760    15A     -0.625667
      16A     -0.606817    17A     -0.558151    18A     -0.531936
      19A     -0.517380    20A     -0.474843    21A     -0.421664
      22A     -0.302565

  @DF-RHF Final Energy:  -267.72195251803942

   => Energetics <=

    Nuclear Repulsion Energy =            220.6562090409234713
    One-Electron Energy =                -800.2795552808007642
    Two-Electron Energy =                 311.9013937218378487
    Total Energy =                       -267.7219525180394157
  Basis Set: (AUG-CC-PVTZ AUX)
    Blend: AUG-CC-PVTZ-RI
    Molecular point group: c1

    Geometry (in Angstrom), charge = 0, multiplicity = 1:

       Center              X                  Y                   Z               Mass
    ------------   -----------------  -----------------  -----------------  -----------------
         O            0.260938812943    -1.391051522735    -0.293382804782    15.994914619570
         C           -1.065741587057    -0.781920022735     0.290644395218    12.000000000000
         C           -1.288710587057     0.649177977265    -0.096666604782    12.000000000000
         C           -0.209639587057     1.456971977265    -0.055353604782    12.000000000000
         C            1.094499412943     0.861321977265     0.188883395218    12.000000000000
         C            1.226358412943    -0.469333022735    -0.015393604782    12.000000000000
         H           -0.993318587057    -0.889066022735     1.385804395218     1.007825032230
         H           -1.842710587057    -1.451638022735    -0.080825604782     1.007825032230
         H           -2.280287587057     0.999944977265    -0.366248604782     1.007825032230
         H           -0.278233587057     2.514947977265    -0.295395604782     1.007825032230
         H            1.975826412943     1.465352977265     0.371122395218     1.007825032230
         H            2.173580412943    -0.997269022735    -0.074546604782     1.007825032230

  Basis Set: AUG-CC-PVTZ
    Blend: AUG-CC-PVTZ
  Basis Set: (AUG-CC-PVTZ AUX)
    Blend: AUG-CC-PVTZ-JKFIT
	 Reference Energy          =    -267.7219525180394157 [Eh]
	 Singles Energy            =      -0.0000000000000000 [Eh]
	 Same-Spin Energy          =      -0.2753845966735230 [Eh]
	 Opposite-Spin Energy      =      -0.8909087786620735 [Eh]
	 Correlation Energy        =      -1.1662933753355964 [Eh]
	 Total Energy              =    -268.8882458933750286 [Eh]

	 ================> DF-SCS-MP2 Energies <==================
	-----------------------------------------------------------
	 SCS Same-Spin Scale       =       0.3333333333333333 [-]
	 SCS Opposite-Spin Scale   =       1.2000000000000000 [-]
	 SCS Same-Spin Energy      =      -0.0917948655578410 [Eh]
	 SCS Opposite-Spin Energy  =      -1.0690905343944881 [Eh]
	 SCS Correlation Energy    =      -1.1608853999523290 [Eh]
	 SCS Total Energy          =    -268.8828379179917647 [Eh]
	-----------------------------------------------------------

  Dipole Moment: [D]
     X:    -0.6017      Y:     0.7897      Z:     0.5081     Total:     1.1153

*** Psi4 exiting successfully. Buy a developer a beer!
