                               Psi4 1.3.2 release

  ==> Input File <==

--------------------------------------------------------------------------
#psi4
#
memory 32 gb

molecule  {
0 1
  O        0.1973020    -1.3235490    -0.2892290
  C       -1.0344600    -0.8194530     0.2767900
  C       -1.2574290     0.6116450    -0.1105210
  C       -0.1783580     1.4194390    -0.0692080
  C        1.1257810     0.8237890     0.1750290
  C        1.2576400    -0.5068660    -0.0292480
  H       -0.9686044    -0.9168829     1.2726400
  H       -1.8114290    -1.4891710    -0.0946800
  H       -2.2490060     0.9624120    -0.3801030
  H       -0.2469520     2.4774150    -0.3092500
  H        2.0071080     1.4278200     0.3572680
  H        2.2048620    -1.0348020    -0.0884010
units angstrom
no_reorient  #important for SAPT in psi4, default
symmetry c1  #important for SAPT in psi4, default
}

set PROPERTIES_ORIGIN ["COM"]
properties('MP2/aug-cc-pvtz', properties = ['dipole'])
--------------------------------------------------------------------------

    Molecular point group: c1
  Charge       = 0
  Multiplicity = 1
  Basis Set: AUG-CC-PVTZ
    Blend: AUG-CC-PVTZ
  Basis Set: (AUG-CC-PVTZ AUX)
    Blend: AUG-CC-PVTZ-JKFIT

    Orbital Energies [Eh]
    ---------------------

    Doubly Occupied:

       1A    -20.585356     2A    -11.300307     3A    -11.279043
       4A    -11.241179     5A    -11.230395     6A    -11.225361
       7A     -1.406646     8A     -1.096201     9A     -1.037832
      10A     -0.905272    11A     -0.839827    12A     -0.721295
      13A     -0.712162    14A     -0.649014    15A     -0.635210
      16A     -0.604986    17A     -0.571611    18A     -0.537830
      19A     -0.510098    20A     -0.472862    21A     -0.418394
      22A     -0.302039

  @DF-RHF Final Energy:  -267.73303616406639

   => Energetics <=

    Nuclear Repulsion Energy =            223.9920208851193308
    One-Electron Energy =                -806.8842734292325076
    Two-Electron Energy =                 315.1592163800467574
    Total Energy =                       -267.7330361640663909
  Basis Set: (AUG-CC-PVTZ AUX)
    Blend: AUG-CC-PVTZ-RI
    Molecular point group: c1

    Geometry (in Angstrom), charge = 0, multiplicity = 1:

       Center              X                  Y                   Z               Mass
    ------------   -----------------  -----------------  -----------------  -----------------
         O            0.184606417752    -1.306613140891    -0.277665539025    15.994914619570
         C           -1.047155582248    -0.802517140891     0.288353460975    12.000000000000
         C           -1.270124582248     0.628580859109    -0.098957539025    12.000000000000
         C           -0.191053582248     1.436374859109    -0.057644539025    12.000000000000
         C            1.113085417752     0.840724859109     0.186592460975    12.000000000000
         C            1.244944417752    -0.489930140891    -0.017684539025    12.000000000000
         H           -0.981299982248    -0.899947040891     1.284203460975     1.007825032230
         H           -1.824124582248    -1.472235140891    -0.083116539025     1.007825032230
         H           -2.261701582248     0.979347859109    -0.368539539025     1.007825032230
         H           -0.259647582248     2.494350859109    -0.297686539025     1.007825032230
         H            1.994412417752     1.444755859109     0.368831460975     1.007825032230
         H            2.192166417752    -1.017866140891    -0.076837539025     1.007825032230

  Basis Set: AUG-CC-PVTZ
    Blend: AUG-CC-PVTZ
  Basis Set: (AUG-CC-PVTZ AUX)
    Blend: AUG-CC-PVTZ-JKFIT
	 Reference Energy          =    -267.7330361640663909 [Eh]
	 Singles Energy            =      -0.0000000000000000 [Eh]
	 Same-Spin Energy          =      -0.2738904392894767 [Eh]
	 Opposite-Spin Energy      =      -0.8860752659947237 [Eh]
	 Correlation Energy        =      -1.1599657052842005 [Eh]
	 Total Energy              =    -268.8930018693505986 [Eh]

	 ================> DF-SCS-MP2 Energies <==================
	-----------------------------------------------------------
	 SCS Same-Spin Scale       =       0.3333333333333333 [-]
	 SCS Opposite-Spin Scale   =       1.2000000000000000 [-]
	 SCS Same-Spin Energy      =      -0.0912968130964922 [Eh]
	 SCS Opposite-Spin Energy  =      -1.0632903191936685 [Eh]
	 SCS Correlation Energy    =      -1.1545871322901606 [Eh]
	 SCS Total Energy          =    -268.8876232963565371 [Eh]
	-----------------------------------------------------------

  Dipole Moment: [D]
     X:    -0.3597      Y:     0.5841      Z:     0.4867     Total:     0.8411

*** Psi4 exiting successfully. Buy a developer a beer!
