                               Psi4 1.3.2 release

  ==> Input File <==

--------------------------------------------------------------------------
#psi4
#
memory 32 gb

molecule  {
0 1
  O        0.1973020    -1.3235490    -0.2892290
  C       -1.0599446    -0.8241621     0.2731772
  C       -1.2574290     0.6116450    -0.1105210
  C       -0.1783580     1.4194390    -0.0692080
  C        1.1257810     0.8237890     0.1750290
  C        1.2576400    -0.5068660    -0.0292480
  H       -0.9620370    -0.9265990     1.3719500
  H       -1.8114290    -1.4891710    -0.0946800
  H       -2.2490060     0.9624120    -0.3801030
  H       -0.2469520     2.4774150    -0.3092500
  H        2.0071080     1.4278200     0.3572680
  H        2.2048620    -1.0348020    -0.0884010
units angstrom
no_reorient  #important for SAPT in psi4, default
symmetry c1  #important for SAPT in psi4, default
}

set PROPERTIES_ORIGIN ["COM"]
properties('MP2/aug-cc-pvtz', properties = ['dipole'])
--------------------------------------------------------------------------

    Molecular point group: c1
  Charge       = 0
  Multiplicity = 1
  Basis Set: AUG-CC-PVTZ
    Blend: AUG-CC-PVTZ
  Basis Set: (AUG-CC-PVTZ AUX)
    Blend: AUG-CC-PVTZ-JKFIT

    Orbital Energies [Eh]
    ---------------------

    Doubly Occupied:

       1A    -20.585050     2A    -11.300508     3A    -11.291727
       4A    -11.242188     5A    -11.231603     6A    -11.225110
       7A     -1.401016     8A     -1.095570     9A     -1.034628
      10A     -0.900004    11A     -0.839024    12A     -0.718048
      13A     -0.701171    14A     -0.647615    15A     -0.633775
      16A     -0.605065    17A     -0.571400    18A     -0.530926
      19A     -0.512749    20A     -0.470415    21A     -0.418235
      22A     -0.301423

  @DF-RHF Final Energy:  -267.73725812111127

   => Energetics <=

    Nuclear Repulsion Energy =            223.1221547709080824
    One-Electron Energy =                -805.2043218413988370
    Two-Electron Energy =                 314.3449089493794872
    Total Energy =                       -267.7372581211112674
  Basis Set: (AUG-CC-PVTZ AUX)
    Blend: AUG-CC-PVTZ-RI
    Molecular point group: c1

    Geometry (in Angstrom), charge = 0, multiplicity = 1:

       Center              X                  Y                   Z               Mass
    ------------   -----------------  -----------------  -----------------  -----------------
         O            0.188253292559    -1.305805000694    -0.278357057972    15.994914619570
         C           -1.068993307441    -0.806418100694     0.284049142028    12.000000000000
         C           -1.266477707441     0.629388999306    -0.099649057972    12.000000000000
         C           -0.187406707441     1.437182999306    -0.058336057972    12.000000000000
         C            1.116732292559     0.841532999306     0.185900942028    12.000000000000
         C            1.248591292559    -0.489122000694    -0.018376057972    12.000000000000
         H           -0.971085707441    -0.908855000694     1.382821942028     1.007825032230
         H           -1.820477707441    -1.471427000694    -0.083808057972     1.007825032230
         H           -2.258054707441     0.980155999306    -0.369231057972     1.007825032230
         H           -0.256000707441     2.495158999306    -0.298378057972     1.007825032230
         H            1.998059292559     1.445563999306     0.368139942028     1.007825032230
         H            2.195813292559    -1.017058000694    -0.077529057972     1.007825032230

  Basis Set: AUG-CC-PVTZ
    Blend: AUG-CC-PVTZ
  Basis Set: (AUG-CC-PVTZ AUX)
    Blend: AUG-CC-PVTZ-JKFIT
	 Reference Energy          =    -267.7372581211112674 [Eh]
	 Singles Energy            =      -0.0000000000000000 [Eh]
	 Same-Spin Energy          =      -0.2741114624778761 [Eh]
	 Opposite-Spin Energy      =      -0.8868987853935568 [Eh]
	 Correlation Energy        =      -1.1610102478714328 [Eh]
	 Total Energy              =    -268.8982683689827127 [Eh]

	 ================> DF-SCS-MP2 Energies <==================
	-----------------------------------------------------------
	 SCS Same-Spin Scale       =       0.3333333333333333 [-]
	 SCS Opposite-Spin Scale   =       1.2000000000000000 [-]
	 SCS Same-Spin Energy      =      -0.0913704874926254 [Eh]
	 SCS Opposite-Spin Energy  =      -1.0642785424722681 [Eh]
	 SCS Correlation Energy    =      -1.1556490299648934 [Eh]
	 SCS Total Energy          =    -268.8929071510761446 [Eh]
	-----------------------------------------------------------

  Dipole Moment: [D]
     X:    -0.3874      Y:     0.6053      Z:     0.4276     Total:     0.8363

*** Psi4 exiting successfully. Buy a developer a beer!
