                               Psi4 1.3.2 release

  ==> Input File <==

--------------------------------------------------------------------------
#psi4
#
memory 32 gb

molecule  {
0 1
  O        0.1973020    -1.3235490    -0.2892290
  C       -1.0344600    -0.8194530     0.2767900
  C       -1.2574290     0.6116450    -0.1105210
  C       -0.1783580     1.4194390    -0.0692080
  C        1.1470471     0.8691488     0.1668241
  C        1.2576400    -0.5068660    -0.0292480
  H       -0.9620370    -0.9265990     1.3719500
  H       -1.8114290    -1.4891710    -0.0946800
  H       -2.2490060     0.9624120    -0.3801030
  H       -0.2469520     2.4774150    -0.3092500
  H        2.0071080     1.4278200     0.3572680
  H        2.2048620    -1.0348020    -0.0884010
units angstrom
no_reorient  #important for SAPT in psi4, default
symmetry c1  #important for SAPT in psi4, default
}

set PROPERTIES_ORIGIN ["COM"]
properties('MP2/aug-cc-pvtz', properties = ['dipole'])
--------------------------------------------------------------------------

    Molecular point group: c1
  Charge       = 0
  Multiplicity = 1
  Basis Set: AUG-CC-PVTZ
    Blend: AUG-CC-PVTZ
  Basis Set: (AUG-CC-PVTZ AUX)
    Blend: AUG-CC-PVTZ-JKFIT

    Orbital Energies [Eh]
    ---------------------

    Doubly Occupied:

       1A    -20.591158     2A    -11.309126     3A    -11.291806
       4A    -11.242088     5A    -11.230414     6A    -11.228391
       7A     -1.409406     8A     -1.093958     9A     -1.031204
      10A     -0.896243    11A     -0.843522    12A     -0.717459
      13A     -0.707190    14A     -0.650050    15A     -0.637794
      16A     -0.602750    17A     -0.574119    18A     -0.536525
      19A     -0.511890    20A     -0.467157    21A     -0.417542
      22A     -0.297399

  @DF-RHF Final Energy:  -267.73304413963189

   => Energetics <=

    Nuclear Repulsion Energy =            222.7541178761530603
    One-Electron Energy =                -804.3999423320212827
    Two-Electron Energy =                 313.9127803162363648
    Total Energy =                       -267.7330441396318861
  Basis Set: (AUG-CC-PVTZ AUX)
    Blend: AUG-CC-PVTZ-RI
    Molecular point group: c1

    Geometry (in Angstrom), charge = 0, multiplicity = 1:

       Center              X                  Y                   Z               Mass
    ------------   -----------------  -----------------  -----------------  -----------------
         O            0.181415217860    -1.313128417847    -0.277685386258    15.994914619570
         C           -1.050346782140    -0.809032417847     0.288333613742    12.000000000000
         C           -1.273315782140     0.622065582153    -0.098977386258    12.000000000000
         C           -0.194244782140     1.429859582153    -0.057664386258    12.000000000000
         C            1.131160317860     0.879569382153     0.178367713742    12.000000000000
         C            1.241753217860    -0.496445417847    -0.017704386258    12.000000000000
         H           -0.977923782140    -0.916178417847     1.383493613742     1.007825032230
         H           -1.827315782140    -1.478750417847    -0.083136386258     1.007825032230
         H           -2.264892782140     0.972832582153    -0.368559386258     1.007825032230
         H           -0.262838782140     2.487835582153    -0.297706386258     1.007825032230
         H            1.991221217860     1.438240582153     0.368811613742     1.007825032230
         H            2.188975217860    -1.024381417847    -0.076857386258     1.007825032230

  Basis Set: AUG-CC-PVTZ
    Blend: AUG-CC-PVTZ
  Basis Set: (AUG-CC-PVTZ AUX)
    Blend: AUG-CC-PVTZ-JKFIT
	 Reference Energy          =    -267.7330441396318861 [Eh]
	 Singles Energy            =      -0.0000000000000000 [Eh]
	 Same-Spin Energy          =      -0.2746273519401782 [Eh]
	 Opposite-Spin Energy      =      -0.8879047965399713 [Eh]
	 Correlation Energy        =      -1.1625321484801496 [Eh]
	 Total Energy              =    -268.8955762881120108 [Eh]

	 ================> DF-SCS-MP2 Energies <==================
	-----------------------------------------------------------
	 SCS Same-Spin Scale       =       0.3333333333333333 [-]
	 SCS Opposite-Spin Scale   =       1.2000000000000000 [-]
	 SCS Same-Spin Energy      =      -0.0915424506467261 [Eh]
	 SCS Opposite-Spin Energy  =      -1.0654857558479656 [Eh]
	 SCS Correlation Energy    =      -1.1570282064946915 [Eh]
	 SCS Total Energy          =    -268.8900723461266011 [Eh]
	-----------------------------------------------------------

  Dipole Moment: [D]
     X:    -0.3207      Y:     0.5673      Z:     0.4333     Total:     0.7826

*** Psi4 exiting successfully. Buy a developer a beer!
