                               Psi4 1.3.2 release

  ==> Input File <==

--------------------------------------------------------------------------
#psi4
#
memory 32 gb

molecule  {
0 1
  O        0.1973020    -1.3235490    -0.2892290
  C       -1.0344600    -0.8194530     0.2767900
  C       -1.2574290     0.6116450    -0.1105210
  C       -0.1783580     1.4194390    -0.0692080
  C        1.0322207     0.8118064     0.1708715
  C        1.2576400    -0.5068660    -0.0292480
  H       -0.9620370    -0.9265990     1.3719500
  H       -1.8114290    -1.4891710    -0.0946800
  H       -2.2490060     0.9624120    -0.3801030
  H       -0.2469520     2.4774150    -0.3092500
  H        2.0071080     1.4278200     0.3572680
  H        2.2048620    -1.0348020    -0.0884010
units angstrom
no_reorient  #important for SAPT in psi4, default
symmetry c1  #important for SAPT in psi4, default
}

set PROPERTIES_ORIGIN ["COM"]
properties('MP2/aug-cc-pvtz', properties = ['dipole'])
--------------------------------------------------------------------------

    Molecular point group: c1
  Charge       = 0
  Multiplicity = 1
  Basis Set: AUG-CC-PVTZ
    Blend: AUG-CC-PVTZ
  Basis Set: (AUG-CC-PVTZ AUX)
    Blend: AUG-CC-PVTZ-JKFIT

    Orbital Energies [Eh]
    ---------------------

    Doubly Occupied:

       1A    -20.584282     2A    -11.301690     3A    -11.291039
       4A    -11.236059     5A    -11.231387     6A    -11.227220
       7A     -1.407177     8A     -1.109994     9A     -1.032987
      10A     -0.896543    11A     -0.848021    12A     -0.722733
      13A     -0.698477    14A     -0.652371    15A     -0.626722
      16A     -0.609015    17A     -0.569132    18A     -0.536321
      19A     -0.497774    20A     -0.472340    21A     -0.427815
      22A     -0.296050

  @DF-RHF Final Energy:  -267.72490577630344

   => Energetics <=

    Nuclear Repulsion Energy =            224.8616619743700085
    One-Electron Energy =                -808.6228362216520509
    Two-Electron Energy =                 316.0362684709785981
    Total Energy =                       -267.7249057763034443
  Basis Set: (AUG-CC-PVTZ AUX)
    Blend: AUG-CC-PVTZ-RI
    Molecular point group: c1

    Geometry (in Angstrom), charge = 0, multiplicity = 1:

       Center              X                  Y                   Z               Mass
    ------------   -----------------  -----------------  -----------------  -----------------
         O            0.198210506499    -1.304741129216    -0.278277386453    15.994914619570
         C           -1.033551493501    -0.800645129216     0.287741613547    12.000000000000
         C           -1.256520493501     0.630452870784    -0.099569386453    12.000000000000
         C           -0.177449493501     1.438246870784    -0.058256386453    12.000000000000
         C            1.033129206499     0.830614270784     0.181823113547    12.000000000000
         C            1.258548506499    -0.488058129216    -0.018296386453    12.000000000000
         H           -0.961128493501    -0.907791129216     1.382901613547     1.007825032230
         H           -1.810520493501    -1.470363129216    -0.083728386453     1.007825032230
         H           -2.248097493501     0.981219870784    -0.369151386453     1.007825032230
         H           -0.246043493501     2.496222870784    -0.298298386453     1.007825032230
         H            2.008016506499     1.446627870784     0.368219613547     1.007825032230
         H            2.205770506499    -1.015994129216    -0.077449386453     1.007825032230

  Basis Set: AUG-CC-PVTZ
    Blend: AUG-CC-PVTZ
  Basis Set: (AUG-CC-PVTZ AUX)
    Blend: AUG-CC-PVTZ-JKFIT
	 Reference Energy          =    -267.7249057763034443 [Eh]
	 Singles Energy            =      -0.0000000000000000 [Eh]
	 Same-Spin Energy          =      -0.2758671757582464 [Eh]
	 Opposite-Spin Energy      =      -0.8885986363470753 [Eh]
	 Correlation Energy        =      -1.1644658121053215 [Eh]
	 Total Energy              =    -268.8893715884087783 [Eh]

	 ================> DF-SCS-MP2 Energies <==================
	-----------------------------------------------------------
	 SCS Same-Spin Scale       =       0.3333333333333333 [-]
	 SCS Opposite-Spin Scale   =       1.2000000000000000 [-]
	 SCS Same-Spin Energy      =      -0.0919557252527488 [Eh]
	 SCS Opposite-Spin Energy  =      -1.0663183636164904 [Eh]
	 SCS Correlation Energy    =      -1.1582740888692391 [Eh]
	 SCS Total Energy          =    -268.8831798651726785 [Eh]
	-----------------------------------------------------------

  Dipole Moment: [D]
     X:    -0.3060      Y:     0.5893      Z:     0.3842     Total:     0.7671

*** Psi4 exiting successfully. Buy a developer a beer!
