                               Psi4 1.3.2 release

  ==> Input File <==

--------------------------------------------------------------------------
#psi4
#
memory 32 gb

molecule  {
0 1
  O        0.1973020    -1.3235490    -0.2892290
  C       -1.0344600    -0.8194530     0.2767900
  C       -1.2574290     0.6116450    -0.1105210
  C       -0.1783580     1.4194390    -0.0692080
  C        1.1257810     0.8237890     0.1750290
  C        1.2576400    -0.5068660    -0.0292480
  H       -0.9620370    -0.9265990     1.3719500
  H       -1.8114290    -1.4891710    -0.0946800
  H       -2.2490060     0.9624120    -0.3801030
  H       -0.2532622     2.5747420    -0.3313323
  H        2.0071080     1.4278200     0.3572680
  H        2.2048620    -1.0348020    -0.0884010
units angstrom
no_reorient  #important for SAPT in psi4, default
symmetry c1  #important for SAPT in psi4, default
}

set PROPERTIES_ORIGIN ["COM"]
properties('MP2/aug-cc-pvtz', properties = ['dipole'])
--------------------------------------------------------------------------

    Molecular point group: c1
  Charge       = 0
  Multiplicity = 1
  Basis Set: AUG-CC-PVTZ
    Blend: AUG-CC-PVTZ
  Basis Set: (AUG-CC-PVTZ AUX)
    Blend: AUG-CC-PVTZ-JKFIT

    Orbital Energies [Eh]
    ---------------------

    Doubly Occupied:

       1A    -20.587631     2A    -11.301702     3A    -11.292025
       4A    -11.252877     5A    -11.232157     6A    -11.227347
       7A     -1.407974     8A     -1.095259     9A     -1.035397
      10A     -0.895585    11A     -0.838822    12A     -0.712984
      13A     -0.701425    14A     -0.650192    15A     -0.633062
      16A     -0.598392    17A     -0.567307    18A     -0.532850
      19A     -0.507879    20A     -0.467940    21A     -0.419592
      22A     -0.302894

  @DF-RHF Final Energy:  -267.73085784162083

   => Energetics <=

    Nuclear Repulsion Energy =            223.0464885719710253
    One-Electron Energy =                -805.0321065518953674
    Two-Electron Energy =                 314.2547601383034817
    Total Energy =                       -267.7308578416208320
  Basis Set: (AUG-CC-PVTZ AUX)
    Blend: AUG-CC-PVTZ-RI
    Molecular point group: c1

    Geometry (in Angstrom), charge = 0, multiplicity = 1:

       Center              X                  Y                   Z               Mass
    ------------   -----------------  -----------------  -----------------  -----------------
         O            0.184603258236    -1.307689377497    -0.278614225521    15.994914619570
         C           -1.047158741764    -0.803593377497     0.287404774479    12.000000000000
         C           -1.270127741764     0.627504622503    -0.099906225521    12.000000000000
         C           -0.191056741764     1.435298622503    -0.058593225521    12.000000000000
         C            1.113082258236     0.839648622503     0.185643774479    12.000000000000
         C            1.244941258236    -0.491006377497    -0.018633225521    12.000000000000
         H           -0.974735741764    -0.910739377497     1.382564774479     1.007825032230
         H           -1.824127741764    -1.473311377497    -0.084065225521     1.007825032230
         H           -2.261704741764     0.978271622503    -0.369488225521     1.007825032230
         H           -0.265960941764     2.590601622503    -0.320717525521     1.007825032230
         H            1.994409258236     1.443679622503     0.367882774479     1.007825032230
         H            2.192163258236    -1.018942377497    -0.077786225521     1.007825032230

  Basis Set: AUG-CC-PVTZ
    Blend: AUG-CC-PVTZ
  Basis Set: (AUG-CC-PVTZ AUX)
    Blend: AUG-CC-PVTZ-JKFIT
	 Reference Energy          =    -267.7308578416208320 [Eh]
	 Singles Energy            =      -0.0000000000000000 [Eh]
	 Same-Spin Energy          =      -0.2742938938247481 [Eh]
	 Opposite-Spin Energy      =      -0.8875536270907061 [Eh]
	 Correlation Energy        =      -1.1618475209154542 [Eh]
	 Total Energy              =    -268.8927053625362760 [Eh]

	 ================> DF-SCS-MP2 Energies <==================
	-----------------------------------------------------------
	 SCS Same-Spin Scale       =       0.3333333333333333 [-]
	 SCS Opposite-Spin Scale   =       1.2000000000000000 [-]
	 SCS Same-Spin Energy      =      -0.0914312979415827 [Eh]
	 SCS Opposite-Spin Energy  =      -1.0650643525088472 [Eh]
	 SCS Correlation Energy    =      -1.1564956504504300 [Eh]
	 SCS Total Energy          =    -268.8873534920712700 [Eh]
	-----------------------------------------------------------

  Dipole Moment: [D]
     X:    -0.3175      Y:     0.5759      Z:     0.4258     Total:     0.7834

*** Psi4 exiting successfully. Buy a developer a beer!
