                               Psi4 1.3.2 release

  ==> Input File <==

--------------------------------------------------------------------------
#psi4
#
memory 32 gb

molecule  {
0 1
  O        0.1973020    -1.3235490    -0.2892290
  C       -1.0344600    -0.8194530     0.2767900
  C       -1.2574290     0.6116450    -0.1105210
  C       -0.1783580     1.4194390    -0.0692080
  C        0.9858241     0.8034011     0.1684257
  C        1.2576400    -0.5068660    -0.0292480
  H       -0.9620370    -0.9265990     1.3719500
  H       -1.8114290    -1.4891710    -0.0946800
  H       -2.2490060     0.9624120    -0.3801030
  H       -0.2469520     2.4774150    -0.3092500
  H        2.0071080     1.4278200     0.3572680
  H        2.2048620    -1.0348020    -0.0884010
units angstrom
no_reorient  #important for SAPT in psi4, default
symmetry c1  #important for SAPT in psi4, default
}

set PROPERTIES_ORIGIN ["COM"]
properties('MP2/aug-cc-pvtz', properties = ['dipole'])
--------------------------------------------------------------------------

    Molecular point group: c1
  Charge       = 0
  Multiplicity = 1
  Basis Set: AUG-CC-PVTZ
    Blend: AUG-CC-PVTZ
  Basis Set: (AUG-CC-PVTZ AUX)
    Blend: AUG-CC-PVTZ-JKFIT

    Orbital Energies [Eh]
    ---------------------

    Doubly Occupied:

       1A    -20.583130     2A    -11.302637     3A    -11.291206
       4A    -11.233545     5A    -11.231570     6A    -11.228156
       7A     -1.407475     8A     -1.118100     9A     -1.032369
      10A     -0.896288    11A     -0.851838    12A     -0.725592
      13A     -0.696808    14A     -0.655351    15A     -0.625512
      16A     -0.611128    17A     -0.568010    18A     -0.536505
      19A     -0.493325    20A     -0.468812    21A     -0.432599
      22A     -0.293127

  @DF-RHF Final Energy:  -267.70999899775217

   => Energetics <=

    Nuclear Repulsion Energy =            225.5886624793229487
    One-Electron Energy =                -810.0311586008489257
    Two-Electron Energy =                 316.7324971237738396
    Total Energy =                       -267.7099989977521659
  Basis Set: (AUG-CC-PVTZ AUX)
    Blend: AUG-CC-PVTZ-RI
    Molecular point group: c1

    Geometry (in Angstrom), charge = 0, multiplicity = 1:

       Center              X                  Y                   Z               Mass
    ------------   -----------------  -----------------  -----------------  -----------------
         O            0.204996788128    -1.303511712988    -0.277919647145    15.994914619570
         C           -1.026765211872    -0.799415712988     0.288099352855    12.000000000000
         C           -1.249734211872     0.631682287012    -0.099211647145    12.000000000000
         C           -0.170663211872     1.439476287012    -0.057898647145    12.000000000000
         C            0.993518888128     0.823438387012     0.179735052855    12.000000000000
         C            1.265334788128    -0.486828712988    -0.017938647145    12.000000000000
         H           -0.954342211872    -0.906561712988     1.383259352855     1.007825032230
         H           -1.803734211872    -1.469133712988    -0.083370647145     1.007825032230
         H           -2.241311211872     0.982449287012    -0.368793647145     1.007825032230
         H           -0.239257211872     2.497452287012    -0.297940647145     1.007825032230
         H            2.014802788128     1.447857287012     0.368577352855     1.007825032230
         H            2.212556788128    -1.014764712988    -0.077091647145     1.007825032230

  Basis Set: AUG-CC-PVTZ
    Blend: AUG-CC-PVTZ
  Basis Set: (AUG-CC-PVTZ AUX)
    Blend: AUG-CC-PVTZ-JKFIT
	 Reference Energy          =    -267.7099989977521659 [Eh]
	 Singles Energy            =      -0.0000000000000000 [Eh]
	 Same-Spin Energy          =      -0.2769606643100941 [Eh]
	 Opposite-Spin Energy      =      -0.8900358252497618 [Eh]
	 Correlation Energy        =      -1.1669964895598559 [Eh]
	 Total Energy              =    -268.8769954873120014 [Eh]

	 ================> DF-SCS-MP2 Energies <==================
	-----------------------------------------------------------
	 SCS Same-Spin Scale       =       0.3333333333333333 [-]
	 SCS Opposite-Spin Scale   =       1.2000000000000000 [-]
	 SCS Same-Spin Energy      =      -0.0923202214366980 [Eh]
	 SCS Opposite-Spin Energy  =      -1.0680429902997142 [Eh]
	 SCS Correlation Energy    =      -1.1603632117364122 [Eh]
	 SCS Total Energy          =    -268.8703622094885759 [Eh]
	-----------------------------------------------------------

  Dipole Moment: [D]
     X:    -0.3149      Y:     0.5660      Z:     0.3638     Total:     0.7429

*** Psi4 exiting successfully. Buy a developer a beer!
