                               Psi4 1.3.2 release

  ==> Input File <==

--------------------------------------------------------------------------
#psi4
#
memory 32 gb

molecule  {
0 1
  O        0.1973020    -1.3235490    -0.2892290
  C       -1.0344600    -0.8194530     0.2767900
  C       -1.2555105     0.6356774    -0.0086895
  C       -0.1783580     1.4194390    -0.0692080
  C        1.1257810     0.8237890     0.1750290
  C        1.2576400    -0.5068660    -0.0292480
  H       -0.9620370    -0.9265990     1.3719500
  H       -1.8114290    -1.4891710    -0.0946800
  H       -2.2490060     0.9624120    -0.3801030
  H       -0.2469520     2.4774150    -0.3092500
  H        2.0071080     1.4278200     0.3572680
  H        2.2048620    -1.0348020    -0.0884010
units angstrom
no_reorient  #important for SAPT in psi4, default
symmetry c1  #important for SAPT in psi4, default
}

set PROPERTIES_ORIGIN ["COM"]
properties('MP2/aug-cc-pvtz', properties = ['dipole'])
--------------------------------------------------------------------------

    Molecular point group: c1
  Charge       = 0
  Multiplicity = 1
  Basis Set: AUG-CC-PVTZ
    Blend: AUG-CC-PVTZ
  Basis Set: (AUG-CC-PVTZ AUX)
    Blend: AUG-CC-PVTZ-JKFIT

    Orbital Energies [Eh]
    ---------------------

    Doubly Occupied:

       1A    -20.587520     2A    -11.301259     3A    -11.290938
       4A    -11.240194     5A    -11.231565     6A    -11.226036
       7A     -1.407432     8A     -1.099513     9A     -1.034508
      10A     -0.900592    11A     -0.840061    12A     -0.718013
      13A     -0.699745    14A     -0.652001    15A     -0.631649
      16A     -0.606285    17A     -0.570195    18A     -0.531145
      19A     -0.512006    20A     -0.467219    21A     -0.420648
      22A     -0.303936

  @DF-RHF Final Energy:  -267.73565849883749

   => Energetics <=

    Nuclear Repulsion Energy =            223.5324347602122543
    One-Electron Energy =                -805.9912693863775530
    Two-Electron Energy =                 314.7231761273278039
    Total Energy =                       -267.7356584988374948
  Basis Set: (AUG-CC-PVTZ AUX)
    Blend: AUG-CC-PVTZ-RI
    Molecular point group: c1

    Geometry (in Angstrom), charge = 0, multiplicity = 1:

       Center              X                  Y                   Z               Mass
    ------------   -----------------  -----------------  -----------------  -----------------
         O            0.184245129156    -1.310008927565    -0.293780056985    15.994914619570
         C           -1.047516870844    -0.805912927565     0.272238943015    12.000000000000
         C           -1.268567370844     0.649217472435    -0.013240556985    12.000000000000
         C           -0.191414870844     1.432979072435    -0.073759056985    12.000000000000
         C            1.112724129156     0.837329072435     0.170477943015    12.000000000000
         C            1.244583129156    -0.493325927565    -0.033799056985    12.000000000000
         H           -0.975093870844    -0.913058927565     1.367398943015     1.007825032230
         H           -1.824485870844    -1.475630927565    -0.099231056985     1.007825032230
         H           -2.262062870844     0.975952072435    -0.384654056985     1.007825032230
         H           -0.260008870844     2.490955072435    -0.313801056985     1.007825032230
         H            1.994051129156     1.441360072435     0.352716943015     1.007825032230
         H            2.191805129156    -1.021261927565    -0.092952056985     1.007825032230

  Basis Set: AUG-CC-PVTZ
    Blend: AUG-CC-PVTZ
  Basis Set: (AUG-CC-PVTZ AUX)
    Blend: AUG-CC-PVTZ-JKFIT
	 Reference Energy          =    -267.7356584988374948 [Eh]
	 Singles Energy            =      -0.0000000000000000 [Eh]
	 Same-Spin Energy          =      -0.2739641278935114 [Eh]
	 Opposite-Spin Energy      =      -0.8865451053536296 [Eh]
	 Correlation Energy        =      -1.1605092332471409 [Eh]
	 Total Energy              =    -268.8961677320846206 [Eh]

	 ================> DF-SCS-MP2 Energies <==================
	-----------------------------------------------------------
	 SCS Same-Spin Scale       =       0.3333333333333333 [-]
	 SCS Opposite-Spin Scale   =       1.2000000000000000 [-]
	 SCS Same-Spin Energy      =      -0.0913213759645038 [Eh]
	 SCS Opposite-Spin Energy  =      -1.0638541264243555 [Eh]
	 SCS Correlation Energy    =      -1.1551755023888592 [Eh]
	 SCS Total Energy          =    -268.8908340012263807 [Eh]
	-----------------------------------------------------------

  Dipole Moment: [D]
     X:    -0.2902      Y:     0.6049      Z:     0.3092     Total:     0.7387

*** Psi4 exiting successfully. Buy a developer a beer!
