                               Psi4 1.4a3.dev225

  ==> Input File <==

--------------------------------------------------------------------------
#psi4
#
memory 32 gb

molecule  {
0 1
  O        0.1973020    -1.3235490    -0.2892290
  C       -1.0344600    -0.8194530     0.2767900
  C       -1.2574290     0.6116450    -0.1105210
  C       -0.1783580     1.4194390    -0.0692080
  C        1.1706158     0.8033112     0.1834256
  C        1.2576400    -0.5068660    -0.0292480
  H       -0.9620370    -0.9265990     1.3719500
  H       -1.8114290    -1.4891710    -0.0946800
  H       -2.2490060     0.9624120    -0.3801030
  H       -0.2469520     2.4774150    -0.3092500
  H        2.0071080     1.4278200     0.3572680
  H        2.2048620    -1.0348020    -0.0884010
units angstrom
no_reorient  #important for SAPT in psi4, default
symmetry c1  #important for SAPT in psi4, default
}

set PROPERTIES_ORIGIN ["COM"]
properties('MP2/aug-cc-pvtz', properties = ['dipole'])
--------------------------------------------------------------------------

    Molecular point group: c1
  Charge       = 0
  Multiplicity = 1
  Basis Set: AUG-CC-PVTZ
    Blend: AUG-CC-PVTZ
  Basis Set: (AUG-CC-PVTZ AUX)
    Blend: AUG-CC-PVTZ-JKFIT

    Orbital Energies [Eh]
    ---------------------

    Doubly Occupied:

       1A    -20.586883     2A    -11.296516     3A    -11.291017
       4A    -11.244709     5A    -11.231931     6A    -11.224775
       7A     -1.406778     8A     -1.091112     9A     -1.037978
      10A     -0.901506    11A     -0.835083    12A     -0.717202
      13A     -0.704744    14A     -0.651906    15A     -0.634463
      16A     -0.606392    17A     -0.571492    18A     -0.526305
      19A     -0.510364    20A     -0.470020    21A     -0.414848
      22A     -0.308754

  @DF-RHF Final Energy:  -267.73736190129705

   => Energetics <=

    Nuclear Repulsion Energy =            223.1384759861402358
    One-Electron Energy =                -805.2221193214045343
    Two-Electron Energy =                 314.3462814339671922
    Total Energy =                       -267.7373619012970494
  Basis Set: (AUG-CC-PVTZ AUX)
    Blend: AUG-CC-PVTZ-RI
    Molecular point group: c1

    Geometry (in Angstrom), charge = 0, multiplicity = 1:

       Center              X                  Y                   Z               Mass
    ------------   -----------------  -----------------  -----------------  -----------------
         O            0.177967899827    -1.303498563604    -0.280113634329    15.994914619570
         C           -1.053794100173    -0.799402563604     0.285905365671    12.000000000000
         C           -1.276763100173     0.631695436396    -0.101405634329    12.000000000000
         C           -0.197692100173     1.439489436396    -0.060092634329    12.000000000000
         C            1.151281699827     0.823361636396     0.192540965671    12.000000000000
         C            1.238305899827    -0.486815563604    -0.020132634329    12.000000000000
         H           -0.981371100173    -0.906548563604     1.381065365671     1.007825032230
         H           -1.830763100173    -1.469120563604    -0.085564634329     1.007825032230
         H           -2.268340100173     0.982462436396    -0.370987634329     1.007825032230
         H           -0.266286100173     2.497465436396    -0.300134634329     1.007825032230
         H            1.987773899827     1.447870436396     0.366383365671     1.007825032230
         H            2.185527899827    -1.014751563604    -0.079285634329     1.007825032230

  Basis Set: AUG-CC-PVTZ
    Blend: AUG-CC-PVTZ
  Basis Set: (AUG-CC-PVTZ AUX)
    Blend: AUG-CC-PVTZ-JKFIT
	 Reference Energy          =    -267.7373619012970494 [Eh]
	 Singles Energy            =      -0.0000000000000000 [Eh]
	 Same-Spin Energy          =      -0.2731311728630144 [Eh]
	 Opposite-Spin Energy      =      -0.8857169805517593 [Eh]
	 Correlation Energy        =      -1.1588481534147737 [Eh]
	 Total Energy              =    -268.8962100547118439 [Eh]

	 ================> DF-SCS-MP2 Energies <==================
	-----------------------------------------------------------
	 SCS Same-Spin Scale       =       0.3333333333333333 [-]
	 SCS Opposite-Spin Scale   =       1.2000000000000000 [-]
	 SCS Same-Spin Energy      =      -0.0910437242876714 [Eh]
	 SCS Opposite-Spin Energy  =      -1.0628603766621112 [Eh]
	 SCS Correlation Energy    =      -1.1539041009497826 [Eh]
	 SCS Total Energy          =    -268.8912660022468231 [Eh]
	-----------------------------------------------------------

  Dipole Moment: [D]
     X:    -0.3601      Y:     0.6682      Z:     0.4278     Total:     0.8713

*** Psi4 exiting successfully. Buy a developer a beer!
