                               Psi4 1.4a3.dev225

  ==> Input File <==

--------------------------------------------------------------------------
#psi4
#
memory 32 gb

molecule  {
0 1
  O        0.1973020    -1.3235490    -0.2892290
  C       -1.0344600    -0.8194530     0.2767900
  C       -1.2574290     0.6116450    -0.1105210
  C       -0.1783580     1.4194390    -0.0692080
  C        1.1257810     0.8237890     0.1750290
  C        1.2527660    -0.4576803    -0.0216972
  H       -0.9620370    -0.9265990     1.3719500
  H       -1.8114290    -1.4891710    -0.0946800
  H       -2.2490060     0.9624120    -0.3801030
  H       -0.2469520     2.4774150    -0.3092500
  H        2.0071080     1.4278200     0.3572680
  H        2.2048620    -1.0348020    -0.0884010
units angstrom
no_reorient  #important for SAPT in psi4, default
symmetry c1  #important for SAPT in psi4, default
}

set PROPERTIES_ORIGIN ["COM"]
properties('MP2/aug-cc-pvtz', properties = ['dipole'])
--------------------------------------------------------------------------

    Molecular point group: c1
  Charge       = 0
  Multiplicity = 1
  Basis Set: AUG-CC-PVTZ
    Blend: AUG-CC-PVTZ
  Basis Set: (AUG-CC-PVTZ AUX)
    Blend: AUG-CC-PVTZ-JKFIT

    Orbital Energies [Eh]
    ---------------------

    Doubly Occupied:

       1A    -20.582867     2A    -11.294979     3A    -11.288554
       4A    -11.242195     5A    -11.232986     6A    -11.222556
       7A     -1.395424     8A     -1.102425     9A     -1.038562
      10A     -0.901520    11A     -0.835325    12A     -0.714847
      13A     -0.702485    14A     -0.646808    15A     -0.630306
      16A     -0.601690    17A     -0.572795    18A     -0.528006
      19A     -0.503857    20A     -0.473022    21A     -0.422874
      22A     -0.310772

  @DF-RHF Final Energy:  -267.73497935476303

   => Energetics <=

    Nuclear Repulsion Energy =            223.8321860057896231
    One-Electron Energy =                -806.6446219296705067
    Two-Electron Energy =                 315.0774565691178850
    Total Energy =                       -267.7349793547630270
  Basis Set: (AUG-CC-PVTZ AUX)
    Blend: AUG-CC-PVTZ-RI
    Molecular point group: c1

    Geometry (in Angstrom), charge = 0, multiplicity = 1:

       Center              X                  Y                   Z               Mass
    ------------   -----------------  -----------------  -----------------  -----------------
         O            0.185238646310    -1.313688019949    -0.279989921880    15.994914619570
         C           -1.046523353690    -0.809592019949     0.286029078120    12.000000000000
         C           -1.269492353690     0.621505980051    -0.101281921880    12.000000000000
         C           -0.190421353690     1.429299980051    -0.059968921880    12.000000000000
         C            1.113717646310     0.833649980051     0.184268078120    12.000000000000
         C            1.240702646310    -0.447819319949    -0.012458121880    12.000000000000
         H           -0.974100353690    -0.916738019949     1.381189078120     1.007825032230
         H           -1.823492353690    -1.479310019949    -0.085440921880     1.007825032230
         H           -2.261069353690     0.972272980051    -0.370863921880     1.007825032230
         H           -0.259015353690     2.487275980051    -0.300010921880     1.007825032230
         H            1.995044646310     1.437680980051     0.366507078120     1.007825032230
         H            2.192798646310    -1.024941019949    -0.079161921880     1.007825032230

  Basis Set: AUG-CC-PVTZ
    Blend: AUG-CC-PVTZ
  Basis Set: (AUG-CC-PVTZ AUX)
    Blend: AUG-CC-PVTZ-JKFIT
	 Reference Energy          =    -267.7349793547630270 [Eh]
	 Singles Energy            =      -0.0000000000000000 [Eh]
	 Same-Spin Energy          =      -0.2737250044589672 [Eh]
	 Opposite-Spin Energy      =      -0.8864330945369624 [Eh]
	 Correlation Energy        =      -1.1601580989959297 [Eh]
	 Total Energy              =    -268.8951374537589345 [Eh]

	 ================> DF-SCS-MP2 Energies <==================
	-----------------------------------------------------------
	 SCS Same-Spin Scale       =       0.3333333333333333 [-]
	 SCS Opposite-Spin Scale   =       1.2000000000000000 [-]
	 SCS Same-Spin Energy      =      -0.0912416681529891 [Eh]
	 SCS Opposite-Spin Energy  =      -1.0637197134443548 [Eh]
	 SCS Correlation Energy    =      -1.1549613815973439 [Eh]
	 SCS Total Energy          =    -268.8899407363603586 [Eh]
	-----------------------------------------------------------

  Dipole Moment: [D]
     X:    -0.2898      Y:     0.7922      Z:     0.4522     Total:     0.9571

*** Psi4 exiting successfully. Buy a developer a beer!
