                               Psi4 1.3.2 release

  ==> Input File <==

--------------------------------------------------------------------------
#psi4
#
memory 32 gb

molecule  {
0 1
  O        0.1973020    -1.3235490    -0.2892290
  C       -0.9533880    -0.7027834     0.3290676
  C       -1.2574290     0.6116450    -0.1105210
  C       -0.1783580     1.4194390    -0.0692080
  C        1.1257810     0.8237890     0.1750290
  C        1.2576400    -0.5068660    -0.0292480
  H       -0.9620370    -0.9265990     1.3719500
  H       -1.8114290    -1.4891710    -0.0946800
  H       -2.2490060     0.9624120    -0.3801030
  H       -0.2469520     2.4774150    -0.3092500
  H        2.0071080     1.4278200     0.3572680
  H        2.2048620    -1.0348020    -0.0884010
units angstrom
no_reorient  #important for SAPT in psi4, default
symmetry c1  #important for SAPT in psi4, default
}

set PROPERTIES_ORIGIN ["COM"]
properties('MP2/aug-cc-pvtz', properties = ['dipole'])
--------------------------------------------------------------------------

    Molecular point group: c1
  Charge       = 0
  Multiplicity = 1
  Basis Set: AUG-CC-PVTZ
    Blend: AUG-CC-PVTZ
  Basis Set: (AUG-CC-PVTZ AUX)
    Blend: AUG-CC-PVTZ-JKFIT

    Orbital Energies [Eh]
    ---------------------

    Doubly Occupied:

       1A    -20.592830     2A    -11.303176     3A    -11.294013
       4A    -11.244114     5A    -11.228586     6A    -11.227414
       7A     -1.414979     8A     -1.109976     9A     -1.037905
      10A     -0.895475    11A     -0.844868    12A     -0.720925
      13A     -0.712802    14A     -0.655158    15A     -0.629472
      16A     -0.609516    17A     -0.570566    18A     -0.539367
      19A     -0.489831    20A     -0.469874    21A     -0.418347
      22A     -0.306309

  @DF-RHF Final Energy:  -267.71001286080133

   => Energetics <=

    Nuclear Repulsion Energy =            225.1728268241180047
    One-Electron Energy =                -809.1346710776897453
    Two-Electron Energy =                 316.2518313927703844
    Total Energy =                       -267.7100128608013279
  Basis Set: (AUG-CC-PVTZ AUX)
    Blend: AUG-CC-PVTZ-RI
    Molecular point group: c1

    Geometry (in Angstrom), charge = 0, multiplicity = 1:

       Center              X                  Y                   Z               Mass
    ------------   -----------------  -----------------  -----------------  -----------------
         O            0.172667600998    -1.323558673204    -0.286531967228    15.994914619570
         C           -0.978022399002    -0.702793073204     0.331764632772    12.000000000000
         C           -1.282063399002     0.611635326796    -0.107823967228    12.000000000000
         C           -0.202992399002     1.419429326796    -0.066510967228    12.000000000000
         C            1.101146600998     0.823779326796     0.177726032772    12.000000000000
         C            1.233005600998    -0.506875673204    -0.026550967228    12.000000000000
         H           -0.986671399002    -0.926608673204     1.374647032772     1.007825032230
         H           -1.836063399002    -1.489180673204    -0.091982967228     1.007825032230
         H           -2.273640399002     0.962402326796    -0.377405967228     1.007825032230
         H           -0.271586399002     2.477405326796    -0.306552967228     1.007825032230
         H            1.982473600998     1.427810326796     0.359965032772     1.007825032230
         H            2.180227600998    -1.034811673204    -0.085703967228     1.007825032230

  Basis Set: AUG-CC-PVTZ
    Blend: AUG-CC-PVTZ
  Basis Set: (AUG-CC-PVTZ AUX)
    Blend: AUG-CC-PVTZ-JKFIT
	 Reference Energy          =    -267.7100128608013279 [Eh]
	 Singles Energy            =      -0.0000000000000000 [Eh]
	 Same-Spin Energy          =      -0.2763183718987222 [Eh]
	 Opposite-Spin Energy      =      -0.8902166356917696 [Eh]
	 Correlation Energy        =      -1.1665350075904917 [Eh]
	 Total Energy              =    -268.8765478683918104 [Eh]

	 ================> DF-SCS-MP2 Energies <==================
	-----------------------------------------------------------
	 SCS Same-Spin Scale       =       0.3333333333333333 [-]
	 SCS Opposite-Spin Scale   =       1.2000000000000000 [-]
	 SCS Same-Spin Energy      =      -0.0921061239662407 [Eh]
	 SCS Opposite-Spin Energy  =      -1.0682599628301235 [Eh]
	 SCS Correlation Energy    =      -1.1603660867963641 [Eh]
	 SCS Total Energy          =    -268.8703789475977146 [Eh]
	-----------------------------------------------------------

  Dipole Moment: [D]
     X:    -0.1125      Y:     0.8233      Z:     0.4869     Total:     0.9631

*** Psi4 exiting successfully. Buy a developer a beer!
