                               Psi4 1.3.2 release

  ==> Input File <==

--------------------------------------------------------------------------
#psi4
#
memory 32 gb

molecule  {
0 1
  O        0.1973020    -1.3235490    -0.2892290
  C       -1.0585247    -0.8596352     0.2579557
  C       -1.2574290     0.6116450    -0.1105210
  C       -0.1783580     1.4194390    -0.0692080
  C        1.1257810     0.8237890     0.1750290
  C        1.2576400    -0.5068660    -0.0292480
  H       -0.9620370    -0.9265990     1.3719500
  H       -1.8114290    -1.4891710    -0.0946800
  H       -2.2490060     0.9624120    -0.3801030
  H       -0.2469520     2.4774150    -0.3092500
  H        2.0071080     1.4278200     0.3572680
  H        2.2048620    -1.0348020    -0.0884010
units angstrom
no_reorient  #important for SAPT in psi4, default
symmetry c1  #important for SAPT in psi4, default
}

set PROPERTIES_ORIGIN ["COM"]
properties('MP2/aug-cc-pvtz', properties = ['dipole'])
--------------------------------------------------------------------------

    Molecular point group: c1
  Charge       = 0
  Multiplicity = 1
  Basis Set: AUG-CC-PVTZ
    Blend: AUG-CC-PVTZ
  Basis Set: (AUG-CC-PVTZ AUX)
    Blend: AUG-CC-PVTZ-JKFIT

    Orbital Energies [Eh]
    ---------------------

    Doubly Occupied:

       1A    -20.585605     2A    -11.300621     3A    -11.291704
       4A    -11.241136     5A    -11.233141     6A    -11.225683
       7A     -1.405330     8A     -1.093139     9A     -1.033845
      10A     -0.900869    11A     -0.838988    12A     -0.719706
      13A     -0.699980    14A     -0.648971    15A     -0.638199
      16A     -0.603285    17A     -0.574134    18A     -0.530211
      19A     -0.514180    20A     -0.464675    21A     -0.418408
      22A     -0.301037

  @DF-RHF Final Energy:  -267.73602424093752

   => Energetics <=

    Nuclear Repulsion Energy =            222.9582033214018111
    One-Electron Energy =                -804.8627627343765880
    Two-Electron Energy =                 314.1685351720372523
    Total Energy =                       -267.7360242409375246
  Basis Set: (AUG-CC-PVTZ AUX)
    Blend: AUG-CC-PVTZ-RI
    Molecular point group: c1

    Geometry (in Angstrom), charge = 0, multiplicity = 1:

       Center              X                  Y                   Z               Mass
    ------------   -----------------  -----------------  -----------------  -----------------
         O            0.188045608347    -1.300616464318    -0.276130658068    15.994914619570
         C           -1.067781091653    -0.836702664318     0.271054041932    12.000000000000
         C           -1.266685391653     0.634577535682    -0.097422658068    12.000000000000
         C           -0.187614391653     1.442371535682    -0.056109658068    12.000000000000
         C            1.116524608347     0.846721535682     0.188127341932    12.000000000000
         C            1.248383608347    -0.483933464318    -0.016149658068    12.000000000000
         H           -0.971293391653    -0.903666464318     1.385048341932     1.007825032230
         H           -1.820685391653    -1.466238464318    -0.081581658068     1.007825032230
         H           -2.258262391653     0.985344535682    -0.367004658068     1.007825032230
         H           -0.256208391653     2.500347535682    -0.296151658068     1.007825032230
         H            1.997851608347     1.450752535682     0.370366341932     1.007825032230
         H            2.195605608347    -1.011869464318    -0.075302658068     1.007825032230

  Basis Set: AUG-CC-PVTZ
    Blend: AUG-CC-PVTZ
  Basis Set: (AUG-CC-PVTZ AUX)
    Blend: AUG-CC-PVTZ-JKFIT
	 Reference Energy          =    -267.7360242409375246 [Eh]
	 Singles Energy            =      -0.0000000000000000 [Eh]
	 Same-Spin Energy          =      -0.2736940836153013 [Eh]
	 Opposite-Spin Energy      =      -0.8862910923298417 [Eh]
	 Correlation Energy        =      -1.1599851759451432 [Eh]
	 Total Energy              =    -268.8960094168826913 [Eh]

	 ================> DF-SCS-MP2 Energies <==================
	-----------------------------------------------------------
	 SCS Same-Spin Scale       =       0.3333333333333333 [-]
	 SCS Opposite-Spin Scale   =       1.2000000000000000 [-]
	 SCS Same-Spin Energy      =      -0.0912313612051004 [Eh]
	 SCS Opposite-Spin Energy  =      -1.0635493107958101 [Eh]
	 SCS Correlation Energy    =      -1.1547806720009106 [Eh]
	 SCS Total Energy          =    -268.8908049129384494 [Eh]
	-----------------------------------------------------------

  Dipole Moment: [D]
     X:    -0.3756      Y:     0.5677      Z:     0.3899     Total:     0.7844

*** Psi4 exiting successfully. Buy a developer a beer!
