                               Psi4 1.3.2 release

  ==> Input File <==

--------------------------------------------------------------------------
#psi4
#
memory 32 gb

molecule  {
0 1
  O        0.1973020    -1.3235490    -0.2892290
  C       -1.0344600    -0.8194530     0.2767900
  C       -1.2566051     0.6245409    -0.0598103
  C       -0.1783580     1.4194390    -0.0692080
  C        1.1257810     0.8237890     0.1750290
  C        1.2576400    -0.5068660    -0.0292480
  H       -0.9620370    -0.9265990     1.3719500
  H       -1.8114290    -1.4891710    -0.0946800
  H       -2.2490060     0.9624120    -0.3801030
  H       -0.2469520     2.4774150    -0.3092500
  H        2.0071080     1.4278200     0.3572680
  H        2.2048620    -1.0348020    -0.0884010
units angstrom
no_reorient  #important for SAPT in psi4, default
symmetry c1  #important for SAPT in psi4, default
}

set PROPERTIES_ORIGIN ["COM"]
properties('MP2/aug-cc-pvtz', properties = ['dipole'])
--------------------------------------------------------------------------

    Molecular point group: c1
  Charge       = 0
  Multiplicity = 1
  Basis Set: AUG-CC-PVTZ
    Blend: AUG-CC-PVTZ
  Basis Set: (AUG-CC-PVTZ AUX)
    Blend: AUG-CC-PVTZ-JKFIT

    Orbital Energies [Eh]
    ---------------------

    Doubly Occupied:

       1A    -20.587232     2A    -11.300880     3A    -11.291052
       4A    -11.240475     5A    -11.231260     6A    -11.226015
       7A     -1.407318     8A     -1.098039     9A     -1.034519
      10A     -0.899669    11A     -0.840280    12A     -0.718072
      13A     -0.701705    14A     -0.650993    15A     -0.632240
      16A     -0.606284    17A     -0.571100    18A     -0.531939
      19A     -0.510148    20A     -0.469395    21A     -0.419919
      22A     -0.303098

  @DF-RHF Final Energy:  -267.73792007669209

   => Energetics <=

    Nuclear Repulsion Energy =            223.5333646413834288
    One-Electron Energy =                -805.9993001595255464
    Two-Electron Energy =                 314.7280154414500544
    Total Energy =                       -267.7379200766920917
  Basis Set: (AUG-CC-PVTZ AUX)
    Blend: AUG-CC-PVTZ-RI
    Molecular point group: c1

    Geometry (in Angstrom), charge = 0, multiplicity = 1:

       Center              X                  Y                   Z               Mass
    ------------   -----------------  -----------------  -----------------  -----------------
         O            0.184405232782    -1.308380027487    -0.286302781799    15.994914619570
         C           -1.047356767218    -0.804284027487     0.279716218201    12.000000000000
         C           -1.269501867218     0.639709872513    -0.056884081799    12.000000000000
         C           -0.191254767218     1.434607972513    -0.066281781799    12.000000000000
         C            1.112884232782     0.838957972513     0.177955218201    12.000000000000
         C            1.244743232782    -0.491697027487    -0.026321781799    12.000000000000
         H           -0.974933767218    -0.911430027487     1.374876218201     1.007825032230
         H           -1.824325767218    -1.474002027487    -0.091753781799     1.007825032230
         H           -2.261902767218     0.977580972513    -0.377176781799     1.007825032230
         H           -0.259848767218     2.492583972513    -0.306323781799     1.007825032230
         H            1.994211232782     1.442988972513     0.360194218201     1.007825032230
         H            2.191965232782    -1.019633027487    -0.085474781799     1.007825032230

  Basis Set: AUG-CC-PVTZ
    Blend: AUG-CC-PVTZ
  Basis Set: (AUG-CC-PVTZ AUX)
    Blend: AUG-CC-PVTZ-JKFIT
	 Reference Energy          =    -267.7379200766920917 [Eh]
	 Singles Energy            =      -0.0000000000000000 [Eh]
	 Same-Spin Energy          =      -0.2739738583600356 [Eh]
	 Opposite-Spin Energy      =      -0.8864871117295123 [Eh]
	 Correlation Energy        =      -1.1604609700895478 [Eh]
	 Total Energy              =    -268.8983810467816511 [Eh]

	 ================> DF-SCS-MP2 Energies <==================
	-----------------------------------------------------------
	 SCS Same-Spin Scale       =       0.3333333333333333 [-]
	 SCS Opposite-Spin Scale   =       1.2000000000000000 [-]
	 SCS Same-Spin Energy      =      -0.0913246194533452 [Eh]
	 SCS Opposite-Spin Energy  =      -1.0637845340754148 [Eh]
	 SCS Correlation Energy    =      -1.1551091535287601 [Eh]
	 SCS Total Energy          =    -268.8930292302208613 [Eh]
	-----------------------------------------------------------

  Dipole Moment: [D]
     X:    -0.3179      Y:     0.6136      Z:     0.3629     Total:     0.7806

*** Psi4 exiting successfully. Buy a developer a beer!
