                               Psi4 1.3.2 release

  ==> Input File <==

--------------------------------------------------------------------------
#psi4
#
memory 32 gb

molecule  {
0 1
  O        0.1973020    -1.3235490    -0.2892290
  C       -1.0344600    -0.8194530     0.2767900
  C       -1.2574290     0.6116450    -0.1105210
  C       -0.0183257     1.5392394    -0.0630811
  C        1.1257810     0.8237890     0.1750290
  C        1.2576400    -0.5068660    -0.0292480
  H       -0.9620370    -0.9265990     1.3719500
  H       -1.8114290    -1.4891710    -0.0946800
  H       -2.2490060     0.9624120    -0.3801030
  H       -0.2469520     2.4774150    -0.3092500
  H        2.0071080     1.4278200     0.3572680
  H        2.2048620    -1.0348020    -0.0884010
units angstrom
no_reorient  #important for SAPT in psi4, default
symmetry c1  #important for SAPT in psi4, default
}

set PROPERTIES_ORIGIN ["COM"]
properties('MP2/aug-cc-pvtz', properties = ['dipole'])
--------------------------------------------------------------------------

    Molecular point group: c1
  Charge       = 0
  Multiplicity = 1
  Basis Set: AUG-CC-PVTZ
    Blend: AUG-CC-PVTZ
  Basis Set: (AUG-CC-PVTZ AUX)
    Blend: AUG-CC-PVTZ-JKFIT

    Orbital Energies [Eh]
    ---------------------

    Doubly Occupied:

       1A    -20.591169     2A    -11.307630     3A    -11.294315
       4A    -11.255115     5A    -11.254089     6A    -11.226473
       7A     -1.409994     8A     -1.093383     9A     -1.030302
      10A     -0.895838    11A     -0.849914    12A     -0.731623
      13A     -0.705067    14A     -0.664916    15A     -0.632857
      16A     -0.604651    17A     -0.583887    18A     -0.536287
      19A     -0.492099    20A     -0.472890    21A     -0.415741
      22A     -0.274664

  @DF-RHF Final Energy:  -267.68018508922228

   => Energetics <=

    Nuclear Repulsion Energy =            221.7686458831911125
    One-Electron Energy =                -802.2518531549594627
    Two-Electron Energy =                 312.8030221825461012
    Total Energy =                       -267.6801850892222774
  Basis Set: (AUG-CC-PVTZ AUX)
    Blend: AUG-CC-PVTZ-RI
    Molecular point group: c1

    Geometry (in Angstrom), charge = 0, multiplicity = 1:

       Center              X                  Y                   Z               Mass
    ------------   -----------------  -----------------  -----------------  -----------------
         O            0.161118331584    -1.324016605262    -0.279781652602    15.994914619570
         C           -1.070643668416    -0.819920605262     0.286237347398    12.000000000000
         C           -1.293612668416     0.611177394738    -0.101073652602    12.000000000000
         C           -0.054509368416     1.538771794738    -0.053633752602    12.000000000000
         C            1.089597331584     0.823321394738     0.184476347398    12.000000000000
         C            1.221456331584    -0.507333605262    -0.019800652602    12.000000000000
         H           -0.998220668416    -0.927066605262     1.381397347398     1.007825032230
         H           -1.847612668416    -1.489638605262    -0.085232652602     1.007825032230
         H           -2.285189668416     0.961944394738    -0.370655652602     1.007825032230
         H           -0.283135668416     2.476947394738    -0.299802652602     1.007825032230
         H            1.970924331584     1.427352394738     0.366715347398     1.007825032230
         H            2.168678331584    -1.035269605262    -0.078953652602     1.007825032230

  Basis Set: AUG-CC-PVTZ
    Blend: AUG-CC-PVTZ
  Basis Set: (AUG-CC-PVTZ AUX)
    Blend: AUG-CC-PVTZ-JKFIT
	 Reference Energy          =    -267.6801850892222774 [Eh]
	 Singles Energy            =      -0.0000000000000000 [Eh]
	 Same-Spin Energy          =      -0.2794764879275944 [Eh]
	 Opposite-Spin Energy      =      -0.8962789820946759 [Eh]
	 Correlation Energy        =      -1.1757554700222703 [Eh]
	 Total Energy              =    -268.8559405592445728 [Eh]

	 ================> DF-SCS-MP2 Energies <==================
	-----------------------------------------------------------
	 SCS Same-Spin Scale       =       0.3333333333333333 [-]
	 SCS Opposite-Spin Scale   =       1.2000000000000000 [-]
	 SCS Same-Spin Energy      =      -0.0931588293091981 [Eh]
	 SCS Opposite-Spin Energy  =      -1.0755347785136111 [Eh]
	 SCS Correlation Energy    =      -1.1686936078228092 [Eh]
	 SCS Total Energy          =    -268.8488786970451088 [Eh]
	-----------------------------------------------------------

  Dipole Moment: [D]
     X:    -0.2308      Y:     0.5725      Z:     0.3985     Total:     0.7347

*** Psi4 exiting successfully. Buy a developer a beer!
