                               Psi4 1.3.2 release

  ==> Input File <==

--------------------------------------------------------------------------
#psi4
#
memory 32 gb

molecule  {
0 1
  O        0.2911709    -1.4308366    -0.2958819
  C       -1.0344600    -0.8194530     0.2767900
  C       -1.2574290     0.6116450    -0.1105210
  C       -0.1783580     1.4194390    -0.0692080
  C        1.1257810     0.8237890     0.1750290
  C        1.2576400    -0.5068660    -0.0292480
  H       -0.9620370    -0.9265990     1.3719500
  H       -1.8114290    -1.4891710    -0.0946800
  H       -2.2490060     0.9624120    -0.3801030
  H       -0.2469520     2.4774150    -0.3092500
  H        2.0071080     1.4278200     0.3572680
  H        2.2048620    -1.0348020    -0.0884010
units angstrom
no_reorient  #important for SAPT in psi4, default
symmetry c1  #important for SAPT in psi4, default
}

set PROPERTIES_ORIGIN ["COM"]
properties('MP2/aug-cc-pvtz', properties = ['dipole'])
--------------------------------------------------------------------------

    Molecular point group: c1
  Charge       = 0
  Multiplicity = 1
  Basis Set: AUG-CC-PVTZ
    Blend: AUG-CC-PVTZ
  Basis Set: (AUG-CC-PVTZ AUX)
    Blend: AUG-CC-PVTZ-JKFIT

    Orbital Energies [Eh]
    ---------------------

    Doubly Occupied:

       1A    -20.591985     2A    -11.302416     3A    -11.301531
       4A    -11.246050     5A    -11.234164     6A    -11.225059
       7A     -1.383286     8A     -1.101749     9A     -1.025560
      10A     -0.903781    11A     -0.833434    12A     -0.711046
      13A     -0.701494    14A     -0.639331    15A     -0.626307
      16A     -0.606949    17A     -0.558485    18A     -0.531082
      19A     -0.517228    20A     -0.475483    21A     -0.421880
      22A     -0.302391

  @DF-RHF Final Energy:  -267.72256042271874

   => Energetics <=

    Nuclear Repulsion Energy =            220.7028321854480168
    One-Electron Energy =                -800.3694076940987543
    Two-Electron Energy =                 311.9440150859320511
    Total Energy =                       -267.7225604227187432
  Basis Set: (AUG-CC-PVTZ AUX)
    Blend: AUG-CC-PVTZ-RI
    Molecular point group: c1

    Geometry (in Angstrom), charge = 0, multiplicity = 1:

       Center              X                  Y                   Z               Mass
    ------------   -----------------  -----------------  -----------------  -----------------
         O            0.260093923881    -1.392864552423    -0.284241338590    15.994914619570
         C           -1.065536976119    -0.781480952423     0.288430561410    12.000000000000
         C           -1.288505976119     0.649617047577    -0.098880438590    12.000000000000
         C           -0.209434976119     1.457411047577    -0.057567438590    12.000000000000
         C            1.094704023881     0.861761047577     0.186669561410    12.000000000000
         C            1.226563023881    -0.468893952423    -0.017607438590    12.000000000000
         H           -0.993113976119    -0.888626952423     1.383590561410     1.007825032230
         H           -1.842505976119    -1.451198952423    -0.083039438590     1.007825032230
         H           -2.280082976119     1.000384047577    -0.368462438590     1.007825032230
         H           -0.278028976119     2.515387047577    -0.297609438590     1.007825032230
         H            1.976031023881     1.465792047577     0.368908561410     1.007825032230
         H            2.173785023881    -0.996829952423    -0.076760438590     1.007825032230

  Basis Set: AUG-CC-PVTZ
    Blend: AUG-CC-PVTZ
  Basis Set: (AUG-CC-PVTZ AUX)
    Blend: AUG-CC-PVTZ-JKFIT
	 Reference Energy          =    -267.7225604227187432 [Eh]
	 Singles Energy            =      -0.0000000000000000 [Eh]
	 Same-Spin Energy          =      -0.2753400159298679 [Eh]
	 Opposite-Spin Energy      =      -0.8907729510049710 [Eh]
	 Correlation Energy        =      -1.1661129669348389 [Eh]
	 Total Energy              =    -268.8886733896536043 [Eh]

	 ================> DF-SCS-MP2 Energies <==================
	-----------------------------------------------------------
	 SCS Same-Spin Scale       =       0.3333333333333333 [-]
	 SCS Opposite-Spin Scale   =       1.2000000000000000 [-]
	 SCS Same-Spin Energy      =      -0.0917800053099560 [Eh]
	 SCS Opposite-Spin Energy  =      -1.0689275412059651 [Eh]
	 SCS Correlation Energy    =      -1.1607075465159211 [Eh]
	 SCS Total Energy          =    -268.8832679692346801 [Eh]
	-----------------------------------------------------------

  Dipole Moment: [D]
     X:    -0.5939      Y:     0.7897      Z:     0.4923     Total:     1.1040

*** Psi4 exiting successfully. Buy a developer a beer!
