                               Psi4 1.3.2 release

  ==> Input File <==

--------------------------------------------------------------------------
#psi4
#
memory 32 gb

molecule  {
0 1
  O        0.1404180    -1.2484792    -0.2756276
  C       -1.0344600    -0.8194530     0.2767900
  C       -1.2574290     0.6116450    -0.1105210
  C       -0.1783580     1.4194390    -0.0692080
  C        1.1257810     0.8237890     0.1750290
  C        1.2576400    -0.5068660    -0.0292480
  H       -0.9620370    -0.9265990     1.3719500
  H       -1.8114290    -1.4891710    -0.0946800
  H       -2.2490060     0.9624120    -0.3801030
  H       -0.2469520     2.4774150    -0.3092500
  H        2.0071080     1.4278200     0.3572680
  H        2.2048620    -1.0348020    -0.0884010
units angstrom
no_reorient  #important for SAPT in psi4, default
symmetry c1  #important for SAPT in psi4, default
}

set PROPERTIES_ORIGIN ["COM"]
properties('MP2/aug-cc-pvtz', properties = ['dipole'])
--------------------------------------------------------------------------

    Molecular point group: c1
  Charge       = 0
  Multiplicity = 1
  Basis Set: AUG-CC-PVTZ
    Blend: AUG-CC-PVTZ
  Basis Set: (AUG-CC-PVTZ AUX)
    Blend: AUG-CC-PVTZ-JKFIT

    Orbital Energies [Eh]
    ---------------------

    Doubly Occupied:

       1A    -20.581880     2A    -11.301155     3A    -11.284081
       4A    -11.238898     5A    -11.229293     6A    -11.227177
       7A     -1.428207     8A     -1.093266     9A     -1.042696
      10A     -0.895703    11A     -0.844870    12A     -0.725351
      13A     -0.706977    14A     -0.659495    15A     -0.639410
      16A     -0.603122    17A     -0.581988    18A     -0.533655
      19A     -0.498606    20A     -0.463983    21A     -0.415215
      22A     -0.302360

  @DF-RHF Final Energy:  -267.73609894232823

   => Energetics <=

    Nuclear Repulsion Energy =            225.5648663739949882
    One-Electron Energy =                -810.0071546304975527
    Two-Electron Energy =                 316.7061893141743667
    Total Energy =                       -267.7360989423282263
  Basis Set: (AUG-CC-PVTZ AUX)
    Blend: AUG-CC-PVTZ-RI
    Molecular point group: c1

    Geometry (in Angstrom), charge = 0, multiplicity = 1:

       Center              X                  Y                   Z               Mass
    ------------   -----------------  -----------------  -----------------  -----------------
         O            0.138731869270    -1.246059623712    -0.267935824980    15.994914619570
         C           -1.036146130730    -0.817033423712     0.284481775020    12.000000000000
         C           -1.259115130730     0.614064576288    -0.102829224980    12.000000000000
         C           -0.180044130730     1.421858576288    -0.061516224980    12.000000000000
         C            1.124094869270     0.826208576288     0.182720775020    12.000000000000
         C            1.255953869270    -0.504446423712    -0.021556224980    12.000000000000
         H           -0.963723130730    -0.924179423712     1.379641775020     1.007825032230
         H           -1.813115130730    -1.486751423712    -0.086988224980     1.007825032230
         H           -2.250692130730     0.964831576288    -0.372411224980     1.007825032230
         H           -0.248638130730     2.479834576288    -0.301558224980     1.007825032230
         H            2.005421869270     1.430239576288     0.364959775020     1.007825032230
         H            2.203175869270    -1.032382423712    -0.080709224980     1.007825032230

  Basis Set: AUG-CC-PVTZ
    Blend: AUG-CC-PVTZ
  Basis Set: (AUG-CC-PVTZ AUX)
    Blend: AUG-CC-PVTZ-JKFIT
	 Reference Energy          =    -267.7360989423282263 [Eh]
	 Singles Energy            =      -0.0000000000000000 [Eh]
	 Same-Spin Energy          =      -0.2738410116569542 [Eh]
	 Opposite-Spin Energy      =      -0.8849052110000926 [Eh]
	 Correlation Energy        =      -1.1587462226570469 [Eh]
	 Total Energy              =    -268.8948451649852700 [Eh]

	 ================> DF-SCS-MP2 Energies <==================
	-----------------------------------------------------------
	 SCS Same-Spin Scale       =       0.3333333333333333 [-]
	 SCS Opposite-Spin Scale   =       1.2000000000000000 [-]
	 SCS Same-Spin Energy      =      -0.0912803372189847 [Eh]
	 SCS Opposite-Spin Energy  =      -1.0618862532001110 [Eh]
	 SCS Correlation Energy    =      -1.1531665904190957 [Eh]
	 SCS Total Energy          =    -268.8892655327473449 [Eh]
	-----------------------------------------------------------

  Dipole Moment: [D]
     X:    -0.1306      Y:     0.4988      Z:     0.3417     Total:     0.6186

*** Psi4 exiting successfully. Buy a developer a beer!
