                               Psi4 1.3.2 release

  ==> Input File <==

--------------------------------------------------------------------------
#psi4
#
memory 32 gb

molecule  {
0 1
  O        0.1973020    -1.3235490    -0.2892290
  C       -1.0344600    -0.8194530     0.2767900
  C       -1.1713501     0.5069722    -0.0710325
  C       -0.1783580     1.4194390    -0.0692080
  C        1.1257810     0.8237890     0.1750290
  C        1.2576400    -0.5068660    -0.0292480
  H       -0.9620370    -0.9265990     1.3719500
  H       -1.8114290    -1.4891710    -0.0946800
  H       -2.2490060     0.9624120    -0.3801030
  H       -0.2469520     2.4774150    -0.3092500
  H        2.0071080     1.4278200     0.3572680
  H        2.2048620    -1.0348020    -0.0884010
units angstrom
no_reorient  #important for SAPT in psi4, default
symmetry c1  #important for SAPT in psi4, default
}

set PROPERTIES_ORIGIN ["COM"]
properties('MP2/aug-cc-pvtz', properties = ['dipole'])
--------------------------------------------------------------------------

    Molecular point group: c1
  Charge       = 0
  Multiplicity = 1
  Basis Set: AUG-CC-PVTZ
    Blend: AUG-CC-PVTZ
  Basis Set: (AUG-CC-PVTZ AUX)
    Blend: AUG-CC-PVTZ-JKFIT

    Orbital Energies [Eh]
    ---------------------

    Doubly Occupied:

       1A    -20.585402     2A    -11.298418     3A    -11.286764
       4A    -11.242350     5A    -11.235979     6A    -11.224371
       7A     -1.410189     8A     -1.106809     9A     -1.047526
      10A     -0.904140    11A     -0.837981    12A     -0.725285
      13A     -0.696338    14A     -0.658672    15A     -0.630947
      16A     -0.596569    17A     -0.588048    18A     -0.528066
      19A     -0.510181    20A     -0.464143    21A     -0.417899
      22A     -0.299207

  @DF-RHF Final Energy:  -267.71268729677786

   => Energetics <=

    Nuclear Repulsion Energy =            225.6333061501250086
    One-Electron Energy =                -810.1014128695446743
    Two-Electron Energy =                 316.7554194226418076
    Total Energy =                       -267.7126872967778581
  Basis Set: (AUG-CC-PVTZ AUX)
    Blend: AUG-CC-PVTZ-RI
    Molecular point group: c1

    Geometry (in Angstrom), charge = 0, multiplicity = 1:

       Center              X                  Y                   Z               Mass
    ------------   -----------------  -----------------  -----------------  -----------------
         O            0.171935257820    -1.291183631437    -0.284661346657    15.994914619570
         C           -1.059826742180    -0.787087631437     0.281357653343    12.000000000000
         C           -1.196716842180     0.539337568563    -0.066464846657    12.000000000000
         C           -0.203724742180     1.451804368563    -0.064640346657    12.000000000000
         C            1.100414257820     0.856154368563     0.179596653343    12.000000000000
         C            1.232273257820    -0.474500631437    -0.024680346657    12.000000000000
         H           -0.987403742180    -0.894233631437     1.376517653343     1.007825032230
         H           -1.836795742180    -1.456805631437    -0.090112346657     1.007825032230
         H           -2.274372742180     0.994777368563    -0.375535346657     1.007825032230
         H           -0.272318742180     2.509780368563    -0.304682346657     1.007825032230
         H            1.981741257820     1.460185368563     0.361835653343     1.007825032230
         H            2.179495257820    -1.002436631437    -0.083833346657     1.007825032230

  Basis Set: AUG-CC-PVTZ
    Blend: AUG-CC-PVTZ
  Basis Set: (AUG-CC-PVTZ AUX)
    Blend: AUG-CC-PVTZ-JKFIT
	 Reference Energy          =    -267.7126872967778581 [Eh]
	 Singles Energy            =      -0.0000000000000000 [Eh]
	 Same-Spin Energy          =      -0.2760642571822707 [Eh]
	 Opposite-Spin Energy      =      -0.8889531608157017 [Eh]
	 Correlation Energy        =      -1.1650174179979724 [Eh]
	 Total Energy              =    -268.8777047147758026 [Eh]

	 ================> DF-SCS-MP2 Energies <==================
	-----------------------------------------------------------
	 SCS Same-Spin Scale       =       0.3333333333333333 [-]
	 SCS Opposite-Spin Scale   =       1.2000000000000000 [-]
	 SCS Same-Spin Energy      =      -0.0920214190607569 [Eh]
	 SCS Opposite-Spin Energy  =      -1.0667437929788421 [Eh]
	 SCS Correlation Energy    =      -1.1587652120395990 [Eh]
	 SCS Total Energy          =    -268.8714525088174696 [Eh]
	-----------------------------------------------------------

  Dipole Moment: [D]
     X:    -0.3041      Y:     0.6459      Z:     0.4251     Total:     0.8308

*** Psi4 exiting successfully. Buy a developer a beer!
