                               Psi4 1.4a3.dev225

  ==> Input File <==

--------------------------------------------------------------------------
#psi4
#
memory 32 gb

molecule  {
0 1
  O        0.1973020    -1.3235490    -0.2892290
  C       -1.0344600    -0.8194530     0.2767900
  C       -1.2574290     0.6116450    -0.1105210
  C       -0.1783580     1.4194390    -0.0692080
  C        1.1257810     0.8237890     0.1750290
  C        1.2576400    -0.5068660    -0.0292480
  H       -0.9620370    -0.9265990     1.3719500
  H       -1.8114290    -1.4891710    -0.0946800
  H       -2.2307414     0.9559509    -0.3751374
  H       -0.2469520     2.4774150    -0.3092500
  H        2.0071080     1.4278200     0.3572680
  H        2.2048620    -1.0348020    -0.0884010
units angstrom
no_reorient  #important for SAPT in psi4, default
symmetry c1  #important for SAPT in psi4, default
}

set PROPERTIES_ORIGIN ["COM"]
properties('MP2/aug-cc-pvtz', properties = ['dipole'])
--------------------------------------------------------------------------

    Molecular point group: c1
  Charge       = 0
  Multiplicity = 1
  Basis Set: AUG-CC-PVTZ
    Blend: AUG-CC-PVTZ
  Basis Set: (AUG-CC-PVTZ AUX)
    Blend: AUG-CC-PVTZ-JKFIT

    Orbital Energies [Eh]
    ---------------------

    Doubly Occupied:

       1A    -20.586926     2A    -11.300795     3A    -11.290937
       4A    -11.241577     5A    -11.229003     6A    -11.226007
       7A     -1.407206     8A     -1.096552     9A     -1.034825
      10A     -0.898559    11A     -0.841688    12A     -0.718399
      13A     -0.705070    14A     -0.649690    15A     -0.633989
      16A     -0.606605    17A     -0.572094    18A     -0.532811
      19A     -0.508242    20A     -0.471579    21A     -0.418760
      22A     -0.302154

  @DF-RHF Final Energy:  -267.73824974483273

   => Energetics <=

    Nuclear Repulsion Energy =            223.5930890246328318
    One-Electron Energy =                -806.1157385315009378
    Two-Electron Energy =                 314.7843997620353775
    Total Energy =                       -267.7382497448327285
  Basis Set: (AUG-CC-PVTZ AUX)
    Blend: AUG-CC-PVTZ-RI
    Molecular point group: c1

    Geometry (in Angstrom), charge = 0, multiplicity = 1:

       Center              X                  Y                   Z               Mass
    ------------   -----------------  -----------------  -----------------  -----------------
         O            0.184301374574    -1.306414415678    -0.278946489430    15.994914619570
         C           -1.047460625426    -0.802318415678     0.287072510570    12.000000000000
         C           -1.270429625426     0.628779584322    -0.100238489430    12.000000000000
         C           -0.191358625426     1.436573584322    -0.058925489430    12.000000000000
         C            1.112780374574     0.840923584322     0.185311510570    12.000000000000
         C            1.244639374574    -0.489731415678    -0.018965489430    12.000000000000
         H           -0.975037625426    -0.909464415678     1.382232510570     1.007825032230
         H           -1.824429625426    -1.472036415678    -0.084397489430     1.007825032230
         H           -2.243742025426     0.973085484322    -0.364854889430     1.007825032230
         H           -0.259952625426     2.494549584322    -0.298967489430     1.007825032230
         H            1.994107374574     1.444954584322     0.367550510570     1.007825032230
         H            2.191861374574    -1.017667415678    -0.078118489430     1.007825032230

  Basis Set: AUG-CC-PVTZ
    Blend: AUG-CC-PVTZ
  Basis Set: (AUG-CC-PVTZ AUX)
    Blend: AUG-CC-PVTZ-JKFIT
	 Reference Energy          =    -267.7382497448327285 [Eh]
	 Singles Energy            =      -0.0000000000000000 [Eh]
	 Same-Spin Energy          =      -0.2740869402443087 [Eh]
	 Opposite-Spin Energy      =      -0.8866216068408452 [Eh]
	 Correlation Energy        =      -1.1607085470851539 [Eh]
	 Total Energy              =    -268.8989582919178929 [Eh]

	 ================> DF-SCS-MP2 Energies <==================
	-----------------------------------------------------------
	 SCS Same-Spin Scale       =       0.3333333333333333 [-]
	 SCS Opposite-Spin Scale   =       1.2000000000000000 [-]
	 SCS Same-Spin Energy      =      -0.0913623134147696 [Eh]
	 SCS Opposite-Spin Energy  =      -1.0639459282090142 [Eh]
	 SCS Correlation Energy    =      -1.1553082416237839 [Eh]
	 SCS Total Energy          =    -268.8935579864565284 [Eh]
	-----------------------------------------------------------

  Dipole Moment: [D]
     X:    -0.3338      Y:     0.6257      Z:     0.4181     Total:     0.8232

*** Psi4 exiting successfully. Buy a developer a beer!
