                               Psi4 1.3.2 release

  ==> Input File <==

--------------------------------------------------------------------------
#psi4
#
memory 32 gb

molecule  {
0 1
  O        0.1973020    -1.3235490    -0.2892290
  C       -1.0344600    -0.8194530     0.2767900
  C       -1.2574290     0.6116450    -0.1105210
  C       -0.1783580     1.4194390    -0.0692080
  C        1.1257810     0.8237890     0.1750290
  C        1.2673879    -0.6052373    -0.0443496
  H       -0.9620370    -0.9265990     1.3719500
  H       -1.8114290    -1.4891710    -0.0946800
  H       -2.2490060     0.9624120    -0.3801030
  H       -0.2469520     2.4774150    -0.3092500
  H        2.0071080     1.4278200     0.3572680
  H        2.2048620    -1.0348020    -0.0884010
units angstrom
no_reorient  #important for SAPT in psi4, default
symmetry c1  #important for SAPT in psi4, default
}

set PROPERTIES_ORIGIN ["COM"]
properties('MP2/aug-cc-pvtz', properties = ['dipole'])
--------------------------------------------------------------------------

    Molecular point group: c1
  Charge       = 0
  Multiplicity = 1
  Basis Set: AUG-CC-PVTZ
    Blend: AUG-CC-PVTZ
  Basis Set: (AUG-CC-PVTZ AUX)
    Blend: AUG-CC-PVTZ-JKFIT

    Orbital Energies [Eh]
    ---------------------

    Doubly Occupied:

       1A    -20.596883     2A    -11.313434     3A    -11.296848
       4A    -11.240857     5A    -11.230764     6A    -11.227504
       7A     -1.433034     8A     -1.089567     9A     -1.028706
      10A     -0.891814    11A     -0.850855    12A     -0.728795
      13A     -0.704831    14A     -0.663131    15A     -0.639402
      16A     -0.610396    17A     -0.568229    18A     -0.539230
      19A     -0.514111    20A     -0.465830    21A     -0.411730
      22A     -0.284932

  @DF-RHF Final Energy:  -267.72281069901817

   => Energetics <=

    Nuclear Repulsion Energy =            222.9239475674763753
    One-Electron Energy =                -804.6317500526974982
    Two-Electron Energy =                 313.9849917862029542
    Total Energy =                       -267.7228106990181686
  Basis Set: (AUG-CC-PVTZ AUX)
    Blend: AUG-CC-PVTZ-RI
    Molecular point group: c1

    Geometry (in Angstrom), charge = 0, multiplicity = 1:

       Center              X                  Y                   Z               Mass
    ------------   -----------------  -----------------  -----------------  -----------------
         O            0.183099947971    -1.292105331598    -0.276676628105    15.994914619570
         C           -1.048662052029    -0.788009331598     0.289342371895    12.000000000000
         C           -1.271631052029     0.643088668402    -0.097968628105    12.000000000000
         C           -0.192560052029     1.450882668402    -0.056655628105    12.000000000000
         C            1.111578947971     0.855232668402     0.187581371895    12.000000000000
         C            1.253185847971    -0.573793631598    -0.031797228105    12.000000000000
         H           -0.976239052029    -0.895155331598     1.384502371895     1.007825032230
         H           -1.825631052029    -1.457727331598    -0.082127628105     1.007825032230
         H           -2.263208052029     0.993855668402    -0.367550628105     1.007825032230
         H           -0.261154052029     2.508858668402    -0.296697628105     1.007825032230
         H            1.992905947971     1.459263668402     0.369820371895     1.007825032230
         H            2.190659947971    -1.003358331598    -0.075848628105     1.007825032230

  Basis Set: AUG-CC-PVTZ
    Blend: AUG-CC-PVTZ
  Basis Set: (AUG-CC-PVTZ AUX)
    Blend: AUG-CC-PVTZ-JKFIT
	 Reference Energy          =    -267.7228106990181686 [Eh]
	 Singles Energy            =      -0.0000000000000000 [Eh]
	 Same-Spin Energy          =      -0.2754165282409777 [Eh]
	 Opposite-Spin Energy      =      -0.8882765562748318 [Eh]
	 Correlation Energy        =      -1.1636930845158096 [Eh]
	 Total Energy              =    -268.8865037835339535 [Eh]

	 ================> DF-SCS-MP2 Energies <==================
	-----------------------------------------------------------
	 SCS Same-Spin Scale       =       0.3333333333333333 [-]
	 SCS Opposite-Spin Scale   =       1.2000000000000000 [-]
	 SCS Same-Spin Energy      =      -0.0918055094136592 [Eh]
	 SCS Opposite-Spin Energy  =      -1.0659318675297982 [Eh]
	 SCS Correlation Energy    =      -1.1577373769434574 [Eh]
	 SCS Total Energy          =    -268.8805480759615989 [Eh]
	-----------------------------------------------------------

  Dipole Moment: [D]
     X:    -0.4246      Y:     0.2960      Z:     0.3510     Total:     0.6254

*** Psi4 exiting successfully. Buy a developer a beer!
