                               Psi4 1.4a3.dev225

  ==> Input File <==

--------------------------------------------------------------------------
#psi4
#
memory 32 gb

molecule  {
0 1
  O        0.1973020    -1.3235490    -0.2892290
  C       -1.0344600    -0.8194530     0.2767900
  C       -1.2574290     0.6116450    -0.1105210
  C       -0.1783580     1.4194390    -0.0692080
  C        1.1257810     0.8237890     0.1750290
  C        1.2576400    -0.5068660    -0.0292480
  H       -0.9620370    -0.9265990     1.3719500
  H       -1.8114290    -1.4891710    -0.0946800
  H       -2.2033444     0.9462594    -0.3676889
  H       -0.2469520     2.4774150    -0.3092500
  H        2.0071080     1.4278200     0.3572680
  H        2.2048620    -1.0348020    -0.0884010
units angstrom
no_reorient  #important for SAPT in psi4, default
symmetry c1  #important for SAPT in psi4, default
}

set PROPERTIES_ORIGIN ["COM"]
properties('MP2/aug-cc-pvtz', properties = ['dipole'])
--------------------------------------------------------------------------

    Molecular point group: c1
  Charge       = 0
  Multiplicity = 1
  Basis Set: AUG-CC-PVTZ
    Blend: AUG-CC-PVTZ
  Basis Set: (AUG-CC-PVTZ AUX)
    Blend: AUG-CC-PVTZ-JKFIT

    Orbital Energies [Eh]
    ---------------------

    Doubly Occupied:

       1A    -20.586737     2A    -11.300702     3A    -11.290644
       4A    -11.241413     5A    -11.225811     6A    -11.225443
       7A     -1.407027     8A     -1.096891     9A     -1.035211
      10A     -0.898659    11A     -0.843517    12A     -0.718819
      13A     -0.707699    14A     -0.649673    15A     -0.635344
      16A     -0.607920    17A     -0.572196    18A     -0.533252
      19A     -0.508378    20A     -0.472090    21A     -0.418627
      22A     -0.302044

  @DF-RHF Final Energy:  -267.73730172752335

   => Energetics <=

    Nuclear Repulsion Energy =            223.7433379619615437
    One-Electron Energy =                -806.4050887602285229
    Two-Electron Energy =                 314.9244490707436626
    Total Energy =                       -267.7373017275233451
  Basis Set: (AUG-CC-PVTZ AUX)
    Blend: AUG-CC-PVTZ-RI
    Molecular point group: c1

    Geometry (in Angstrom), charge = 0, multiplicity = 1:

       Center              X                  Y                   Z               Mass
    ------------   -----------------  -----------------  -----------------  -----------------
         O            0.183964822223    -1.306295362603    -0.279037988871    15.994914619570
         C           -1.047797177777    -0.802199362603     0.286981011129    12.000000000000
         C           -1.270766177777     0.628898637397    -0.100329988871    12.000000000000
         C           -0.191695177777     1.436692637397    -0.059016988871    12.000000000000
         C            1.112443822223     0.841042637397     0.185220011129    12.000000000000
         C            1.244302822223    -0.489612362603    -0.019056988871    12.000000000000
         H           -0.975374177777    -0.909345362603     1.382141011129     1.007825032230
         H           -1.824766177777    -1.471917362603    -0.084488988871     1.007825032230
         H           -2.216681577777     0.963513037397    -0.357497888871     1.007825032230
         H           -0.260289177777     2.494668637397    -0.299058988871     1.007825032230
         H            1.993770822223     1.445073637397     0.367459011129     1.007825032230
         H            2.191524822223    -1.017548362603    -0.078209988871     1.007825032230

  Basis Set: AUG-CC-PVTZ
    Blend: AUG-CC-PVTZ
  Basis Set: (AUG-CC-PVTZ AUX)
    Blend: AUG-CC-PVTZ-JKFIT
	 Reference Energy          =    -267.7373017275233451 [Eh]
	 Singles Energy            =      -0.0000000000000000 [Eh]
	 Same-Spin Energy          =      -0.2740456988119963 [Eh]
	 Opposite-Spin Energy      =      -0.8864692746804512 [Eh]
	 Correlation Energy        =      -1.1605149734924476 [Eh]
	 Total Energy              =    -268.8978167010158131 [Eh]

	 ================> DF-SCS-MP2 Energies <==================
	-----------------------------------------------------------
	 SCS Same-Spin Scale       =       0.3333333333333333 [-]
	 SCS Opposite-Spin Scale   =       1.2000000000000000 [-]
	 SCS Same-Spin Energy      =      -0.0913485662706654 [Eh]
	 SCS Opposite-Spin Energy  =      -1.0637631296165415 [Eh]
	 SCS Correlation Energy    =      -1.1551116958872070 [Eh]
	 SCS Total Energy          =    -268.8924134234105736 [Eh]
	-----------------------------------------------------------

  Dipole Moment: [D]
     X:    -0.3412      Y:     0.6297      Z:     0.4168     Total:     0.8286

*** Psi4 exiting successfully. Buy a developer a beer!
