                               Psi4 1.3.2 release

  ==> Input File <==

--------------------------------------------------------------------------
#psi4
#
memory 32 gb

molecule  {
0 1
  O        0.1973020    -1.3235490    -0.2892290
  C       -1.0344600    -0.8194530     0.2767900
  C       -1.2574290     0.6116450    -0.1105210
  C       -0.1783580     1.4194390    -0.0692080
  C        1.1366143     0.8463816     0.1709631
  C        1.2576400    -0.5068660    -0.0292480
  H       -0.9620370    -0.9265990     1.3719500
  H       -1.8114290    -1.4891710    -0.0946800
  H       -2.2490060     0.9624120    -0.3801030
  H       -0.2469520     2.4774150    -0.3092500
  H        2.0071080     1.4278200     0.3572680
  H        2.2048620    -1.0348020    -0.0884010
units angstrom
no_reorient  #important for SAPT in psi4, default
symmetry c1  #important for SAPT in psi4, default
}

set PROPERTIES_ORIGIN ["COM"]
properties('MP2/aug-cc-pvtz', properties = ['dipole'])
--------------------------------------------------------------------------

    Molecular point group: c1
  Charge       = 0
  Multiplicity = 1
  Basis Set: AUG-CC-PVTZ
    Blend: AUG-CC-PVTZ
  Basis Set: (AUG-CC-PVTZ AUX)
    Blend: AUG-CC-PVTZ-JKFIT

    Orbital Energies [Eh]
    ---------------------

    Doubly Occupied:

       1A    -20.589085     2A    -11.304981     3A    -11.291465
       4A    -11.241855     5A    -11.230878     6A    -11.227256
       7A     -1.408322     8A     -1.095123     9A     -1.032833
      10A     -0.897293    11A     -0.842083    12A     -0.717759
      13A     -0.705204    14A     -0.649791    15A     -0.635480
      16A     -0.604155    17A     -0.573063    18A     -0.534485
      19A     -0.510318    20A     -0.469216    21A     -0.418178
      22A     -0.299808

  @DF-RHF Final Energy:  -267.73645747619565

   => Energetics <=

    Nuclear Repulsion Energy =            223.1209744041862564
    One-Electron Energy =                -805.1575994103387757
    Two-Electron Energy =                 314.3001675299568092
    Total Energy =                       -267.7364574761956533
  Basis Set: (AUG-CC-PVTZ AUX)
    Blend: AUG-CC-PVTZ-RI
    Molecular point group: c1

    Geometry (in Angstrom), charge = 0, multiplicity = 1:

       Center              X                  Y                   Z               Mass
    ------------   -----------------  -----------------  -----------------  -----------------
         O            0.182941190000    -1.309798332644    -0.278290784491    15.994914619570
         C           -1.048820810000    -0.805702332644     0.287728215509    12.000000000000
         C           -1.271789810000     0.625395667356    -0.099582784491    12.000000000000
         C           -0.192718810000     1.433189667356    -0.058269784491    12.000000000000
         C            1.122253490000     0.860132267356     0.181901315509    12.000000000000
         C            1.243279190000    -0.493115332644    -0.018309784491    12.000000000000
         H           -0.976397810000    -0.912848332644     1.382888215509     1.007825032230
         H           -1.825789810000    -1.475420332644    -0.083741784491     1.007825032230
         H           -2.263366810000     0.976162667356    -0.369164784491     1.007825032230
         H           -0.261312810000     2.491165667356    -0.298311784491     1.007825032230
         H            1.992747190000     1.441570667356     0.368206215509     1.007825032230
         H            2.190501190000    -1.021051332644    -0.077462784491     1.007825032230

  Basis Set: AUG-CC-PVTZ
    Blend: AUG-CC-PVTZ
  Basis Set: (AUG-CC-PVTZ AUX)
    Blend: AUG-CC-PVTZ-JKFIT
	 Reference Energy          =    -267.7364574761956533 [Eh]
	 Singles Energy            =      -0.0000000000000000 [Eh]
	 Same-Spin Energy          =      -0.2743530656863294 [Eh]
	 Opposite-Spin Energy      =      -0.8872795013424002 [Eh]
	 Correlation Energy        =      -1.1616325670287297 [Eh]
	 Total Energy              =    -268.8980900432243857 [Eh]

	 ================> DF-SCS-MP2 Energies <==================
	-----------------------------------------------------------
	 SCS Same-Spin Scale       =       0.3333333333333333 [-]
	 SCS Opposite-Spin Scale   =       1.2000000000000000 [-]
	 SCS Same-Spin Energy      =      -0.0914510218954431 [Eh]
	 SCS Opposite-Spin Energy  =      -1.0647354016108801 [Eh]
	 SCS Correlation Energy    =      -1.1561864235063233 [Eh]
	 SCS Total Energy          =    -268.8926438997019659 [Eh]
	-----------------------------------------------------------

  Dipole Moment: [D]
     X:    -0.3232      Y:     0.5952      Z:     0.4263     Total:     0.8003

*** Psi4 exiting successfully. Buy a developer a beer!
