                               Psi4 1.3.2 release

  ==> Input File <==

--------------------------------------------------------------------------
#psi4
#
memory 32 gb

molecule  {
0 1
  O        0.1973020    -1.3235490    -0.2892290
  C       -1.0344600    -0.8194530     0.2767900
  C       -1.2574290     0.6116450    -0.1105210
  C       -0.1274435     1.3446184    -0.0433278
  C        1.1257810     0.8237890     0.1750290
  C        1.2576400    -0.5068660    -0.0292480
  H       -0.9620370    -0.9265990     1.3719500
  H       -1.8114290    -1.4891710    -0.0946800
  H       -2.2490060     0.9624120    -0.3801030
  H       -0.2469520     2.4774150    -0.3092500
  H        2.0071080     1.4278200     0.3572680
  H        2.2048620    -1.0348020    -0.0884010
units angstrom
no_reorient  #important for SAPT in psi4, default
symmetry c1  #important for SAPT in psi4, default
}

set PROPERTIES_ORIGIN ["COM"]
properties('MP2/aug-cc-pvtz', properties = ['dipole'])
--------------------------------------------------------------------------

    Molecular point group: c1
  Charge       = 0
  Multiplicity = 1
  Basis Set: AUG-CC-PVTZ
    Blend: AUG-CC-PVTZ
  Basis Set: (AUG-CC-PVTZ AUX)
    Blend: AUG-CC-PVTZ-JKFIT

    Orbital Energies [Eh]
    ---------------------

    Doubly Occupied:

       1A    -20.589918     2A    -11.305327     3A    -11.288575
       4A    -11.242427     5A    -11.228087     6A    -11.222235
       7A     -1.410220     8A     -1.109143     9A     -1.038219
      10A     -0.892141    11A     -0.849930    12A     -0.718132
      13A     -0.701574    14A     -0.656148    15A     -0.634724
      16A     -0.596957    17A     -0.569767    18A     -0.543664
      19A     -0.506918    20A     -0.461527    21A     -0.428432
      22A     -0.297625

  @DF-RHF Final Energy:  -267.72521777847675

   => Energetics <=

    Nuclear Repulsion Energy =            224.8724177176679007
    One-Electron Energy =                -808.6118950724591059
    Two-Electron Energy =                 316.0142595763144868
    Total Energy =                       -267.7252177784767468
  Basis Set: (AUG-CC-PVTZ AUX)
    Blend: AUG-CC-PVTZ-RI
    Molecular point group: c1

    Geometry (in Angstrom), charge = 0, multiplicity = 1:

       Center              X                  Y                   Z               Mass
    ------------   -----------------  -----------------  -----------------  -----------------
         O            0.177078641640    -1.295550016828    -0.282670904334    15.994914619570
         C           -1.054683358360    -0.791454016828     0.283348095666    12.000000000000
         C           -1.277652358360     0.639643983172    -0.103962904334    12.000000000000
         C           -0.147666858360     1.372617383172    -0.036769704334    12.000000000000
         C            1.105557641640     0.851787983172     0.181587095666    12.000000000000
         C            1.237416641640    -0.478867016828    -0.022689904334    12.000000000000
         H           -0.982260358360    -0.898600016828     1.378508095666     1.007825032230
         H           -1.831652358360    -1.461172016828    -0.088121904334     1.007825032230
         H           -2.269229358360     0.990410983172    -0.373544904334     1.007825032230
         H           -0.267175358360     2.505413983172    -0.302691904334     1.007825032230
         H            1.986884641640     1.455818983172     0.363826095666     1.007825032230
         H            2.184638641640    -1.006803016828    -0.081842904334     1.007825032230

  Basis Set: AUG-CC-PVTZ
    Blend: AUG-CC-PVTZ
  Basis Set: (AUG-CC-PVTZ AUX)
    Blend: AUG-CC-PVTZ-JKFIT
	 Reference Energy          =    -267.7252177784767468 [Eh]
	 Singles Energy            =      -0.0000000000000000 [Eh]
	 Same-Spin Energy          =      -0.2758780915998720 [Eh]
	 Opposite-Spin Energy      =      -0.8884142067060663 [Eh]
	 Correlation Energy        =      -1.1642922983059383 [Eh]
	 Total Energy              =    -268.8895100767826989 [Eh]

	 ================> DF-SCS-MP2 Energies <==================
	-----------------------------------------------------------
	 SCS Same-Spin Scale       =       0.3333333333333333 [-]
	 SCS Opposite-Spin Scale   =       1.2000000000000000 [-]
	 SCS Same-Spin Energy      =      -0.0919593638666240 [Eh]
	 SCS Opposite-Spin Energy  =      -1.0660970480472796 [Eh]
	 SCS Correlation Energy    =      -1.1580564119139036 [Eh]
	 SCS Total Energy          =    -268.8832741903906367 [Eh]
	-----------------------------------------------------------

  Dipole Moment: [D]
     X:    -0.2079      Y:     0.5332      Z:     0.4359     Total:     0.7194

*** Psi4 exiting successfully. Buy a developer a beer!
