                               Psi4 1.3.2 release

  ==> Input File <==

--------------------------------------------------------------------------
#psi4
#
memory 32 gb

molecule  {
0 1
  O        0.1973020    -1.3235490    -0.2892290
  C       -1.0344600    -0.8194530     0.2767900
  C       -1.2434774     0.5931406    -0.1064085
  C       -0.1783580     1.4194390    -0.0692080
  C        1.1257810     0.8237890     0.1750290
  C        1.2576400    -0.5068660    -0.0292480
  H       -0.9620370    -0.9265990     1.3719500
  H       -1.8114290    -1.4891710    -0.0946800
  H       -2.2490060     0.9624120    -0.3801030
  H       -0.2469520     2.4774150    -0.3092500
  H        2.0071080     1.4278200     0.3572680
  H        2.2048620    -1.0348020    -0.0884010
units angstrom
no_reorient  #important for SAPT in psi4, default
symmetry c1  #important for SAPT in psi4, default
}

set PROPERTIES_ORIGIN ["COM"]
properties('MP2/aug-cc-pvtz', properties = ['dipole'])
--------------------------------------------------------------------------

    Molecular point group: c1
  Charge       = 0
  Multiplicity = 1
  Basis Set: AUG-CC-PVTZ
    Blend: AUG-CC-PVTZ
  Basis Set: (AUG-CC-PVTZ AUX)
    Blend: AUG-CC-PVTZ-JKFIT

    Orbital Energies [Eh]
    ---------------------

    Doubly Occupied:

       1A    -20.586697     2A    -11.300411     3A    -11.290464
       4A    -11.241594     5A    -11.231877     6A    -11.225760
       7A     -1.407624     8A     -1.097697     9A     -1.036449
      10A     -0.899181    11A     -0.840038    12A     -0.719242
      13A     -0.701560    14A     -0.650694    15A     -0.632256
      16A     -0.604543    17A     -0.574452    18A     -0.531116
      19A     -0.508118    20A     -0.472415    21A     -0.418747
      22A     -0.301701

  @DF-RHF Final Energy:  -267.73719431570288

   => Energetics <=

    Nuclear Repulsion Energy =            223.8363683317159598
    One-Electron Energy =                -806.6018461165856479
    Two-Electron Energy =                 315.0282834691668654
    Total Energy =                       -267.7371943157028795
  Basis Set: (AUG-CC-PVTZ AUX)
    Blend: AUG-CC-PVTZ-RI
    Molecular point group: c1

    Geometry (in Angstrom), charge = 0, multiplicity = 1:

       Center              X                  Y                   Z               Mass
    ------------   -----------------  -----------------  -----------------  -----------------
         O            0.182485086277    -1.303787206482    -0.279487012785    15.994914619570
         C           -1.049276913723    -0.799691206482     0.286531987215    12.000000000000
         C           -1.258294313723     0.612902393518    -0.096666512785    12.000000000000
         C           -0.193174913723     1.439200793518    -0.059466012785    12.000000000000
         C            1.110964086277     0.843550793518     0.184770987215    12.000000000000
         C            1.242823086277    -0.487104206482    -0.019506012785    12.000000000000
         H           -0.976853913723    -0.906837206482     1.381691987215     1.007825032230
         H           -1.826245913723    -1.469409206482    -0.084938012785     1.007825032230
         H           -2.263822913723     0.982173793518    -0.370361012785     1.007825032230
         H           -0.261768913723     2.497176793518    -0.299508012785     1.007825032230
         H            1.992291086277     1.447581793518     0.367009987215     1.007825032230
         H            2.190045086277    -1.015040206482    -0.078659012785     1.007825032230

  Basis Set: AUG-CC-PVTZ
    Blend: AUG-CC-PVTZ
  Basis Set: (AUG-CC-PVTZ AUX)
    Blend: AUG-CC-PVTZ-JKFIT
	 Reference Energy          =    -267.7371943157028795 [Eh]
	 Singles Energy            =      -0.0000000000000000 [Eh]
	 Same-Spin Energy          =      -0.2743434571003738 [Eh]
	 Opposite-Spin Energy      =      -0.8869180487274333 [Eh]
	 Correlation Energy        =      -1.1612615058278071 [Eh]
	 Total Energy              =    -268.8984558215306606 [Eh]

	 ================> DF-SCS-MP2 Energies <==================
	-----------------------------------------------------------
	 SCS Same-Spin Scale       =       0.3333333333333333 [-]
	 SCS Opposite-Spin Scale   =       1.2000000000000000 [-]
	 SCS Same-Spin Energy      =      -0.0914478190334579 [Eh]
	 SCS Opposite-Spin Energy  =      -1.0643016584729199 [Eh]
	 SCS Correlation Energy    =      -1.1557494775063779 [Eh]
	 SCS Total Energy          =    -268.8929437932092696 [Eh]
	-----------------------------------------------------------

  Dipole Moment: [D]
     X:    -0.3295      Y:     0.6298      Z:     0.4223     Total:     0.8268

*** Psi4 exiting successfully. Buy a developer a beer!
