                               Psi4 1.4a3.dev225

  ==> Input File <==

--------------------------------------------------------------------------
#psi4
#
memory 32 gb

molecule  {
0 1
  O        0.1973020    -1.3235490    -0.2892290
  C       -1.0344600    -0.8194530     0.2767900
  C       -1.2544546     0.5925542    -0.1053543
  C       -0.1783580     1.4194390    -0.0692080
  C        1.1257810     0.8237890     0.1750290
  C        1.2576400    -0.5068660    -0.0292480
  H       -0.9620370    -0.9265990     1.3719500
  H       -1.8114290    -1.4891710    -0.0946800
  H       -2.2490060     0.9624120    -0.3801030
  H       -0.2469520     2.4774150    -0.3092500
  H        2.0071080     1.4278200     0.3572680
  H        2.2048620    -1.0348020    -0.0884010
units angstrom
no_reorient  #important for SAPT in psi4, default
symmetry c1  #important for SAPT in psi4, default
}

set PROPERTIES_ORIGIN ["COM"]
properties('MP2/aug-cc-pvtz', properties = ['dipole'])
--------------------------------------------------------------------------

    Molecular point group: c1
  Charge       = 0
  Multiplicity = 1
  Basis Set: AUG-CC-PVTZ
    Blend: AUG-CC-PVTZ
  Basis Set: (AUG-CC-PVTZ AUX)
    Blend: AUG-CC-PVTZ-JKFIT

    Orbital Energies [Eh]
    ---------------------

    Doubly Occupied:

       1A    -20.587056     2A    -11.300839     3A    -11.290445
       4A    -11.243030     5A    -11.232219     6A    -11.226078
       7A     -1.407726     8A     -1.096198     9A     -1.036632
      10A     -0.898195    11A     -0.840951    12A     -0.718944
      13A     -0.702635    14A     -0.650301    15A     -0.632930
      16A     -0.604747    17A     -0.574196    18A     -0.531445
      19A     -0.507431    20A     -0.473555    21A     -0.417828
      22A     -0.300961

  @DF-RHF Final Energy:  -267.73698804739189

   => Energetics <=

    Nuclear Repulsion Energy =            223.6663621688736328
    One-Electron Energy =                -806.2580212528238235
    Two-Electron Energy =                 314.8546710365582726
    Total Energy =                       -267.7369880473918897
  Basis Set: (AUG-CC-PVTZ AUX)
    Blend: AUG-CC-PVTZ-RI
    Molecular point group: c1

    Geometry (in Angstrom), charge = 0, multiplicity = 1:

       Center              X                  Y                   Z               Mass
    ------------   -----------------  -----------------  -----------------  -----------------
         O            0.184090686055    -1.303701435638    -0.279641207232    15.994914619570
         C           -1.047671313945    -0.799605435638     0.286377792768    12.000000000000
         C           -1.267665913945     0.612401764362    -0.095766507232    12.000000000000
         C           -0.191569313945     1.439286564362    -0.059620207232    12.000000000000
         C            1.112569686055     0.843636564362     0.184616792768    12.000000000000
         C            1.244428686055    -0.487018435638    -0.019660207232    12.000000000000
         H           -0.975248313945    -0.906751435638     1.381537792768     1.007825032230
         H           -1.824640313945    -1.469323435638    -0.085092207232     1.007825032230
         H           -2.262217313945     0.982259564362    -0.370515207232     1.007825032230
         H           -0.260163313945     2.497262564362    -0.299662207232     1.007825032230
         H            1.993896686055     1.447667564362     0.366855792768     1.007825032230
         H            2.191650686055    -1.014954435638    -0.078813207232     1.007825032230

  Basis Set: AUG-CC-PVTZ
    Blend: AUG-CC-PVTZ
  Basis Set: (AUG-CC-PVTZ AUX)
    Blend: AUG-CC-PVTZ-JKFIT
	 Reference Energy          =    -267.7369880473918897 [Eh]
	 Singles Energy            =      -0.0000000000000000 [Eh]
	 Same-Spin Energy          =      -0.2744453859270659 [Eh]
	 Opposite-Spin Energy      =      -0.8871428117383654 [Eh]
	 Correlation Energy        =      -1.1615881976654312 [Eh]
	 Total Energy              =    -268.8985762450573134 [Eh]

	 ================> DF-SCS-MP2 Energies <==================
	-----------------------------------------------------------
	 SCS Same-Spin Scale       =       0.3333333333333333 [-]
	 SCS Opposite-Spin Scale   =       1.2000000000000000 [-]
	 SCS Same-Spin Energy      =      -0.0914817953090220 [Eh]
	 SCS Opposite-Spin Energy  =      -1.0645713740860385 [Eh]
	 SCS Correlation Energy    =      -1.1560531693950604 [Eh]
	 SCS Total Energy          =    -268.8930412167869690 [Eh]
	-----------------------------------------------------------

  Dipole Moment: [D]
     X:    -0.3207      Y:     0.6293      Z:     0.4179     Total:     0.8207

*** Psi4 exiting successfully. Buy a developer a beer!
