                               Psi4 1.3.2 release

  ==> Input File <==

--------------------------------------------------------------------------
#psi4
#
memory 32 gb

molecule  {
0 1
  O        0.1973020    -1.3235490    -0.2892290
  C       -1.0344600    -0.8194530     0.2767900
  C       -1.2574290     0.6116450    -0.1105210
  C       -0.1783580     1.4194390    -0.0692080
  C        1.1257810     0.8237890     0.1750290
  C        1.3970166    -0.4880280    -0.0129232
  H       -0.9620370    -0.9265990     1.3719500
  H       -1.8114290    -1.4891710    -0.0946800
  H       -2.2490060     0.9624120    -0.3801030
  H       -0.2469520     2.4774150    -0.3092500
  H        2.0071080     1.4278200     0.3572680
  H        2.2048620    -1.0348020    -0.0884010
units angstrom
no_reorient  #important for SAPT in psi4, default
symmetry c1  #important for SAPT in psi4, default
}

set PROPERTIES_ORIGIN ["COM"]
properties('MP2/aug-cc-pvtz', properties = ['dipole'])
--------------------------------------------------------------------------

    Molecular point group: c1
  Charge       = 0
  Multiplicity = 1
  Basis Set: AUG-CC-PVTZ
    Blend: AUG-CC-PVTZ
  Basis Set: (AUG-CC-PVTZ AUX)
    Blend: AUG-CC-PVTZ-JKFIT

    Orbital Energies [Eh]
    ---------------------

    Doubly Occupied:

       1A    -20.566544     2A    -11.295742     3A    -11.284736
       4A    -11.244346     5A    -11.239516     6A    -11.238766
       7A     -1.354908     8A     -1.095060     9A     -1.035863
      10A     -0.894491    11A     -0.848746    12A     -0.728743
      13A     -0.697707    14A     -0.631907    15A     -0.626447
      16A     -0.609008    17A     -0.565521    18A     -0.533261
      19A     -0.483981    20A     -0.465886    21A     -0.419419
      22A     -0.311291

  @DF-RHF Final Energy:  -267.71315002785406

   => Energetics <=

    Nuclear Repulsion Energy =            221.2039456812930212
    One-Electron Energy =                -801.4904100745983442
    Two-Electron Energy =                 312.5733143654512673
    Total Energy =                       -267.7131500278540557
  Basis Set: (AUG-CC-PVTZ AUX)
    Blend: AUG-CC-PVTZ-RI
    Molecular point group: c1

    Geometry (in Angstrom), charge = 0, multiplicity = 1:

       Center              X                  Y                   Z               Mass
    ------------   -----------------  -----------------  -----------------  -----------------
         O            0.164139574465    -1.309249159364    -0.281273266673    15.994914619570
         C           -1.067622425535    -0.805153159364     0.284745733327    12.000000000000
         C           -1.290591425535     0.625944840636    -0.102565266673    12.000000000000
         C           -0.211520425535     1.433738840636    -0.061252266673    12.000000000000
         C            1.092618574465     0.838088840636     0.182984733327    12.000000000000
         C            1.363854174465    -0.473728159364    -0.004967466673    12.000000000000
         H           -0.995199425535    -0.912299159364     1.379905733327     1.007825032230
         H           -1.844591425535    -1.474871159364    -0.086724266673     1.007825032230
         H           -2.282168425535     0.976711840636    -0.372147266673     1.007825032230
         H           -0.280114425535     2.491714840636    -0.301294266673     1.007825032230
         H            1.973945574465     1.442119840636     0.365223733327     1.007825032230
         H            2.171699574465    -1.020502159364    -0.080445266673     1.007825032230

  Basis Set: AUG-CC-PVTZ
    Blend: AUG-CC-PVTZ
  Basis Set: (AUG-CC-PVTZ AUX)
    Blend: AUG-CC-PVTZ-JKFIT
	 Reference Energy          =    -267.7131500278540557 [Eh]
	 Singles Energy            =      -0.0000000000000000 [Eh]
	 Same-Spin Energy          =      -0.2740136264555089 [Eh]
	 Opposite-Spin Energy      =      -0.8896267735084167 [Eh]
	 Correlation Energy        =      -1.1636403999639255 [Eh]
	 Total Energy              =    -268.8767904278179799 [Eh]

	 ================> DF-SCS-MP2 Energies <==================
	-----------------------------------------------------------
	 SCS Same-Spin Scale       =       0.3333333333333333 [-]
	 SCS Opposite-Spin Scale   =       1.2000000000000000 [-]
	 SCS Same-Spin Energy      =      -0.0913378754851696 [Eh]
	 SCS Opposite-Spin Energy  =      -1.0675521282100999 [Eh]
	 SCS Correlation Energy    =      -1.1588900036952696 [Eh]
	 SCS Total Energy          =    -268.8720400315493180 [Eh]
	-----------------------------------------------------------

  Dipole Moment: [D]
     X:    -0.0989      Y:     0.9849      Z:     0.4767     Total:     1.0986

*** Psi4 exiting successfully. Buy a developer a beer!
