                               Psi4 1.3.2 release

  ==> Input File <==

--------------------------------------------------------------------------
#psi4
#
memory 32 gb

molecule  {
0 1
  O        0.1973020    -1.3235490    -0.2892290
  C       -1.0344600    -0.8194530     0.2767900
  C       -1.2574290     0.6116450    -0.1105210
  C       -0.1783580     1.4194390    -0.0692080
  C        1.1257810     0.8237890     0.1750290
  C        1.2576400    -0.5068660    -0.0292480
  H       -0.9620370    -0.9265990     1.3719500
  H       -1.8114290    -1.4891710    -0.0946800
  H       -2.2490060     0.9624120    -0.3801030
  H       -0.2469520     2.4774150    -0.3092500
  H        2.0071080     1.4278200     0.3572680
  H        2.0304233    -0.9375782    -0.0775075
units angstrom
no_reorient  #important for SAPT in psi4, default
symmetry c1  #important for SAPT in psi4, default
}

set PROPERTIES_ORIGIN ["COM"]
properties('MP2/aug-cc-pvtz', properties = ['dipole'])
--------------------------------------------------------------------------

    Molecular point group: c1
  Charge       = 0
  Multiplicity = 1
  Basis Set: AUG-CC-PVTZ
    Blend: AUG-CC-PVTZ
  Basis Set: (AUG-CC-PVTZ AUX)
    Blend: AUG-CC-PVTZ-JKFIT

    Orbital Energies [Eh]
    ---------------------

    Doubly Occupied:

       1A    -20.584983     2A    -11.290236     3A    -11.277501
       4A    -11.241000     5A    -11.231236     6A    -11.225728
       7A     -1.406455     8A     -1.095931     9A     -1.044459
      10A     -0.899773    11A     -0.862579    12A     -0.741252
      13A     -0.703420    14A     -0.653828    15A     -0.635867
      16A     -0.611312    17A     -0.574905    18A     -0.536191
      19A     -0.507746    20A     -0.473196    21A     -0.418542
      22A     -0.302059

  @DF-RHF Final Energy:  -267.70294990019897

   => Energetics <=

    Nuclear Repulsion Energy =            224.6374168922077388
    One-Electron Energy =                -808.0443380699019826
    Two-Electron Energy =                 315.7039712774952704
    Total Energy =                       -267.7029499001989734
  Basis Set: (AUG-CC-PVTZ AUX)
    Blend: AUG-CC-PVTZ-RI
    Molecular point group: c1

    Geometry (in Angstrom), charge = 0, multiplicity = 1:

       Center              X                  Y                   Z               Mass
    ------------   -----------------  -----------------  -----------------  -----------------
         O            0.186668595382    -1.307688109760    -0.279019309399    15.994914619570
         C           -1.045093404618    -0.803592109760     0.286999690601    12.000000000000
         C           -1.268062404618     0.627505890240    -0.100311309399    12.000000000000
         C           -0.188991404618     1.435299890240    -0.058998309399    12.000000000000
         C            1.115147595382     0.839649890240     0.185238690601    12.000000000000
         C            1.247006595382    -0.491005109760    -0.019038309399    12.000000000000
         H           -0.972670404618    -0.910738109760     1.382159690601     1.007825032230
         H           -1.822062404618    -1.473310109760    -0.084470309399     1.007825032230
         H           -2.259639404618     0.978272890240    -0.369893309399     1.007825032230
         H           -0.257585404618     2.493275890240    -0.299040309399     1.007825032230
         H            1.996474595382     1.443680890240     0.367477690601     1.007825032230
         H            2.019789895382    -0.921717309760    -0.067297809399     1.007825032230

  Basis Set: AUG-CC-PVTZ
    Blend: AUG-CC-PVTZ
  Basis Set: (AUG-CC-PVTZ AUX)
    Blend: AUG-CC-PVTZ-JKFIT
	 Reference Energy          =    -267.7029499001989734 [Eh]
	 Singles Energy            =      -0.0000000000000000 [Eh]
	 Same-Spin Energy          =      -0.2738636330380427 [Eh]
	 Opposite-Spin Energy      =      -0.8862287169385226 [Eh]
	 Correlation Energy        =      -1.1600923499765652 [Eh]
	 Total Energy              =    -268.8630422501755106 [Eh]

	 ================> DF-SCS-MP2 Energies <==================
	-----------------------------------------------------------
	 SCS Same-Spin Scale       =       0.3333333333333333 [-]
	 SCS Opposite-Spin Scale   =       1.2000000000000000 [-]
	 SCS Same-Spin Energy      =      -0.0912878776793476 [Eh]
	 SCS Opposite-Spin Energy  =      -1.0634744603262269 [Eh]
	 SCS Correlation Energy    =      -1.1547623380055745 [Eh]
	 SCS Total Energy          =    -268.8577122382045559 [Eh]
	-----------------------------------------------------------

  Dipole Moment: [D]
     X:    -0.3027      Y:     0.6432      Z:     0.4232     Total:     0.8273

*** Psi4 exiting successfully. Buy a developer a beer!
