                               Psi4 1.3.2 release

  ==> Input File <==

--------------------------------------------------------------------------
#psi4
#
memory 32 gb

molecule  {
0 1
  O        0.1973020    -1.3235490    -0.2892290
  C       -1.0344600    -0.8194530     0.2767900
  C       -1.2574290     0.6116450    -0.1105210
  C       -0.1783580     1.4194390    -0.0692080
  C        1.1257810     0.8237890     0.1750290
  C        1.2576400    -0.5068660    -0.0292480
  H       -0.9620370    -0.9265990     1.3719500
  H       -1.8114290    -1.4891710    -0.0946800
  H       -2.2490060     0.9624120    -0.3801030
  H       -0.2469520     2.4774150    -0.3092500
  H        2.1697320     1.5392769     0.3908951
  H        2.2048620    -1.0348020    -0.0884010
units angstrom
no_reorient  #important for SAPT in psi4, default
symmetry c1  #important for SAPT in psi4, default
}

set PROPERTIES_ORIGIN ["COM"]
properties('MP2/aug-cc-pvtz', properties = ['dipole'])
--------------------------------------------------------------------------

    Molecular point group: c1
  Charge       = 0
  Multiplicity = 1
  Basis Set: AUG-CC-PVTZ
    Blend: AUG-CC-PVTZ
  Basis Set: (AUG-CC-PVTZ AUX)
    Blend: AUG-CC-PVTZ-JKFIT

    Orbital Energies [Eh]
    ---------------------

    Doubly Occupied:

       1A    -20.588738     2A    -11.302610     3A    -11.292312
       4A    -11.247467     5A    -11.244206     6A    -11.233023
       7A     -1.408882     8A     -1.096232     9A     -1.032910
      10A     -0.897097    11A     -0.837847    12A     -0.717302
      13A     -0.695717    14A     -0.648657    15A     -0.623095
      16A     -0.603281    17A     -0.565893    18A     -0.528285
      19A     -0.496193    20A     -0.472362    21A     -0.420360
      22A     -0.303635

  @DF-RHF Final Energy:  -267.71578661683606

   => Energetics <=

    Nuclear Repulsion Energy =            222.6382833801532399
    One-Electron Energy =                -804.1959287718090081
    Two-Electron Energy =                 313.8418587748197410
    Total Energy =                       -267.7157866168360556
  Basis Set: (AUG-CC-PVTZ AUX)
    Blend: AUG-CC-PVTZ-RI
    Molecular point group: c1

    Geometry (in Angstrom), charge = 0, multiplicity = 1:

       Center              X                  Y                   Z               Mass
    ------------   -----------------  -----------------  -----------------  -----------------
         O            0.182528023647    -1.307862953110    -0.279298575249    15.994914619570
         C           -1.049233976353    -0.803766953110     0.286720424751    12.000000000000
         C           -1.272202976353     0.627331046890    -0.100590575249    12.000000000000
         C           -0.193131976353     1.435125046890    -0.059277575249    12.000000000000
         C            1.111007023647     0.839475046890     0.184959424751    12.000000000000
         C            1.242866023647    -0.491179953110    -0.019317575249    12.000000000000
         H           -0.976810976353    -0.910912953110     1.381880424751     1.007825032230
         H           -1.826202976353    -1.473484953110    -0.084749575249     1.007825032230
         H           -2.263779976353     0.978098046890    -0.370172575249     1.007825032230
         H           -0.261725976353     2.493101046890    -0.299319575249     1.007825032230
         H            2.154958023647     1.554962946890     0.400825524751     1.007825032230
         H            2.190088023647    -1.019115953110    -0.078470575249     1.007825032230

  Basis Set: AUG-CC-PVTZ
    Blend: AUG-CC-PVTZ
  Basis Set: (AUG-CC-PVTZ AUX)
    Blend: AUG-CC-PVTZ-JKFIT
	 Reference Energy          =    -267.7157866168360556 [Eh]
	 Singles Energy            =      -0.0000000000000000 [Eh]
	 Same-Spin Energy          =      -0.2744631195080665 [Eh]
	 Opposite-Spin Energy      =      -0.8886288525242514 [Eh]
	 Correlation Energy        =      -1.1630919720323178 [Eh]
	 Total Energy              =    -268.8788785888683606 [Eh]

	 ================> DF-SCS-MP2 Energies <==================
	-----------------------------------------------------------
	 SCS Same-Spin Scale       =       0.3333333333333333 [-]
	 SCS Opposite-Spin Scale   =       1.2000000000000000 [-]
	 SCS Same-Spin Energy      =      -0.0914877065026888 [Eh]
	 SCS Opposite-Spin Energy  =      -1.0663546230291017 [Eh]
	 SCS Correlation Energy    =      -1.1578423295317906 [Eh]
	 SCS Total Energy          =    -268.8736289463678304 [Eh]
	-----------------------------------------------------------

  Dipole Moment: [D]
     X:    -0.4077      Y:     0.6021      Z:     0.4079     Total:     0.8338

*** Psi4 exiting successfully. Buy a developer a beer!
