                               Psi4 1.3.2 release

  ==> Input File <==

--------------------------------------------------------------------------
#psi4
#
memory 32 gb

molecule  {
0 1
  O        0.1973020    -1.3235490    -0.2892290
  C       -1.0344600    -0.8194530     0.2767900
  C       -1.2574290     0.6116450    -0.1105210
  C       -0.1783580     1.4194390    -0.0692080
  C        1.1257810     0.8237890     0.1750290
  C        1.1020976    -0.6266663    -0.0673850
  H       -0.9620370    -0.9265990     1.3719500
  H       -1.8114290    -1.4891710    -0.0946800
  H       -2.2490060     0.9624120    -0.3801030
  H       -0.2469520     2.4774150    -0.3092500
  H        2.0071080     1.4278200     0.3572680
  H        2.2048620    -1.0348020    -0.0884010
units angstrom
no_reorient  #important for SAPT in psi4, default
symmetry c1  #important for SAPT in psi4, default
}

set PROPERTIES_ORIGIN ["COM"]
properties('MP2/aug-cc-pvtz', properties = ['dipole'])
--------------------------------------------------------------------------

    Molecular point group: c1
  Charge       = 0
  Multiplicity = 1
  Basis Set: AUG-CC-PVTZ
    Blend: AUG-CC-PVTZ
  Basis Set: (AUG-CC-PVTZ AUX)
    Blend: AUG-CC-PVTZ-JKFIT

    Orbital Energies [Eh]
    ---------------------

    Doubly Occupied:

       1A    -20.629515     2A    -11.330202     3A    -11.308077
       4A    -11.237914     5A    -11.215232     6A    -11.215071
       7A     -1.536658     8A     -1.094854     9A     -1.034445
      10A     -0.899869    11A     -0.847695    12A     -0.746459
      13A     -0.729996    14A     -0.685630    15A     -0.650133
      16A     -0.625034    17A     -0.562909    18A     -0.546437
      19A     -0.526447    20A     -0.447009    21A     -0.408778
      22A     -0.271586

  @DF-RHF Final Energy:  -267.68290836219063

   => Energetics <=

    Nuclear Repulsion Energy =            226.1574808648653629
    One-Electron Energy =                -810.5808808324018173
    Two-Electron Energy =                 316.7404916053457669
    Total Energy =                       -267.6829083621906307
  Basis Set: (AUG-CC-PVTZ AUX)
    Blend: AUG-CC-PVTZ-RI
    Molecular point group: c1

    Geometry (in Angstrom), charge = 0, multiplicity = 1:

       Center              X                  Y                   Z               Mass
    ------------   -----------------  -----------------  -----------------  -----------------
         O            0.207276429143    -1.288970980610    -0.273307314150    15.994914619570
         C           -1.024485570857    -0.784874980610     0.292711685850    12.000000000000
         C           -1.247454570857     0.646223019390    -0.094599314150    12.000000000000
         C           -0.168383570857     1.454017019390    -0.053286314150    12.000000000000
         C            1.135755429143     0.858367019390     0.190950685850    12.000000000000
         C            1.112072029143    -0.592088280610    -0.051463314150    12.000000000000
         H           -0.952062570857    -0.892020980610     1.387871685850     1.007825032230
         H           -1.801454570857    -1.454592980610    -0.078758314150     1.007825032230
         H           -2.239031570857     0.996990019390    -0.364181314150     1.007825032230
         H           -0.236977570857     2.511993019390    -0.293328314150     1.007825032230
         H            2.017082429143     1.462398019390     0.373189685850     1.007825032230
         H            2.214836429143    -1.000223980610    -0.072479314150     1.007825032230

  Basis Set: AUG-CC-PVTZ
    Blend: AUG-CC-PVTZ
  Basis Set: (AUG-CC-PVTZ AUX)
    Blend: AUG-CC-PVTZ-JKFIT
	 Reference Energy          =    -267.6829083621906307 [Eh]
	 Singles Energy            =      -0.0000000000000000 [Eh]
	 Same-Spin Energy          =      -0.2761510820170988 [Eh]
	 Opposite-Spin Energy      =      -0.8855373539738276 [Eh]
	 Correlation Energy        =      -1.1616884359909263 [Eh]
	 Total Energy              =    -268.8445967981815556 [Eh]

	 ================> DF-SCS-MP2 Energies <==================
	-----------------------------------------------------------
	 SCS Same-Spin Scale       =       0.3333333333333333 [-]
	 SCS Opposite-Spin Scale   =       1.2000000000000000 [-]
	 SCS Same-Spin Energy      =      -0.0920503606723663 [Eh]
	 SCS Opposite-Spin Energy  =      -1.0626448247685931 [Eh]
	 SCS Correlation Energy    =      -1.1546951854409593 [Eh]
	 SCS Total Energy          =    -268.8376035476316019 [Eh]
	-----------------------------------------------------------

  Dipole Moment: [D]
     X:    -0.7689      Y:    -0.3133      Z:     0.2519     Total:     0.8677

*** Psi4 exiting successfully. Buy a developer a beer!
