                               Psi4 1.3.2 release

  ==> Input File <==

--------------------------------------------------------------------------
#psi4
#
memory 32 gb

molecule  {
0 1
  O        0.1973020    -1.3235490    -0.2892290
  C       -1.0344600    -0.8194530     0.2767900
  C       -1.2871730     0.8025528    -0.1621881
  C       -0.1783580     1.4194390    -0.0692080
  C        1.1257810     0.8237890     0.1750290
  C        1.2576400    -0.5068660    -0.0292480
  H       -0.9620370    -0.9265990     1.3719500
  H       -1.8114290    -1.4891710    -0.0946800
  H       -2.2490060     0.9624120    -0.3801030
  H       -0.2469520     2.4774150    -0.3092500
  H        2.0071080     1.4278200     0.3572680
  H        2.2048620    -1.0348020    -0.0884010
units angstrom
no_reorient  #important for SAPT in psi4, default
symmetry c1  #important for SAPT in psi4, default
}

set PROPERTIES_ORIGIN ["COM"]
properties('MP2/aug-cc-pvtz', properties = ['dipole'])
--------------------------------------------------------------------------

    Molecular point group: c1
  Charge       = 0
  Multiplicity = 1
  Basis Set: AUG-CC-PVTZ
    Blend: AUG-CC-PVTZ
  Basis Set: (AUG-CC-PVTZ AUX)
    Blend: AUG-CC-PVTZ-JKFIT

    Orbital Energies [Eh]
    ---------------------

    Doubly Occupied:

       1A    -20.587373     2A    -11.302148     3A    -11.293103
       4A    -11.233270     5A    -11.227802     6A    -11.227101
       7A     -1.404385     8A     -1.101876     9A     -1.023533
      10A     -0.902425    11A     -0.837194    12A     -0.719230
      13A     -0.711038    14A     -0.657801    15A     -0.631190
      16A     -0.607086    17A     -0.557271    18A     -0.545805
      19A     -0.507890    20A     -0.443956    21A     -0.415071
      22A     -0.313647

  @DF-RHF Final Energy:  -267.70593285941027

   => Energetics <=

    Nuclear Repulsion Energy =            221.9363940121975531
    One-Electron Energy =                -802.7842632212730223
    Two-Electron Energy =                 313.1419363496652295
    Total Energy =                       -267.7059328594102681
  Basis Set: (AUG-CC-PVTZ AUX)
    Blend: AUG-CC-PVTZ-RI
    Molecular point group: c1

    Geometry (in Angstrom), charge = 0, multiplicity = 1:

       Center              X                  Y                   Z               Mass
    ------------   -----------------  -----------------  -----------------  -----------------
         O            0.188876301313    -1.334417256222    -0.271328309890    15.994914619570
         C           -1.042885698687    -0.830321256222     0.294690690110    12.000000000000
         C           -1.295598698687     0.791684543778    -0.144287409890    12.000000000000
         C           -0.186783698687     1.408570743778    -0.051307309890    12.000000000000
         C            1.117355301313     0.812920743778     0.192929690110    12.000000000000
         C            1.249214301313    -0.517734256222    -0.011347309890    12.000000000000
         H           -0.970462698687    -0.937467256222     1.389850690110     1.007825032230
         H           -1.819854698687    -1.500039256222    -0.076779309890     1.007825032230
         H           -2.257431698687     0.951543743778    -0.362202309890     1.007825032230
         H           -0.255377698687     2.466546743778    -0.291349309890     1.007825032230
         H            1.998682301313     1.416951743778     0.375168690110     1.007825032230
         H            2.196436301313    -1.045670256222    -0.070500309890     1.007825032230

  Basis Set: AUG-CC-PVTZ
    Blend: AUG-CC-PVTZ
  Basis Set: (AUG-CC-PVTZ AUX)
    Blend: AUG-CC-PVTZ-JKFIT
	 Reference Energy          =    -267.7059328594102681 [Eh]
	 Singles Energy            =      -0.0000000000000000 [Eh]
	 Same-Spin Energy          =      -0.2730036521919499 [Eh]
	 Opposite-Spin Energy      =      -0.8862635297972974 [Eh]
	 Correlation Energy        =      -1.1592671819892473 [Eh]
	 Total Energy              =    -268.8652000413995324 [Eh]

	 ================> DF-SCS-MP2 Energies <==================
	-----------------------------------------------------------
	 SCS Same-Spin Scale       =       0.3333333333333333 [-]
	 SCS Opposite-Spin Scale   =       1.2000000000000000 [-]
	 SCS Same-Spin Energy      =      -0.0910012173973166 [Eh]
	 SCS Opposite-Spin Energy  =      -1.0635162357567569 [Eh]
	 SCS Correlation Energy    =      -1.1545174531540736 [Eh]
	 SCS Total Energy          =    -268.8604503125643532 [Eh]
	-----------------------------------------------------------

  Dipole Moment: [D]
     X:    -0.3738      Y:     0.5866      Z:     0.4143     Total:     0.8096

*** Psi4 exiting successfully. Buy a developer a beer!
