                               Psi4 1.3.2 release

  ==> Input File <==

--------------------------------------------------------------------------
#psi4
#
memory 32 gb

molecule  {
0 1
  O        0.1973020    -1.3235490    -0.2892290
  C       -1.0466818    -0.8394704     0.2674577
  C       -1.2574290     0.6116450    -0.1105210
  C       -0.1783580     1.4194390    -0.0692080
  C        1.1257810     0.8237890     0.1750290
  C        1.2576400    -0.5068660    -0.0292480
  H       -0.9620370    -0.9265990     1.3719500
  H       -1.8114290    -1.4891710    -0.0946800
  H       -2.2490060     0.9624120    -0.3801030
  H       -0.2469520     2.4774150    -0.3092500
  H        2.0071080     1.4278200     0.3572680
  H        2.2048620    -1.0348020    -0.0884010
units angstrom
no_reorient  #important for SAPT in psi4, default
symmetry c1  #important for SAPT in psi4, default
}

set PROPERTIES_ORIGIN ["COM"]
properties('MP2/aug-cc-pvtz', properties = ['dipole'])
--------------------------------------------------------------------------

    Molecular point group: c1
  Charge       = 0
  Multiplicity = 1
  Basis Set: AUG-CC-PVTZ
    Blend: AUG-CC-PVTZ
  Basis Set: (AUG-CC-PVTZ AUX)
    Blend: AUG-CC-PVTZ-JKFIT

    Orbital Energies [Eh]
    ---------------------

    Doubly Occupied:

       1A    -20.586303     2A    -11.300712     3A    -11.291335
       4A    -11.241407     5A    -11.232217     6A    -11.225896
       7A     -1.406300     8A     -1.094677     9A     -1.034193
      10A     -0.899591    11A     -0.839799    12A     -0.718799
      13A     -0.701657    14A     -0.649234    15A     -0.635515
      16A     -0.604480    17A     -0.573034    18A     -0.531268
      19A     -0.511670    20A     -0.468004    21A     -0.418645
      22A     -0.301629

  @DF-RHF Final Energy:  -267.73791441512458

   => Energetics <=

    Nuclear Repulsion Energy =            223.2253241467593909
    One-Electron Energy =                -805.3937434669200002
    Two-Electron Energy =                 314.4305049050360594
    Total Energy =                       -267.7379144151245782
  Basis Set: (AUG-CC-PVTZ AUX)
    Blend: AUG-CC-PVTZ-RI
    Molecular point group: c1

    Geometry (in Angstrom), charge = 0, multiplicity = 1:

       Center              X                  Y                   Z               Mass
    ------------   -----------------  -----------------  -----------------  -----------------
         O            0.186313385410    -1.303565904833    -0.277520485082    15.994914619570
         C           -1.057670414590    -0.819487304833     0.279166214918    12.000000000000
         C           -1.268417614590     0.631628095167    -0.098812485082    12.000000000000
         C           -0.189346614590     1.439422095167    -0.057499485082    12.000000000000
         C            1.114792385410     0.843772095167     0.186737514918    12.000000000000
         C            1.246651385410    -0.486882904833    -0.017539485082    12.000000000000
         H           -0.973025614590    -0.906615904833     1.383658514918     1.007825032230
         H           -1.822417614590    -1.469187904833    -0.082971485082     1.007825032230
         H           -2.259994614590     0.982395095167    -0.368394485082     1.007825032230
         H           -0.257940614590     2.497398095167    -0.297541485082     1.007825032230
         H            1.996119385410     1.447803095167     0.368976514918     1.007825032230
         H            2.193873385410    -1.014818904833    -0.076692485082     1.007825032230

  Basis Set: AUG-CC-PVTZ
    Blend: AUG-CC-PVTZ
  Basis Set: (AUG-CC-PVTZ AUX)
    Blend: AUG-CC-PVTZ-JKFIT
	 Reference Energy          =    -267.7379144151245782 [Eh]
	 Singles Energy            =      -0.0000000000000000 [Eh]
	 Same-Spin Energy          =      -0.2738866824017634 [Eh]
	 Opposite-Spin Energy      =      -0.8864705601096238 [Eh]
	 Correlation Energy        =      -1.1603572425113873 [Eh]
	 Total Energy              =    -268.8982716576359735 [Eh]

	 ================> DF-SCS-MP2 Energies <==================
	-----------------------------------------------------------
	 SCS Same-Spin Scale       =       0.3333333333333333 [-]
	 SCS Opposite-Spin Scale   =       1.2000000000000000 [-]
	 SCS Same-Spin Energy      =      -0.0912955608005878 [Eh]
	 SCS Opposite-Spin Energy  =      -1.0637646721315486 [Eh]
	 SCS Correlation Energy    =      -1.1550602329321364 [Eh]
	 SCS Total Energy          =    -268.8929746480567360 [Eh]
	-----------------------------------------------------------

  Dipole Moment: [D]
     X:    -0.3534      Y:     0.5945      Z:     0.4049     Total:     0.8014

*** Psi4 exiting successfully. Buy a developer a beer!
