                               Psi4 1.4a3.dev225

  ==> Input File <==

--------------------------------------------------------------------------
#psi4
#
memory 32 gb

molecule  {
0 1
  O        0.1973020    -1.3235490    -0.2892290
  C       -1.0344600    -0.8194530     0.2767900
  C       -1.2574290     0.6116450    -0.1105210
  C       -0.1783580     1.4194390    -0.0692080
  C        1.1257810     0.8237890     0.1750290
  C        1.2576400    -0.5068660    -0.0292480
  H       -0.9607235    -0.9285422     1.3918120
  H       -1.8114290    -1.4891710    -0.0946800
  H       -2.2490060     0.9624120    -0.3801030
  H       -0.2469520     2.4774150    -0.3092500
  H        2.0071080     1.4278200     0.3572680
  H        2.2048620    -1.0348020    -0.0884010
units angstrom
no_reorient  #important for SAPT in psi4, default
symmetry c1  #important for SAPT in psi4, default
}

set PROPERTIES_ORIGIN ["COM"]
properties('MP2/aug-cc-pvtz', properties = ['dipole'])
--------------------------------------------------------------------------

    Molecular point group: c1
  Charge       = 0
  Multiplicity = 1
  Basis Set: AUG-CC-PVTZ
    Blend: AUG-CC-PVTZ
  Basis Set: (AUG-CC-PVTZ AUX)
    Blend: AUG-CC-PVTZ-JKFIT

    Orbital Energies [Eh]
    ---------------------

    Doubly Occupied:

       1A    -20.587473     2A    -11.301009     3A    -11.293491
       4A    -11.241854     5A    -11.231559     6A    -11.226336
       7A     -1.407536     8A     -1.096460     9A     -1.034169
      10A     -0.897465    11A     -0.840780    12A     -0.718219
      13A     -0.701390    14A     -0.649910    15A     -0.632679
      16A     -0.605774    17A     -0.572144    18A     -0.531547
      19A     -0.507606    20A     -0.470757    21A     -0.418966
      22A     -0.302301

  @DF-RHF Final Energy:  -267.73754162080587

   => Energetics <=

    Nuclear Repulsion Energy =            223.4036824860290835
    One-Electron Energy =                -805.7435964936820483
    Two-Electron Energy =                 314.6023723868470938
    Total Energy =                       -267.7375416208058709
  Basis Set: (AUG-CC-PVTZ AUX)
    Blend: AUG-CC-PVTZ-RI
    Molecular point group: c1

    Geometry (in Angstrom), charge = 0, multiplicity = 1:

       Center              X                  Y                   Z               Mass
    ------------   -----------------  -----------------  -----------------  -----------------
         O            0.184509606589    -1.306469914815    -0.279129480941    15.994914619570
         C           -1.047252393411    -0.802373914815     0.286889519059    12.000000000000
         C           -1.270221393411     0.628724085185    -0.100421480941    12.000000000000
         C           -0.191150393411     1.436518085185    -0.059108480941    12.000000000000
         C            1.112988606589     0.840868085185     0.185128519059    12.000000000000
         C            1.244847606589    -0.489786914815    -0.019148480941    12.000000000000
         H           -0.973515893411    -0.911463114815     1.401911519059     1.007825032230
         H           -1.824221393411    -1.472091914815    -0.084580480941     1.007825032230
         H           -2.261798393411     0.979491085185    -0.370003480941     1.007825032230
         H           -0.259744393411     2.494494085185    -0.299150480941     1.007825032230
         H            1.994315606589     1.444899085185     0.367367519059     1.007825032230
         H            2.192069606589    -1.017722914815    -0.078301480941     1.007825032230

  Basis Set: AUG-CC-PVTZ
    Blend: AUG-CC-PVTZ
  Basis Set: (AUG-CC-PVTZ AUX)
    Blend: AUG-CC-PVTZ-JKFIT
	 Reference Energy          =    -267.7375416208058709 [Eh]
	 Singles Energy            =      -0.0000000000000000 [Eh]
	 Same-Spin Energy          =      -0.2741734955931109 [Eh]
	 Opposite-Spin Energy      =      -0.8869137518476663 [Eh]
	 Correlation Energy        =      -1.1610872474407772 [Eh]
	 Total Energy              =    -268.8986288682466466 [Eh]

	 ================> DF-SCS-MP2 Energies <==================
	-----------------------------------------------------------
	 SCS Same-Spin Scale       =       0.3333333333333333 [-]
	 SCS Opposite-Spin Scale   =       1.2000000000000000 [-]
	 SCS Same-Spin Energy      =      -0.0913911651977036 [Eh]
	 SCS Opposite-Spin Energy  =      -1.0642965022171995 [Eh]
	 SCS Correlation Energy    =      -1.1556876674149033 [Eh]
	 SCS Total Energy          =    -268.8932292882207662 [Eh]
	-----------------------------------------------------------

  Dipole Moment: [D]
     X:    -0.3204      Y:     0.6320      Z:     0.4023     Total:     0.8148

*** Psi4 exiting successfully. Buy a developer a beer!
