                               Psi4 1.3.2 release

  ==> Input File <==

--------------------------------------------------------------------------
#psi4
#
memory 32 gb

molecule  {
0 1
  O        0.1973020    -1.3235490    -0.2892290
  C       -1.0344600    -0.8194530     0.2767900
  C       -1.2570509     0.6183119    -0.0852208
  C       -0.1783580     1.4194390    -0.0692080
  C        1.1257810     0.8237890     0.1750290
  C        1.2576400    -0.5068660    -0.0292480
  H       -0.9620370    -0.9265990     1.3719500
  H       -1.8114290    -1.4891710    -0.0946800
  H       -2.2490060     0.9624120    -0.3801030
  H       -0.2469520     2.4774150    -0.3092500
  H        2.0071080     1.4278200     0.3572680
  H        2.2048620    -1.0348020    -0.0884010
units angstrom
no_reorient  #important for SAPT in psi4, default
symmetry c1  #important for SAPT in psi4, default
}

set PROPERTIES_ORIGIN ["COM"]
properties('MP2/aug-cc-pvtz', properties = ['dipole'])
--------------------------------------------------------------------------

    Molecular point group: c1
  Charge       = 0
  Multiplicity = 1
  Basis Set: AUG-CC-PVTZ
    Blend: AUG-CC-PVTZ
  Basis Set: (AUG-CC-PVTZ AUX)
    Blend: AUG-CC-PVTZ-JKFIT

    Orbital Energies [Eh]
    ---------------------

    Doubly Occupied:

       1A    -20.587131     2A    -11.300826     3A    -11.291101
       4A    -11.240973     5A    -11.231255     6A    -11.226064
       7A     -1.407310     8A     -1.097228     9A     -1.034554
      10A     -0.899123    11A     -0.840428    12A     -0.718147
      13A     -0.702577    14A     -0.650388    15A     -0.632660
      16A     -0.606029    17A     -0.571554    18A     -0.532249
      19A     -0.509165    20A     -0.470345    21A     -0.419427
      22A     -0.302670

  @DF-RHF Final Energy:  -267.73828335838255

   => Energetics <=

    Nuclear Repulsion Energy =            223.5194537687265210
    One-Electron Energy =                -805.9730637888285401
    Two-Electron Energy =                 314.7153266617194731
    Total Energy =                       -267.7382833583825459
  Basis Set: (AUG-CC-PVTZ AUX)
    Blend: AUG-CC-PVTZ-RI
    Molecular point group: c1

    Geometry (in Angstrom), charge = 0, multiplicity = 1:

       Center              X                  Y                   Z               Mass
    ------------   -----------------  -----------------  -----------------  -----------------
         O            0.184470438516    -1.307468931668    -0.282586069597    15.994914619570
         C           -1.047291561484    -0.803372931668     0.283432930403    12.000000000000
         C           -1.269882461484     0.634391968332    -0.078577869597    12.000000000000
         C           -0.191189561484     1.435519068332    -0.062565069597    12.000000000000
         C            1.112949438516     0.839869068332     0.181671930403    12.000000000000
         C            1.244808438516    -0.490785931668    -0.022605069597    12.000000000000
         H           -0.974868561484    -0.910518931668     1.378592930403     1.007825032230
         H           -1.824260561484    -1.473090931668    -0.088037069597     1.007825032230
         H           -2.261837561484     0.978492068332    -0.373460069597     1.007825032230
         H           -0.259783561484     2.493495068332    -0.302607069597     1.007825032230
         H            1.994276438516     1.443900068332     0.363910930403     1.007825032230
         H            2.192030438516    -1.018721931668    -0.081758069597     1.007825032230

  Basis Set: AUG-CC-PVTZ
    Blend: AUG-CC-PVTZ
  Basis Set: (AUG-CC-PVTZ AUX)
    Blend: AUG-CC-PVTZ-JKFIT
	 Reference Energy          =    -267.7382833583825459 [Eh]
	 Singles Energy            =      -0.0000000000000000 [Eh]
	 Same-Spin Energy          =      -0.2740292189926103 [Eh]
	 Opposite-Spin Energy      =      -0.8865776164333785 [Eh]
	 Correlation Energy        =      -1.1606068354259889 [Eh]
	 Total Energy              =    -268.8988901938085405 [Eh]

	 ================> DF-SCS-MP2 Energies <==================
	-----------------------------------------------------------
	 SCS Same-Spin Scale       =       0.3333333333333333 [-]
	 SCS Opposite-Spin Scale   =       1.2000000000000000 [-]
	 SCS Same-Spin Energy      =      -0.0913430729975368 [Eh]
	 SCS Opposite-Spin Energy  =      -1.0638931397200542 [Eh]
	 SCS Correlation Energy    =      -1.1552362127175910 [Eh]
	 SCS Total Energy          =    -268.8935195711001143 [Eh]
	-----------------------------------------------------------

  Dipole Moment: [D]
     X:    -0.3252      Y:     0.6182      Z:     0.3907     Total:     0.8003

*** Psi4 exiting successfully. Buy a developer a beer!
