                               Psi4 1.3.2 release

  ==> Input File <==

--------------------------------------------------------------------------
#psi4
#
memory 32 gb

molecule  {
0 1
  O        0.1973020    -1.3235490    -0.2892290
  C       -1.0344600    -0.8194530     0.2767900
  C       -1.2574290     0.6116450    -0.1105210
  C       -0.1783580     1.4194390    -0.0692080
  C        1.0525626     0.6922804     0.1978201
  C        1.2576400    -0.5068660    -0.0292480
  H       -0.9620370    -0.9265990     1.3719500
  H       -1.8114290    -1.4891710    -0.0946800
  H       -2.2490060     0.9624120    -0.3801030
  H       -0.2469520     2.4774150    -0.3092500
  H        2.0071080     1.4278200     0.3572680
  H        2.2048620    -1.0348020    -0.0884010
units angstrom
no_reorient  #important for SAPT in psi4, default
symmetry c1  #important for SAPT in psi4, default
}

set PROPERTIES_ORIGIN ["COM"]
properties('MP2/aug-cc-pvtz', properties = ['dipole'])
--------------------------------------------------------------------------

    Molecular point group: c1
  Charge       = 0
  Multiplicity = 1
  Basis Set: AUG-CC-PVTZ
    Blend: AUG-CC-PVTZ
  Basis Set: (AUG-CC-PVTZ AUX)
    Blend: AUG-CC-PVTZ-JKFIT

    Orbital Energies [Eh]
    ---------------------

    Doubly Occupied:

       1A    -20.576292     2A    -11.289821     3A    -11.277853
       4A    -11.242744     5A    -11.234250     6A    -11.220727
       7A     -1.404002     8A     -1.105785     9A     -1.047745
      10A     -0.907857    11A     -0.831600    12A     -0.723213
      13A     -0.696960    14A     -0.652577    15A     -0.621158
      16A     -0.614442    17A     -0.566715    18A     -0.525991
      19A     -0.483413    20A     -0.478382    21A     -0.423519
      22A     -0.316921

  @DF-RHF Final Energy:  -267.71059349742626

   => Energetics <=

    Nuclear Repulsion Energy =            225.9097517092155556
    One-Electron Energy =                -810.7567549254288224
    Two-Electron Energy =                 317.1364097187869788
    Total Energy =                       -267.7105934974262595
  Basis Set: (AUG-CC-PVTZ AUX)
    Blend: AUG-CC-PVTZ-RI
    Molecular point group: c1

    Geometry (in Angstrom), charge = 0, multiplicity = 1:

       Center              X                  Y                   Z               Mass
    ------------   -----------------  -----------------  -----------------  -----------------
         O            0.195235162136    -1.287258445183    -0.282219071601    15.994914619570
         C           -1.036526837864    -0.783162445183     0.283799928399    12.000000000000
         C           -1.259495837864     0.647935554817    -0.103511071601    12.000000000000
         C           -0.180424837864     1.455729554817    -0.062198071601    12.000000000000
         C            1.050495762136     0.728570954817     0.204830028399    12.000000000000
         C            1.255573162136    -0.470575445183    -0.022238071601    12.000000000000
         H           -0.964103837864    -0.890308445183     1.378959928399     1.007825032230
         H           -1.813495837864    -1.452880445183    -0.087670071601     1.007825032230
         H           -2.251072837864     0.998702554817    -0.373093071601     1.007825032230
         H           -0.249018837864     2.513705554817    -0.302240071601     1.007825032230
         H            2.005041162136     1.464110554817     0.364277928399     1.007825032230
         H            2.202795162136    -0.998511445183    -0.081391071601     1.007825032230

  Basis Set: AUG-CC-PVTZ
    Blend: AUG-CC-PVTZ
  Basis Set: (AUG-CC-PVTZ AUX)
    Blend: AUG-CC-PVTZ-JKFIT
	 Reference Energy          =    -267.7105934974262595 [Eh]
	 Singles Energy            =      -0.0000000000000000 [Eh]
	 Same-Spin Energy          =      -0.2736051479437449 [Eh]
	 Opposite-Spin Energy      =      -0.8855312195722059 [Eh]
	 Correlation Energy        =      -1.1591363675159507 [Eh]
	 Total Energy              =    -268.8697298649422009 [Eh]

	 ================> DF-SCS-MP2 Energies <==================
	-----------------------------------------------------------
	 SCS Same-Spin Scale       =       0.3333333333333333 [-]
	 SCS Opposite-Spin Scale   =       1.2000000000000000 [-]
	 SCS Same-Spin Energy      =      -0.0912017159812483 [Eh]
	 SCS Opposite-Spin Energy  =      -1.0626374634866471 [Eh]
	 SCS Correlation Energy    =      -1.1538391794678955 [Eh]
	 SCS Total Energy          =    -268.8644326768941824 [Eh]
	-----------------------------------------------------------

  Dipole Moment: [D]
     X:    -0.4078      Y:     0.7601      Z:     0.3697     Total:     0.9385

*** Psi4 exiting successfully. Buy a developer a beer!
