                               Psi4 1.3.2 release

  ==> Input File <==

--------------------------------------------------------------------------
#psi4
#
memory 32 gb

molecule  {
0 1
  O        0.1604493    -1.3010367    -0.3804746
  C       -1.0344600    -0.8194530     0.2767900
  C       -1.2574290     0.6116450    -0.1105210
  C       -0.1783580     1.4194390    -0.0692080
  C        1.1257810     0.8237890     0.1750290
  C        1.2576400    -0.5068660    -0.0292480
  H       -0.9620370    -0.9265990     1.3719500
  H       -1.8114290    -1.4891710    -0.0946800
  H       -2.2490060     0.9624120    -0.3801030
  H       -0.2469520     2.4774150    -0.3092500
  H        2.0071080     1.4278200     0.3572680
  H        2.2048620    -1.0348020    -0.0884010
units angstrom
no_reorient  #important for SAPT in psi4, default
symmetry c1  #important for SAPT in psi4, default
}

set PROPERTIES_ORIGIN ["COM"]
properties('MP2/aug-cc-pvtz', properties = ['dipole'])
--------------------------------------------------------------------------

    Molecular point group: c1
  Charge       = 0
  Multiplicity = 1
  Basis Set: AUG-CC-PVTZ
    Blend: AUG-CC-PVTZ
  Basis Set: (AUG-CC-PVTZ AUX)
    Blend: AUG-CC-PVTZ-JKFIT

    Orbital Energies [Eh]
    ---------------------

    Doubly Occupied:

       1A    -20.584150     2A    -11.300191     3A    -11.289614
       4A    -11.240854     5A    -11.232840     6A    -11.230890
       7A     -1.393262     8A     -1.096410     9A     -1.032473
      10A     -0.897254    11A     -0.836794    12A     -0.715952
      13A     -0.705706    14A     -0.644298    15A     -0.625485
      16A     -0.602534    17A     -0.573217    18A     -0.535970
      19A     -0.503655    20A     -0.467302    21A     -0.417321
      22A     -0.307497

  @DF-RHF Final Energy:  -267.73397877599240

   => Energetics <=

    Nuclear Repulsion Energy =            223.1030193969280333
    One-Electron Energy =                -805.2066564798614081
    Two-Electron Energy =                 314.3696583069409485
    Total Energy =                       -267.7339787759923979
  Basis Set: (AUG-CC-PVTZ AUX)
    Blend: AUG-CC-PVTZ-RI
    Molecular point group: c1

    Geometry (in Angstrom), charge = 0, multiplicity = 1:

       Center              X                  Y                   Z               Mass
    ------------   -----------------  -----------------  -----------------  -----------------
         O            0.154857859049    -1.288370492592    -0.352341812127    15.994914619570
         C           -1.040051440951    -0.806786792592     0.304922787873    12.000000000000
         C           -1.263020440951     0.624311207408    -0.082388212127    12.000000000000
         C           -0.183949440951     1.432105207408    -0.041075212127    12.000000000000
         C            1.120189559049     0.836455207408     0.203161787873    12.000000000000
         C            1.252048559049    -0.494199792592    -0.001115212127    12.000000000000
         H           -0.967628440951    -0.913932792592     1.400082787873     1.007825032230
         H           -1.817020440951    -1.476504792592    -0.066547212127     1.007825032230
         H           -2.254597440951     0.975078207408    -0.351970212127     1.007825032230
         H           -0.252543440951     2.490081207408    -0.281117212127     1.007825032230
         H            2.001516559049     1.440486207408     0.385400787873     1.007825032230
         H            2.199270559049    -1.022135792592    -0.060268212127     1.007825032230

  Basis Set: AUG-CC-PVTZ
    Blend: AUG-CC-PVTZ
  Basis Set: (AUG-CC-PVTZ AUX)
    Blend: AUG-CC-PVTZ-JKFIT
	 Reference Energy          =    -267.7339787759923979 [Eh]
	 Singles Energy            =      -0.0000000000000000 [Eh]
	 Same-Spin Energy          =      -0.2743593627332488 [Eh]
	 Opposite-Spin Energy      =      -0.8880733887739113 [Eh]
	 Correlation Energy        =      -1.1624327515071600 [Eh]
	 Total Energy              =    -268.8964115274995379 [Eh]

	 ================> DF-SCS-MP2 Energies <==================
	-----------------------------------------------------------
	 SCS Same-Spin Scale       =       0.3333333333333333 [-]
	 SCS Opposite-Spin Scale   =       1.2000000000000000 [-]
	 SCS Same-Spin Energy      =      -0.0914531209110829 [Eh]
	 SCS Opposite-Spin Energy  =      -1.0656880665286934 [Eh]
	 SCS Correlation Energy    =      -1.1571411874397763 [Eh]
	 SCS Total Energy          =    -268.8911199634321747 [Eh]
	-----------------------------------------------------------

  Dipole Moment: [D]
     X:    -0.2376      Y:     0.7215      Z:     0.5525     Total:     0.9393

*** Psi4 exiting successfully. Buy a developer a beer!
