                               Psi4 1.3.2 release

  ==> Input File <==

--------------------------------------------------------------------------
#psi4
#
memory 32 gb

molecule  {
0 1
  O        0.1973020    -1.3235490    -0.2892290
  C       -1.0344600    -0.8194530     0.2767900
  C       -1.2574290     0.6116450    -0.1105210
  C       -0.1163647     1.5523946    -0.0285320
  C        1.1257810     0.8237890     0.1750290
  C        1.2576400    -0.5068660    -0.0292480
  H       -0.9620370    -0.9265990     1.3719500
  H       -1.8114290    -1.4891710    -0.0946800
  H       -2.2490060     0.9624120    -0.3801030
  H       -0.2469520     2.4774150    -0.3092500
  H        2.0071080     1.4278200     0.3572680
  H        2.2048620    -1.0348020    -0.0884010
units angstrom
no_reorient  #important for SAPT in psi4, default
symmetry c1  #important for SAPT in psi4, default
}

set PROPERTIES_ORIGIN ["COM"]
properties('MP2/aug-cc-pvtz', properties = ['dipole'])
--------------------------------------------------------------------------

    Molecular point group: c1
  Charge       = 0
  Multiplicity = 1
  Basis Set: AUG-CC-PVTZ
    Blend: AUG-CC-PVTZ
  Basis Set: (AUG-CC-PVTZ AUX)
    Blend: AUG-CC-PVTZ-JKFIT

    Orbital Energies [Eh]
    ---------------------

    Doubly Occupied:

       1A    -20.587786     2A    -11.302219     3A    -11.295217
       4A    -11.252197     5A    -11.251038     6A    -11.229945
       7A     -1.407470     8A     -1.082215     9A     -1.031885
      10A     -0.900244    11A     -0.843791    12A     -0.731706
      13A     -0.703978    14A     -0.653416    15A     -0.633105
      16A     -0.609799    17A     -0.580136    18A     -0.531634
      19A     -0.490378    20A     -0.482536    21A     -0.408839
      22A     -0.288738

  @DF-RHF Final Energy:  -267.70234246564627

   => Energetics <=

    Nuclear Repulsion Energy =            221.3864536249036519
    One-Electron Energy =                -801.5810471305310330
    Two-Electron Energy =                 312.4922510399811131
    Total Energy =                       -267.7023424656462680
  Basis Set: (AUG-CC-PVTZ AUX)
    Blend: AUG-CC-PVTZ-RI
    Molecular point group: c1

    Geometry (in Angstrom), charge = 0, multiplicity = 1:

       Center              X                  Y                   Z               Mass
    ------------   -----------------  -----------------  -----------------  -----------------
         O            0.175458181156    -1.325940774104    -0.284835038467    15.994914619570
         C           -1.056303818844    -0.821844774104     0.281183961533    12.000000000000
         C           -1.279272818844     0.609253225896    -0.106127038467    12.000000000000
         C           -0.138208518844     1.550002825896    -0.024138038467    12.000000000000
         C            1.103937181156     0.821397225896     0.179422961533    12.000000000000
         C            1.235796181156    -0.509257774104    -0.024854038467    12.000000000000
         H           -0.983880818844    -0.928990774104     1.376343961533     1.007825032230
         H           -1.833272818844    -1.491562774104    -0.090286038467     1.007825032230
         H           -2.270849818844     0.960020225896    -0.375709038467     1.007825032230
         H           -0.268795818844     2.475023225896    -0.304856038467     1.007825032230
         H            1.985264181156     1.425428225896     0.361661961533     1.007825032230
         H            2.183018181156    -1.037193774104    -0.084007038467     1.007825032230

  Basis Set: AUG-CC-PVTZ
    Blend: AUG-CC-PVTZ
  Basis Set: (AUG-CC-PVTZ AUX)
    Blend: AUG-CC-PVTZ-JKFIT
	 Reference Energy          =    -267.7023424656462680 [Eh]
	 Singles Energy            =      -0.0000000000000000 [Eh]
	 Same-Spin Energy          =      -0.2762401771710953 [Eh]
	 Opposite-Spin Energy      =      -0.8921155012539217 [Eh]
	 Correlation Energy        =      -1.1683556784250171 [Eh]
	 Total Energy              =    -268.8706981440712980 [Eh]

	 ================> DF-SCS-MP2 Energies <==================
	-----------------------------------------------------------
	 SCS Same-Spin Scale       =       0.3333333333333333 [-]
	 SCS Opposite-Spin Scale   =       1.2000000000000000 [-]
	 SCS Same-Spin Energy      =      -0.0920800590570318 [Eh]
	 SCS Opposite-Spin Energy  =      -1.0705386015047060 [Eh]
	 SCS Correlation Energy    =      -1.1626186605617379 [Eh]
	 SCS Total Energy          =    -268.8649611262080157 [Eh]
	-----------------------------------------------------------

  Dipole Moment: [D]
     X:    -0.3348      Y:     0.5900      Z:     0.3676     Total:     0.7716

*** Psi4 exiting successfully. Buy a developer a beer!
