                               Psi4 1.4a3.dev225

  ==> Input File <==

--------------------------------------------------------------------------
#psi4
#
memory 32 gb

molecule  {
0 1
  O        0.1973020    -1.3235490    -0.2892290
  C       -1.0344600    -0.8194530     0.2767900
  C       -1.2574290     0.6116450    -0.1105210
  C       -0.1783580     1.4194390    -0.0692080
  C        1.1257810     0.8237890     0.1750290
  C        1.2576400    -0.5068660    -0.0292480
  H       -0.9620370    -0.9265990     1.3719500
  H       -1.8114290    -1.4891710    -0.0946800
  H       -2.2490060     0.9624120    -0.3801030
  H       -0.2437969     2.4287515    -0.2982088
  H        2.0071080     1.4278200     0.3572680
  H        2.2048620    -1.0348020    -0.0884010
units angstrom
no_reorient  #important for SAPT in psi4, default
symmetry c1  #important for SAPT in psi4, default
}

set PROPERTIES_ORIGIN ["COM"]
properties('MP2/aug-cc-pvtz', properties = ['dipole'])
--------------------------------------------------------------------------

    Molecular point group: c1
  Charge       = 0
  Multiplicity = 1
  Basis Set: AUG-CC-PVTZ
    Blend: AUG-CC-PVTZ
  Basis Set: (AUG-CC-PVTZ AUX)
    Blend: AUG-CC-PVTZ-JKFIT

    Orbital Energies [Eh]
    ---------------------

    Doubly Occupied:

       1A    -20.586839     2A    -11.300515     3A    -11.290793
       4A    -11.235896     5A    -11.231004     6A    -11.225639
       7A     -1.407078     8A     -1.097349     9A     -1.034285
      10A     -0.900764    11A     -0.841816    12A     -0.722439
      13A     -0.703899    14A     -0.649618    15A     -0.633422
      16A     -0.609645    17A     -0.573508    18A     -0.532349
      19A     -0.508257    20A     -0.472444    21A     -0.418590
      22A     -0.301991

  @DF-RHF Final Energy:  -267.73730591751610

   => Energetics <=

    Nuclear Repulsion Energy =            223.7427951629973961
    One-Electron Energy =                -806.4039212270409962
    Two-Electron Energy =                 314.9238201465275324
    Total Energy =                       -267.7373059175160961
  Basis Set: (AUG-CC-PVTZ AUX)
    Blend: AUG-CC-PVTZ-RI
    Molecular point group: c1

    Geometry (in Angstrom), charge = 0, multiplicity = 1:

       Center              X                  Y                   Z               Mass
    ------------   -----------------  -----------------  -----------------  -----------------
         O            0.184486983864    -1.305895989686    -0.279021123786    15.994914619570
         C           -1.047275016136    -0.801799989686     0.286997876214    12.000000000000
         C           -1.270244016136     0.629298010314    -0.100313123786    12.000000000000
         C           -0.191173016136     1.437092010314    -0.059000123786    12.000000000000
         C            1.112965983864     0.841442010314     0.185236876214    12.000000000000
         C            1.244824983864    -0.489212989686    -0.019040123786    12.000000000000
         H           -0.974852016136    -0.908945989686     1.382157876214     1.007825032230
         H           -1.824244016136    -1.471517989686    -0.084472123786     1.007825032230
         H           -2.261821016136     0.980065010314    -0.369895123786     1.007825032230
         H           -0.256611916136     2.446404510314    -0.288000923786     1.007825032230
         H            1.994292983864     1.445473010314     0.367475876214     1.007825032230
         H            2.192046983864    -1.017148989686    -0.078193123786     1.007825032230

  Basis Set: AUG-CC-PVTZ
    Blend: AUG-CC-PVTZ
  Basis Set: (AUG-CC-PVTZ AUX)
    Blend: AUG-CC-PVTZ-JKFIT
	 Reference Energy          =    -267.7373059175160961 [Eh]
	 Singles Energy            =      -0.0000000000000000 [Eh]
	 Same-Spin Energy          =      -0.2740549086227023 [Eh]
	 Opposite-Spin Energy      =      -0.8864968523540021 [Eh]
	 Correlation Energy        =      -1.1605517609767044 [Eh]
	 Total Energy              =    -268.8978576784928123 [Eh]

	 ================> DF-SCS-MP2 Energies <==================
	-----------------------------------------------------------
	 SCS Same-Spin Scale       =       0.3333333333333333 [-]
	 SCS Opposite-Spin Scale   =       1.2000000000000000 [-]
	 SCS Same-Spin Energy      =      -0.0913516362075674 [Eh]
	 SCS Opposite-Spin Energy  =      -1.0637962228248026 [Eh]
	 SCS Correlation Energy    =      -1.1551478590323701 [Eh]
	 SCS Total Energy          =    -268.8924537765484502 [Eh]
	-----------------------------------------------------------

  Dipole Moment: [D]
     X:    -0.3331      Y:     0.6398      Z:     0.4168     Total:     0.8331

*** Psi4 exiting successfully. Buy a developer a beer!
