                               Psi4 1.4a3.dev225

  ==> Input File <==

--------------------------------------------------------------------------
#psi4
#
memory 32 gb

molecule  {
0 1
  O        0.1973020    -1.3235490    -0.2892290
  C       -1.0344600    -0.8194530     0.2767900
  C       -1.2574290     0.6116450    -0.1105210
  C       -0.1783580     1.4194390    -0.0692080
  C        1.1257810     0.8237890     0.1750290
  C        1.2576400    -0.5068660    -0.0292480
  H       -0.9620370    -0.9265990     1.3719500
  H       -1.8114290    -1.4891710    -0.0946800
  H       -2.2490060     0.9624120    -0.3801030
  H       -0.2469520     2.4774150    -0.3092500
  H        2.0071080     1.4278200     0.3572680
  H        2.1874181    -1.0250796    -0.0873116
units angstrom
no_reorient  #important for SAPT in psi4, default
symmetry c1  #important for SAPT in psi4, default
}

set PROPERTIES_ORIGIN ["COM"]
properties('MP2/aug-cc-pvtz', properties = ['dipole'])
--------------------------------------------------------------------------

    Molecular point group: c1
  Charge       = 0
  Multiplicity = 1
  Basis Set: AUG-CC-PVTZ
    Blend: AUG-CC-PVTZ
  Basis Set: (AUG-CC-PVTZ AUX)
    Blend: AUG-CC-PVTZ-JKFIT

    Orbital Energies [Eh]
    ---------------------

    Doubly Occupied:

       1A    -20.586806     2A    -11.298582     3A    -11.291019
       4A    -11.241603     5A    -11.231290     6A    -11.226044
       7A     -1.407191     8A     -1.096284     9A     -1.035221
      10A     -0.898517    11A     -0.842135    12A     -0.720266
      13A     -0.703394    14A     -0.650048    15A     -0.633432
      16A     -0.606359    17A     -0.572419    18A     -0.532980
      19A     -0.508091    20A     -0.471457    21A     -0.418803
      22A     -0.302181

  @DF-RHF Final Energy:  -267.73827005348528

   => Energetics <=

    Nuclear Repulsion Energy =            223.5968410925240448
    One-Electron Energy =                -806.1219785218147535
    Two-Electron Energy =                 314.7868673758054001
    Total Energy =                       -267.7382700534852802
  Basis Set: (AUG-CC-PVTZ AUX)
    Blend: AUG-CC-PVTZ-RI
    Molecular point group: c1

    Geometry (in Angstrom), charge = 0, multiplicity = 1:

       Center              X                  Y                   Z               Mass
    ------------   -----------------  -----------------  -----------------  -----------------
         O            0.184740027696    -1.306613218282    -0.278898873114    15.994914619570
         C           -1.047021972304    -0.802517218282     0.287120126886    12.000000000000
         C           -1.269990972304     0.628580781718    -0.100190873114    12.000000000000
         C           -0.190919972304     1.436374781718    -0.058877873114    12.000000000000
         C            1.113219027696     0.840724781718     0.185359126886    12.000000000000
         C            1.245078027696    -0.489930218282    -0.018917873114    12.000000000000
         H           -0.974598972304    -0.909663218282     1.382280126886     1.007825032230
         H           -1.823990972304    -1.472235218282    -0.084349873114     1.007825032230
         H           -2.261567972304     0.979347781718    -0.369772873114     1.007825032230
         H           -0.259513972304     2.494350781718    -0.298919873114     1.007825032230
         H            1.994546027696     1.444755781718     0.367598126886     1.007825032230
         H            2.174856127696    -1.008143818282    -0.076981473114     1.007825032230

  Basis Set: AUG-CC-PVTZ
    Blend: AUG-CC-PVTZ
  Basis Set: (AUG-CC-PVTZ AUX)
    Blend: AUG-CC-PVTZ-JKFIT
	 Reference Energy          =    -267.7382700534852802 [Eh]
	 Singles Energy            =      -0.0000000000000000 [Eh]
	 Same-Spin Energy          =      -0.2740725267294735 [Eh]
	 Opposite-Spin Energy      =      -0.8866052453939985 [Eh]
	 Correlation Energy        =      -1.1606777721234720 [Eh]
	 Total Energy              =    -268.8989478256087295 [Eh]

	 ================> DF-SCS-MP2 Energies <==================
	-----------------------------------------------------------
	 SCS Same-Spin Scale       =       0.3333333333333333 [-]
	 SCS Opposite-Spin Scale   =       1.2000000000000000 [-]
	 SCS Same-Spin Energy      =      -0.0913575089098245 [Eh]
	 SCS Opposite-Spin Energy  =      -1.0639262944727983 [Eh]
	 SCS Correlation Energy    =      -1.1552838033826227 [Eh]
	 SCS Total Energy          =    -268.8935538568679249 [Eh]
	-----------------------------------------------------------

  Dipole Moment: [D]
     X:    -0.3226      Y:     0.6232      Z:     0.4193     Total:     0.8175

*** Psi4 exiting successfully. Buy a developer a beer!
