                               Psi4 1.4a3.dev225

  ==> Input File <==

--------------------------------------------------------------------------
#psi4
#
memory 32 gb

molecule  {
0 1
  O        0.1973020    -1.3235490    -0.2892290
  C       -1.0344600    -0.8194530     0.2767900
  C       -1.2574290     0.6116450    -0.1105210
  C       -0.1783580     1.4194390    -0.0692080
  C        1.1257810     0.8237890     0.1750290
  C        1.2576400    -0.5068660    -0.0292480
  H       -0.9620370    -0.9265990     1.3719500
  H       -1.8114290    -1.4891710    -0.0946800
  H       -2.2490060     0.9624120    -0.3801030
  H       -0.2469520     2.4774150    -0.3092500
  H        2.0477640     1.4556842     0.3656748
  H        2.2048620    -1.0348020    -0.0884010
units angstrom
no_reorient  #important for SAPT in psi4, default
symmetry c1  #important for SAPT in psi4, default
}

set PROPERTIES_ORIGIN ["COM"]
properties('MP2/aug-cc-pvtz', properties = ['dipole'])
--------------------------------------------------------------------------

    Molecular point group: c1
  Charge       = 0
  Multiplicity = 1
  Basis Set: AUG-CC-PVTZ
    Blend: AUG-CC-PVTZ
  Basis Set: (AUG-CC-PVTZ AUX)
    Blend: AUG-CC-PVTZ-JKFIT

    Orbital Energies [Eh]
    ---------------------

    Doubly Occupied:

       1A    -20.587391     2A    -11.301185     3A    -11.291382
       4A    -11.242273     5A    -11.231817     6A    -11.231688
       7A     -1.407641     8A     -1.096101     9A     -1.033901
      10A     -0.897866    11A     -0.839566    12A     -0.717567
      13A     -0.700799    14A     -0.648971    15A     -0.630125
      16A     -0.605119    17A     -0.570554    18A     -0.531347
      19A     -0.506216    20A     -0.471478    21A     -0.419161
      22A     -0.302502

  @DF-RHF Final Energy:  -267.73569748881022

   => Energetics <=

    Nuclear Repulsion Energy =            223.2625787875398942
    One-Electron Energy =                -805.4672519358941827
    Two-Electron Energy =                 314.4689756595440144
    Total Energy =                       -267.7356974888102172
  Basis Set: (AUG-CC-PVTZ AUX)
    Blend: AUG-CC-PVTZ-RI
    Molecular point group: c1

    Geometry (in Angstrom), charge = 0, multiplicity = 1:

       Center              X                  Y                   Z               Mass
    ------------   -----------------  -----------------  -----------------  -----------------
         O            0.184026312403    -1.306836077188    -0.278988762086    15.994914619570
         C           -1.047735687597    -0.802740077188     0.287030237914    12.000000000000
         C           -1.270704687597     0.628357922812    -0.100280762086    12.000000000000
         C           -0.191633687597     1.436151922812    -0.058967762086    12.000000000000
         C            1.112505312403     0.840501922812     0.185269237914    12.000000000000
         C            1.244364312403    -0.490153077188    -0.019007762086    12.000000000000
         H           -0.975312687597    -0.909886077188     1.382190237914     1.007825032230
         H           -1.824704687597    -1.472458077188    -0.084439762086     1.007825032230
         H           -2.262281687597     0.979124922812    -0.369862762086     1.007825032230
         H           -0.260227687597     2.494127922812    -0.299009762086     1.007825032230
         H            2.034488312403     1.472397122812     0.375915037914     1.007825032230
         H            2.191586312403    -1.018089077188    -0.078160762086     1.007825032230

  Basis Set: AUG-CC-PVTZ
    Blend: AUG-CC-PVTZ
  Basis Set: (AUG-CC-PVTZ AUX)
    Blend: AUG-CC-PVTZ-JKFIT
	 Reference Energy          =    -267.7356974888102172 [Eh]
	 Singles Energy            =      -0.0000000000000000 [Eh]
	 Same-Spin Energy          =      -0.2741909272535550 [Eh]
	 Opposite-Spin Energy      =      -0.8870841671200655 [Eh]
	 Correlation Energy        =      -1.1612750943736205 [Eh]
	 Total Energy              =    -268.8969725831838105 [Eh]

	 ================> DF-SCS-MP2 Energies <==================
	-----------------------------------------------------------
	 SCS Same-Spin Scale       =       0.3333333333333333 [-]
	 SCS Opposite-Spin Scale   =       1.2000000000000000 [-]
	 SCS Same-Spin Energy      =      -0.0913969757511850 [Eh]
	 SCS Opposite-Spin Energy  =      -1.0645010005440787 [Eh]
	 SCS Correlation Energy    =      -1.1558979762952637 [Eh]
	 SCS Total Energy          =    -268.8915954651054676 [Eh]
	-----------------------------------------------------------

  Dipole Moment: [D]
     X:    -0.3439      Y:     0.6205      Z:     0.4172     Total:     0.8230

*** Psi4 exiting successfully. Buy a developer a beer!
