                               Psi4 1.3.2 release

  ==> Input File <==

--------------------------------------------------------------------------
#psi4
#
memory 32 gb

molecule  {
0 1
  O        0.1973020    -1.3235490    -0.2892290
  C       -1.0344600    -0.8194530     0.2767900
  C       -1.2574290     0.6116450    -0.1105210
  C       -0.1783580     1.4194390    -0.0692080
  C        1.1023128     0.8213994     0.1740822
  C        1.2576400    -0.5068660    -0.0292480
  H       -0.9620370    -0.9265990     1.3719500
  H       -1.8114290    -1.4891710    -0.0946800
  H       -2.2490060     0.9624120    -0.3801030
  H       -0.2469520     2.4774150    -0.3092500
  H        2.0071080     1.4278200     0.3572680
  H        2.2048620    -1.0348020    -0.0884010
units angstrom
no_reorient  #important for SAPT in psi4, default
symmetry c1  #important for SAPT in psi4, default
}

set PROPERTIES_ORIGIN ["COM"]
properties('MP2/aug-cc-pvtz', properties = ['dipole'])
--------------------------------------------------------------------------

    Molecular point group: c1
  Charge       = 0
  Multiplicity = 1
  Basis Set: AUG-CC-PVTZ
    Blend: AUG-CC-PVTZ
  Basis Set: (AUG-CC-PVTZ AUX)
    Blend: AUG-CC-PVTZ-JKFIT

    Orbital Energies [Eh]
    ---------------------

    Doubly Occupied:

       1A    -20.586312     2A    -11.300935     3A    -11.291071
       4A    -11.240307     5A    -11.231286     6A    -11.226311
       7A     -1.407210     8A     -1.099459     9A     -1.034158
      10A     -0.897880    11A     -0.842346    12A     -0.719170
      13A     -0.701977    14A     -0.649767    15A     -0.631277
      16A     -0.606189    17A     -0.571434    18A     -0.533929
      19A     -0.505806    20A     -0.472076    21A     -0.420994
      22A     -0.300663

  @DF-RHF Final Energy:  -267.73692035942406

   => Energetics <=

    Nuclear Repulsion Energy =            223.8259883730114836
    One-Electron Energy =                -806.5847016254396067
    Two-Electron Energy =                 315.0217928930040898
    Total Energy =                       -267.7369203594240616
  Basis Set: (AUG-CC-PVTZ AUX)
    Blend: AUG-CC-PVTZ-RI
    Molecular point group: c1

    Geometry (in Angstrom), charge = 0, multiplicity = 1:

       Center              X                  Y                   Z               Mass
    ------------   -----------------  -----------------  -----------------  -----------------
         O            0.187958360208    -1.306144266508    -0.278747005228    15.994914619570
         C           -1.043803639792    -0.802048266508     0.287271994772    12.000000000000
         C           -1.266772639792     0.629049733492    -0.100039005228    12.000000000000
         C           -0.187701639792     1.436843733492    -0.058726005228    12.000000000000
         C            1.092969160208     0.838804133492     0.184564194772    12.000000000000
         C            1.248296360208    -0.489461266508    -0.018766005228    12.000000000000
         H           -0.971380639792    -0.909194266508     1.382431994772     1.007825032230
         H           -1.820772639792    -1.471766266508    -0.084198005228     1.007825032230
         H           -2.258349639792     0.979816733492    -0.369621005228     1.007825032230
         H           -0.256295639792     2.494819733492    -0.298768005228     1.007825032230
         H            1.997764360208     1.445224733492     0.367749994772     1.007825032230
         H            2.195518360208    -1.017397266508    -0.077919005228     1.007825032230

  Basis Set: AUG-CC-PVTZ
    Blend: AUG-CC-PVTZ
  Basis Set: (AUG-CC-PVTZ AUX)
    Blend: AUG-CC-PVTZ-JKFIT
	 Reference Energy          =    -267.7369203594240616 [Eh]
	 Singles Energy            =      -0.0000000000000000 [Eh]
	 Same-Spin Energy          =      -0.2744985086919368 [Eh]
	 Opposite-Spin Energy      =      -0.8870751183627629 [Eh]
	 Correlation Energy        =      -1.1615736270546997 [Eh]
	 Total Energy              =    -268.8984939864787407 [Eh]

	 ================> DF-SCS-MP2 Energies <==================
	-----------------------------------------------------------
	 SCS Same-Spin Scale       =       0.3333333333333333 [-]
	 SCS Opposite-Spin Scale   =       1.2000000000000000 [-]
	 SCS Same-Spin Energy      =      -0.0914995028973122 [Eh]
	 SCS Opposite-Spin Energy  =      -1.0644901420353154 [Eh]
	 SCS Correlation Energy    =      -1.1559896449326277 [Eh]
	 SCS Total Energy          =    -268.8929100043566791 [Eh]
	-----------------------------------------------------------

  Dipole Moment: [D]
     X:    -0.3184      Y:     0.6160      Z:     0.4111     Total:     0.8061

*** Psi4 exiting successfully. Buy a developer a beer!
