                               Psi4 1.4a3.dev225

  ==> Input File <==

--------------------------------------------------------------------------
#psi4
#
memory 32 gb

molecule  {
0 1
  O        0.1973020    -1.3235490    -0.2892290
  C       -1.0344600    -0.8194530     0.2767900
  C       -1.2574290     0.6116450    -0.1105210
  C       -0.1783580     1.4194390    -0.0692080
  C        1.1257810     0.8237890     0.1750290
  C        1.2576400    -0.5068660    -0.0292480
  H       -0.9620370    -0.9265990     1.3719500
  H       -1.8114290    -1.4891710    -0.0946800
  H       -2.2490060     0.9624120    -0.3801030
  H       -0.2469520     2.4774150    -0.3092500
  H        2.0071080     1.4278200     0.3572680
  H        2.2484717    -1.0591079    -0.0911244
units angstrom
no_reorient  #important for SAPT in psi4, default
symmetry c1  #important for SAPT in psi4, default
}

set PROPERTIES_ORIGIN ["COM"]
properties('MP2/aug-cc-pvtz', properties = ['dipole'])
--------------------------------------------------------------------------

    Molecular point group: c1
  Charge       = 0
  Multiplicity = 1
  Basis Set: AUG-CC-PVTZ
    Blend: AUG-CC-PVTZ
  Basis Set: (AUG-CC-PVTZ AUX)
    Blend: AUG-CC-PVTZ-JKFIT

    Orbital Energies [Eh]
    ---------------------

    Doubly Occupied:

       1A    -20.587747     2A    -11.306433     3A    -11.291487
       4A    -11.242000     5A    -11.231492     6A    -11.226476
       7A     -1.407744     8A     -1.096634     9A     -1.033330
      10A     -0.898615    11A     -0.837287    12A     -0.713810
      13A     -0.703150    14A     -0.649058    15A     -0.632407
      16A     -0.603648    17A     -0.570847    18A     -0.531165
      19A     -0.508269    20A     -0.470472    21A     -0.419010
      22A     -0.302432

  @DF-RHF Final Energy:  -267.73563547104789

   => Energetics <=

    Nuclear Repulsion Energy =            223.2548964575870514
    One-Electron Energy =                -805.4540400186220950
    Two-Electron Energy =                 314.4635080899871582
    Total Energy =                       -267.7356354710478854
  Basis Set: (AUG-CC-PVTZ AUX)
    Blend: AUG-CC-PVTZ-RI
    Molecular point group: c1

    Geometry (in Angstrom), charge = 0, multiplicity = 1:

       Center              X                  Y                   Z               Mass
    ------------   -----------------  -----------------  -----------------  -----------------
         O            0.183990028332    -1.306195205203    -0.278852035621    15.994914619570
         C           -1.047771971668    -0.802099205203     0.287166964379    12.000000000000
         C           -1.270740971668     0.628998794797    -0.100144035621    12.000000000000
         C           -0.191669971668     1.436792794797    -0.058831035621    12.000000000000
         C            1.112469028332     0.841142794797     0.185405964379    12.000000000000
         C            1.244328028332    -0.489512205203    -0.018871035621    12.000000000000
         H           -0.975348971668    -0.909245205203     1.382326964379     1.007825032230
         H           -1.824740971668    -1.471817205203    -0.084303035621     1.007825032230
         H           -2.262317971668     0.979765794797    -0.369726035621     1.007825032230
         H           -0.260263971668     2.494768794797    -0.298873035621     1.007825032230
         H            1.993796028332     1.445173794797     0.367644964379     1.007825032230
         H            2.235159728332    -1.041754105203    -0.080747435621     1.007825032230

  Basis Set: AUG-CC-PVTZ
    Blend: AUG-CC-PVTZ
  Basis Set: (AUG-CC-PVTZ AUX)
    Blend: AUG-CC-PVTZ-JKFIT
	 Reference Energy          =    -267.7356354710478854 [Eh]
	 Singles Energy            =      -0.0000000000000000 [Eh]
	 Same-Spin Energy          =      -0.2742477675496192 [Eh]
	 Opposite-Spin Energy      =      -0.8871713423624246 [Eh]
	 Correlation Energy        =      -1.1614191099120437 [Eh]
	 Total Energy              =    -268.8970545809599457 [Eh]

	 ================> DF-SCS-MP2 Energies <==================
	-----------------------------------------------------------
	 SCS Same-Spin Scale       =       0.3333333333333333 [-]
	 SCS Opposite-Spin Scale   =       1.2000000000000000 [-]
	 SCS Same-Spin Energy      =      -0.0914159225165397 [Eh]
	 SCS Opposite-Spin Energy  =      -1.0646056108349093 [Eh]
	 SCS Correlation Energy    =      -1.1560215333514490 [Eh]
	 SCS Total Energy          =    -268.8916570043993488 [Eh]
	-----------------------------------------------------------

  Dipole Moment: [D]
     X:    -0.3442      Y:     0.6234      Z:     0.4189     Total:     0.8262

*** Psi4 exiting successfully. Buy a developer a beer!
