                               Psi4 1.3.2 release

  ==> Input File <==

--------------------------------------------------------------------------
#psi4
#
memory 32 gb

molecule  {
0 1
  O        0.2158797    -1.1864427    -0.3506630
  C       -1.0344600    -0.8194530     0.2767900
  C       -1.2574290     0.6116450    -0.1105210
  C       -0.1783580     1.4194390    -0.0692080
  C        1.1257810     0.8237890     0.1750290
  C        1.2576400    -0.5068660    -0.0292480
  H       -0.9620370    -0.9265990     1.3719500
  H       -1.8114290    -1.4891710    -0.0946800
  H       -2.2490060     0.9624120    -0.3801030
  H       -0.2469520     2.4774150    -0.3092500
  H        2.0071080     1.4278200     0.3572680
  H        2.2048620    -1.0348020    -0.0884010
units angstrom
no_reorient  #important for SAPT in psi4, default
symmetry c1  #important for SAPT in psi4, default
}

set PROPERTIES_ORIGIN ["COM"]
properties('MP2/aug-cc-pvtz', properties = ['dipole'])
--------------------------------------------------------------------------

    Molecular point group: c1
  Charge       = 0
  Multiplicity = 1
  Basis Set: AUG-CC-PVTZ
    Blend: AUG-CC-PVTZ
  Basis Set: (AUG-CC-PVTZ AUX)
    Blend: AUG-CC-PVTZ-JKFIT

    Orbital Energies [Eh]
    ---------------------

    Doubly Occupied:

       1A    -20.584796     2A    -11.297981     3A    -11.294521
       4A    -11.237857     5A    -11.227629     6A    -11.214930
       7A     -1.440062     8A     -1.090815     9A     -1.041749
      10A     -0.899432    11A     -0.839058    12A     -0.730810
      13A     -0.710395    14A     -0.658546    15A     -0.634597
      16A     -0.609167    17A     -0.570326    18A     -0.542830
      19A     -0.513725    20A     -0.462283    21A     -0.408415
      22A     -0.296236

  @DF-RHF Final Energy:  -267.73203957391843

   => Energetics <=

    Nuclear Repulsion Energy =            226.0902898892441044
    One-Electron Energy =                -811.0323400836001611
    Two-Electron Energy =                 317.2100106204376289
    Total Energy =                       -267.7320395739184278
  Basis Set: (AUG-CC-PVTZ AUX)
    Blend: AUG-CC-PVTZ-RI
    Molecular point group: c1

    Geometry (in Angstrom), charge = 0, multiplicity = 1:

       Center              X                  Y                   Z               Mass
    ------------   -----------------  -----------------  -----------------  -----------------
         O            0.199481526201    -1.196117784444    -0.328342293529    15.994914619570
         C           -1.050858173799    -0.829128084444     0.299110706471    12.000000000000
         C           -1.273827173799     0.601969915556    -0.088200293529    12.000000000000
         C           -0.194756173799     1.409763915556    -0.046887293529    12.000000000000
         C            1.109382826201     0.814113915556     0.197349706471    12.000000000000
         C            1.241241826201    -0.516541084444    -0.006927293529    12.000000000000
         H           -0.978435173799    -0.936274084444     1.394270706471     1.007825032230
         H           -1.827827173799    -1.498846084444    -0.072359293529     1.007825032230
         H           -2.265404173799     0.952736915556    -0.357782293529     1.007825032230
         H           -0.263350173799     2.467739915556    -0.286929293529     1.007825032230
         H            1.990709826201     1.418144915556     0.379588706471     1.007825032230
         H            2.188463826201    -1.044477084444    -0.066080293529     1.007825032230

  Basis Set: AUG-CC-PVTZ
    Blend: AUG-CC-PVTZ
  Basis Set: (AUG-CC-PVTZ AUX)
    Blend: AUG-CC-PVTZ-JKFIT
	 Reference Energy          =    -267.7320395739184278 [Eh]
	 Singles Energy            =      -0.0000000000000000 [Eh]
	 Same-Spin Energy          =      -0.2742566672813966 [Eh]
	 Opposite-Spin Energy      =      -0.8847314013976072 [Eh]
	 Correlation Energy        =      -1.1589880686790037 [Eh]
	 Total Energy              =    -268.8910276425974075 [Eh]

	 ================> DF-SCS-MP2 Energies <==================
	-----------------------------------------------------------
	 SCS Same-Spin Scale       =       0.3333333333333333 [-]
	 SCS Opposite-Spin Scale   =       1.2000000000000000 [-]
	 SCS Same-Spin Energy      =      -0.0914188890937989 [Eh]
	 SCS Opposite-Spin Energy  =      -1.0616776816771285 [Eh]
	 SCS Correlation Energy    =      -1.1530965707709273 [Eh]
	 SCS Total Energy          =    -268.8851361446893407 [Eh]
	-----------------------------------------------------------

  Dipole Moment: [D]
     X:    -0.5253      Y:     0.1533      Z:     0.4614     Total:     0.7157

*** Psi4 exiting successfully. Buy a developer a beer!
