                               Psi4 1.3.2 release

  ==> Input File <==

--------------------------------------------------------------------------
#psi4
#
memory 32 gb

molecule  {
0 1
  O        0.2055839    -1.3287974    -0.2659690
  C       -1.0344600    -0.8194530     0.2767900
  C       -1.2574290     0.6116450    -0.1105210
  C       -0.1783580     1.4194390    -0.0692080
  C        1.1257810     0.8237890     0.1750290
  C        1.2576400    -0.5068660    -0.0292480
  H       -0.9620370    -0.9265990     1.3719500
  H       -1.8114290    -1.4891710    -0.0946800
  H       -2.2490060     0.9624120    -0.3801030
  H       -0.2469520     2.4774150    -0.3092500
  H        2.0071080     1.4278200     0.3572680
  H        2.2048620    -1.0348020    -0.0884010
units angstrom
no_reorient  #important for SAPT in psi4, default
symmetry c1  #important for SAPT in psi4, default
}

set PROPERTIES_ORIGIN ["COM"]
properties('MP2/aug-cc-pvtz', properties = ['dipole'])
--------------------------------------------------------------------------

    Molecular point group: c1
  Charge       = 0
  Multiplicity = 1
  Basis Set: AUG-CC-PVTZ
    Blend: AUG-CC-PVTZ
  Basis Set: (AUG-CC-PVTZ AUX)
    Blend: AUG-CC-PVTZ-JKFIT

    Orbital Energies [Eh]
    ---------------------

    Doubly Occupied:

       1A    -20.587806     2A    -11.301091     3A    -11.291446
       4A    -11.241895     5A    -11.230997     6A    -11.225050
       7A     -1.410573     8A     -1.096379     9A     -1.035088
      10A     -0.898863    11A     -0.841454    12A     -0.718818
      13A     -0.702644    14A     -0.651125    15A     -0.634785
      16A     -0.606373    17A     -0.571737    18A     -0.531489
      19A     -0.509060    20A     -0.472180    21A     -0.419191
      22A     -0.300960

  @DF-RHF Final Energy:  -267.73846114088775

   => Energetics <=

    Nuclear Repulsion Energy =            223.5777476753708584
    One-Electron Energy =                -806.0744132991080733
    Two-Electron Energy =                 314.7582044828495214
    Total Energy =                       -267.7384611408877504
  Basis Set: (AUG-CC-PVTZ AUX)
    Blend: AUG-CC-PVTZ-RI
    Molecular point group: c1

    Geometry (in Angstrom), charge = 0, multiplicity = 1:

       Center              X                  Y                   Z               Mass
    ------------   -----------------  -----------------  -----------------  -----------------
         O            0.191192999467    -1.310718955470    -0.260160269480    15.994914619570
         C           -1.048850900533    -0.801374555470     0.282598730520    12.000000000000
         C           -1.271819900533     0.629723444530    -0.104712269480    12.000000000000
         C           -0.192748900533     1.437517444530    -0.063399269480    12.000000000000
         C            1.111390099467     0.841867444530     0.180837730520    12.000000000000
         C            1.243249099467    -0.488787555470    -0.023439269480    12.000000000000
         H           -0.976427900533    -0.908520555470     1.377758730520     1.007825032230
         H           -1.825819900533    -1.471092555470    -0.088871269480     1.007825032230
         H           -2.263396900533     0.980490444530    -0.374294269480     1.007825032230
         H           -0.261342900533     2.495493444530    -0.303441269480     1.007825032230
         H            1.992717099467     1.445898444530     0.363076730520     1.007825032230
         H            2.190471099467    -1.016723555470    -0.082592269480     1.007825032230

  Basis Set: AUG-CC-PVTZ
    Blend: AUG-CC-PVTZ
  Basis Set: (AUG-CC-PVTZ AUX)
    Blend: AUG-CC-PVTZ-JKFIT
	 Reference Energy          =    -267.7384611408877504 [Eh]
	 Singles Energy            =      -0.0000000000000000 [Eh]
	 Same-Spin Energy          =      -0.2740833242607650 [Eh]
	 Opposite-Spin Energy      =      -0.8864948909957635 [Eh]
	 Correlation Energy        =      -1.1605782152565285 [Eh]
	 Total Energy              =    -268.8990393561442716 [Eh]

	 ================> DF-SCS-MP2 Energies <==================
	-----------------------------------------------------------
	 SCS Same-Spin Scale       =       0.3333333333333333 [-]
	 SCS Opposite-Spin Scale   =       1.2000000000000000 [-]
	 SCS Same-Spin Energy      =      -0.0913611080869217 [Eh]
	 SCS Opposite-Spin Energy  =      -1.0637938691949163 [Eh]
	 SCS Correlation Energy    =      -1.1551549772818379 [Eh]
	 SCS Total Energy          =    -268.8936161181695752 [Eh]
	-----------------------------------------------------------

  Dipole Moment: [D]
     X:    -0.3471      Y:     0.5985      Z:     0.3866     Total:     0.7925

*** Psi4 exiting successfully. Buy a developer a beer!
