                               Psi4 1.3.2 release

  ==> Input File <==

--------------------------------------------------------------------------
#psi4
#
memory 32 gb

molecule  {
0 1
  O        0.1973020    -1.3235490    -0.2892290
  C       -1.0344600    -0.8194530     0.2767900
  C       -1.2574290     0.6116450    -0.1105210
  C       -0.2583741     1.3595388    -0.0722715
  C        1.1257810     0.8237890     0.1750290
  C        1.2576400    -0.5068660    -0.0292480
  H       -0.9620370    -0.9265990     1.3719500
  H       -1.8114290    -1.4891710    -0.0946800
  H       -2.2490060     0.9624120    -0.3801030
  H       -0.2469520     2.4774150    -0.3092500
  H        2.0071080     1.4278200     0.3572680
  H        2.2048620    -1.0348020    -0.0884010
units angstrom
no_reorient  #important for SAPT in psi4, default
symmetry c1  #important for SAPT in psi4, default
}

set PROPERTIES_ORIGIN ["COM"]
properties('MP2/aug-cc-pvtz', properties = ['dipole'])
--------------------------------------------------------------------------

    Molecular point group: c1
  Charge       = 0
  Multiplicity = 1
  Basis Set: AUG-CC-PVTZ
    Blend: AUG-CC-PVTZ
  Basis Set: (AUG-CC-PVTZ AUX)
    Blend: AUG-CC-PVTZ-JKFIT

    Orbital Energies [Eh]
    ---------------------

    Doubly Occupied:

       1A    -20.585638     2A    -11.297761     3A    -11.290355
       4A    -11.234680     5A    -11.227216     6A    -11.217000
       7A     -1.406549     8A     -1.109190     9A     -1.034386
      10A     -0.906892    11A     -0.829791    12A     -0.715028
      13A     -0.700349    14A     -0.652202    15A     -0.633063
      16A     -0.608545    17A     -0.563591    18A     -0.530250
      19A     -0.512619    20A     -0.457598    21A     -0.426375
      22A     -0.315349

  @DF-RHF Final Energy:  -267.72671057099728

   => Energetics <=

    Nuclear Repulsion Energy =            224.5420817467402230
    One-Electron Energy =                -808.0287263609407091
    Two-Electron Energy =                 315.7599340432032022
    Total Energy =                       -267.7267105709972839
  Basis Set: (AUG-CC-PVTZ AUX)
    Blend: AUG-CC-PVTZ-RI
    Molecular point group: c1

    Geometry (in Angstrom), charge = 0, multiplicity = 1:

       Center              X                  Y                   Z               Mass
    ------------   -----------------  -----------------  -----------------  -----------------
         O            0.196229439877    -1.297732375803    -0.278437402319    15.994914619570
         C           -1.035532560123    -0.793636375803     0.287581597681    12.000000000000
         C           -1.258501560123     0.637461624197    -0.099729402319    12.000000000000
         C           -0.259446660123     1.385355424197    -0.061479902319    12.000000000000
         C            1.124708439877     0.849605624197     0.185820597681    12.000000000000
         C            1.256567439877    -0.481049375803    -0.018456402319    12.000000000000
         H           -0.963109560123    -0.900782375803     1.382741597681     1.007825032230
         H           -1.812501560123    -1.463354375803    -0.083888402319     1.007825032230
         H           -2.250078560123     0.988228624197    -0.369311402319     1.007825032230
         H           -0.248024560123     2.503231624197    -0.298458402319     1.007825032230
         H            2.006035439877     1.453636624197     0.368059597681     1.007825032230
         H            2.203789439877    -1.008985375803    -0.077609402319     1.007825032230

  Basis Set: AUG-CC-PVTZ
    Blend: AUG-CC-PVTZ
  Basis Set: (AUG-CC-PVTZ AUX)
    Blend: AUG-CC-PVTZ-JKFIT
	 Reference Energy          =    -267.7267105709972839 [Eh]
	 Singles Energy            =      -0.0000000000000000 [Eh]
	 Same-Spin Energy          =      -0.2727419004330280 [Eh]
	 Opposite-Spin Energy      =      -0.8843711316787679 [Eh]
	 Correlation Energy        =      -1.1571130321117959 [Eh]
	 Total Energy              =    -268.8838236031090787 [Eh]

	 ================> DF-SCS-MP2 Energies <==================
	-----------------------------------------------------------
	 SCS Same-Spin Scale       =       0.3333333333333333 [-]
	 SCS Opposite-Spin Scale   =       1.2000000000000000 [-]
	 SCS Same-Spin Energy      =      -0.0909139668110093 [Eh]
	 SCS Opposite-Spin Energy  =      -1.0612453580145214 [Eh]
	 SCS Correlation Energy    =      -1.1521593248255306 [Eh]
	 SCS Total Energy          =    -268.8788698958227883 [Eh]
	-----------------------------------------------------------

  Dipole Moment: [D]
     X:    -0.3953      Y:     0.6284      Z:     0.4321     Total:     0.8590

*** Psi4 exiting successfully. Buy a developer a beer!
