                               Psi4 1.4a3.dev225

  ==> Input File <==

--------------------------------------------------------------------------
#psi4
#
memory 32 gb

molecule  {
0 1
  O        0.1973020    -1.3235490    -0.2892290
  C       -1.0344600    -0.8194530     0.2767900
  C       -1.2648650     0.6593720    -0.1234378
  C       -0.1783580     1.4194390    -0.0692080
  C        1.1257810     0.8237890     0.1750290
  C        1.2576400    -0.5068660    -0.0292480
  H       -0.9620370    -0.9265990     1.3719500
  H       -1.8114290    -1.4891710    -0.0946800
  H       -2.2490060     0.9624120    -0.3801030
  H       -0.2469520     2.4774150    -0.3092500
  H        2.0071080     1.4278200     0.3572680
  H        2.2048620    -1.0348020    -0.0884010
units angstrom
no_reorient  #important for SAPT in psi4, default
symmetry c1  #important for SAPT in psi4, default
}

set PROPERTIES_ORIGIN ["COM"]
properties('MP2/aug-cc-pvtz', properties = ['dipole'])
--------------------------------------------------------------------------

    Molecular point group: c1
  Charge       = 0
  Multiplicity = 1
  Basis Set: AUG-CC-PVTZ
    Blend: AUG-CC-PVTZ
  Basis Set: (AUG-CC-PVTZ AUX)
    Blend: AUG-CC-PVTZ-JKFIT

    Orbital Energies [Eh]
    ---------------------

    Doubly Occupied:

       1A    -20.587106     2A    -11.301015     3A    -11.292518
       4A    -11.238713     5A    -11.229422     6A    -11.226411
       7A     -1.406454     8A     -1.097206     9A     -1.030337
      10A     -0.899462    11A     -0.839583    12A     -0.716692
      13A     -0.705622    14A     -0.649516    15A     -0.633490
      16A     -0.607171    17A     -0.566879    18A     -0.535968
      19A     -0.509148    20A     -0.463803    21A     -0.421161
      22A     -0.305317

  @DF-RHF Final Energy:  -267.73703993652106

   => Energetics <=

    Nuclear Repulsion Energy =            223.0856155917172430
    One-Electron Energy =                -805.1193219821337834
    Two-Electron Energy =                 314.2966664538955115
    Total Energy =                       -267.7370399365210574
  Basis Set: (AUG-CC-PVTZ AUX)
    Blend: AUG-CC-PVTZ-RI
    Molecular point group: c1

    Geometry (in Angstrom), charge = 0, multiplicity = 1:

       Center              X                  Y                   Z               Mass
    ------------   -----------------  -----------------  -----------------  -----------------
         O            0.185613381819    -1.313474660586    -0.276996191782    15.994914619570
         C           -1.046148618181    -0.809378660586     0.289022808218    12.000000000000
         C           -1.276553618181     0.669446339414    -0.111204991782    12.000000000000
         C           -0.190046618181     1.429513339414    -0.056975191782    12.000000000000
         C            1.114092381819     0.833863339414     0.187261808218    12.000000000000
         C            1.245951381819    -0.496791660586    -0.017015191782    12.000000000000
         H           -0.973725618181    -0.916524660586     1.384182808218     1.007825032230
         H           -1.823117618181    -1.479096660586    -0.082447191782     1.007825032230
         H           -2.260694618181     0.972486339414    -0.367870191782     1.007825032230
         H           -0.258640618181     2.487489339414    -0.297017191782     1.007825032230
         H            1.995419381819     1.437894339414     0.369500808218     1.007825032230
         H            2.193173381819    -1.024727660586    -0.076168191782     1.007825032230

  Basis Set: AUG-CC-PVTZ
    Blend: AUG-CC-PVTZ
  Basis Set: (AUG-CC-PVTZ AUX)
    Blend: AUG-CC-PVTZ-JKFIT
	 Reference Energy          =    -267.7370399365210574 [Eh]
	 Singles Energy            =      -0.0000000000000000 [Eh]
	 Same-Spin Energy          =      -0.2734851996410115 [Eh]
	 Opposite-Spin Energy      =      -0.8860452557472828 [Eh]
	 Correlation Energy        =      -1.1595304553882944 [Eh]
	 Total Energy              =    -268.8965703919093357 [Eh]

	 ================> DF-SCS-MP2 Energies <==================
	-----------------------------------------------------------
	 SCS Same-Spin Scale       =       0.3333333333333333 [-]
	 SCS Opposite-Spin Scale   =       1.2000000000000000 [-]
	 SCS Same-Spin Energy      =      -0.0911617332136705 [Eh]
	 SCS Opposite-Spin Energy  =      -1.0632543068967393 [Eh]
	 SCS Correlation Energy    =      -1.1544160401104098 [Eh]
	 SCS Total Energy          =    -268.8914559766314483 [Eh]
	-----------------------------------------------------------

  Dipole Moment: [D]
     X:    -0.3444      Y:     0.6081      Z:     0.4208     Total:     0.8157

*** Psi4 exiting successfully. Buy a developer a beer!
