                               Psi4 1.4a3.dev225

  ==> Input File <==

--------------------------------------------------------------------------
#psi4
#
memory 32 gb

molecule  {
0 1
  O        0.1973020    -1.3235490    -0.2892290
  C       -1.0344600    -0.8194530     0.2767900
  C       -1.2499930     0.5639180    -0.0976042
  C       -0.1783580     1.4194390    -0.0692080
  C        1.1257810     0.8237890     0.1750290
  C        1.2576400    -0.5068660    -0.0292480
  H       -0.9620370    -0.9265990     1.3719500
  H       -1.8114290    -1.4891710    -0.0946800
  H       -2.2490060     0.9624120    -0.3801030
  H       -0.2469520     2.4774150    -0.3092500
  H        2.0071080     1.4278200     0.3572680
  H        2.2048620    -1.0348020    -0.0884010
units angstrom
no_reorient  #important for SAPT in psi4, default
symmetry c1  #important for SAPT in psi4, default
}

set PROPERTIES_ORIGIN ["COM"]
properties('MP2/aug-cc-pvtz', properties = ['dipole'])
--------------------------------------------------------------------------

    Molecular point group: c1
  Charge       = 0
  Multiplicity = 1
  Basis Set: AUG-CC-PVTZ
    Blend: AUG-CC-PVTZ
  Basis Set: (AUG-CC-PVTZ AUX)
    Blend: AUG-CC-PVTZ-JKFIT

    Orbital Energies [Eh]
    ---------------------

    Doubly Occupied:

       1A    -20.587061     2A    -11.300826     3A    -11.289247
       4A    -11.245128     5A    -11.233639     6A    -11.226004
       7A     -1.408360     8A     -1.096159     9A     -1.040005
      10A     -0.897771    11A     -0.841394    12A     -0.720045
      13A     -0.701744    14A     -0.651558    15A     -0.632693
      16A     -0.603246    17A     -0.577540    18A     -0.530344
      19A     -0.506127    20A     -0.476177    21A     -0.416228
      22A     -0.298982

  @DF-RHF Final Energy:  -267.73340682001185

   => Energetics <=

    Nuclear Repulsion Energy =            223.9293033261208450
    One-Electron Energy =                -806.7648624549703982
    Two-Electron Energy =                 315.1021523088377307
    Total Energy =                       -267.7334068200118509
  Basis Set: (AUG-CC-PVTZ AUX)
    Blend: AUG-CC-PVTZ-RI
    Molecular point group: c1

    Geometry (in Angstrom), charge = 0, multiplicity = 1:

       Center              X                  Y                   Z               Mass
    ------------   -----------------  -----------------  -----------------  -----------------
         O            0.183438102157    -1.299512910660    -0.280774789462    15.994914619570
         C           -1.048323897843    -0.795416910660     0.285244210538    12.000000000000
         C           -1.263856897843     0.587954089340    -0.089149989462    12.000000000000
         C           -0.192221897843     1.443475089340    -0.060753789462    12.000000000000
         C            1.111917102157     0.847825089340     0.183483210538    12.000000000000
         C            1.243776102157    -0.482829910660    -0.020793789462    12.000000000000
         H           -0.975900897843    -0.902562910660     1.380404210538     1.007825032230
         H           -1.825292897843    -1.465134910660    -0.086225789462     1.007825032230
         H           -2.262869897843     0.986448089340    -0.371648789462     1.007825032230
         H           -0.260815897843     2.501451089340    -0.300795789462     1.007825032230
         H            1.993244102157     1.451856089340     0.365722210538     1.007825032230
         H            2.190998102157    -1.010765910660    -0.079946789462     1.007825032230

  Basis Set: AUG-CC-PVTZ
    Blend: AUG-CC-PVTZ
  Basis Set: (AUG-CC-PVTZ AUX)
    Blend: AUG-CC-PVTZ-JKFIT
	 Reference Energy          =    -267.7334068200118509 [Eh]
	 Singles Energy            =      -0.0000000000000000 [Eh]
	 Same-Spin Energy          =      -0.2750188425072896 [Eh]
	 Opposite-Spin Energy      =      -0.8878723007302582 [Eh]
	 Correlation Energy        =      -1.1628911432375477 [Eh]
	 Total Energy              =    -268.8962979632494239 [Eh]

	 ================> DF-SCS-MP2 Energies <==================
	-----------------------------------------------------------
	 SCS Same-Spin Scale       =       0.3333333333333333 [-]
	 SCS Opposite-Spin Scale   =       1.2000000000000000 [-]
	 SCS Same-Spin Energy      =      -0.0916729475024299 [Eh]
	 SCS Opposite-Spin Energy  =      -1.0654467608763099 [Eh]
	 SCS Correlation Energy    =      -1.1571197083787397 [Eh]
	 SCS Total Energy          =    -268.8905265283905806 [Eh]
	-----------------------------------------------------------

  Dipole Moment: [D]
     X:    -0.3090      Y:     0.6394      Z:     0.4155     Total:     0.8228

*** Psi4 exiting successfully. Buy a developer a beer!
