                               Psi4 1.3.2 release

  ==> Input File <==

--------------------------------------------------------------------------
#psi4
#
memory 32 gb

molecule  {
0 1
  O        0.1973020    -1.3235490    -0.2892290
  C       -1.0344600    -0.8194530     0.2767900
  C       -1.2438796     0.5935527    -0.1039594
  C       -0.1783580     1.4194390    -0.0692080
  C        1.1257810     0.8237890     0.1750290
  C        1.2576400    -0.5068660    -0.0292480
  H       -0.9620370    -0.9265990     1.3719500
  H       -1.8114290    -1.4891710    -0.0946800
  H       -2.2490060     0.9624120    -0.3801030
  H       -0.2469520     2.4774150    -0.3092500
  H        2.0071080     1.4278200     0.3572680
  H        2.2048620    -1.0348020    -0.0884010
units angstrom
no_reorient  #important for SAPT in psi4, default
symmetry c1  #important for SAPT in psi4, default
}

set PROPERTIES_ORIGIN ["COM"]
properties('MP2/aug-cc-pvtz', properties = ['dipole'])
--------------------------------------------------------------------------

    Molecular point group: c1
  Charge       = 0
  Multiplicity = 1
  Basis Set: AUG-CC-PVTZ
    Blend: AUG-CC-PVTZ
  Basis Set: (AUG-CC-PVTZ AUX)
    Blend: AUG-CC-PVTZ-JKFIT

    Orbital Energies [Eh]
    ---------------------

    Doubly Occupied:

       1A    -20.586716     2A    -11.300420     3A    -11.290454
       4A    -11.241591     5A    -11.231892     6A    -11.225763
       7A     -1.407628     8A     -1.097714     9A     -1.036473
      10A     -0.899197    11A     -0.840069    12A     -0.719224
      13A     -0.701532    14A     -0.650749    15A     -0.632250
      16A     -0.604578    17A     -0.574423    18A     -0.531096
      19A     -0.508188    20A     -0.472404    21A     -0.418753
      22A     -0.301693

  @DF-RHF Final Energy:  -267.73720134062512

   => Energetics <=

    Nuclear Repulsion Energy =            223.8335350848644225
    One-Electron Energy =                -806.5958594445303333
    Two-Electron Energy =                 315.0251230190407341
    Total Energy =                       -267.7372013406251199
  Basis Set: (AUG-CC-PVTZ AUX)
    Blend: AUG-CC-PVTZ-RI
    Molecular point group: c1

    Geometry (in Angstrom), charge = 0, multiplicity = 1:

       Center              X                  Y                   Z               Mass
    ------------   -----------------  -----------------  -----------------  -----------------
         O            0.182543914779    -1.303847483025    -0.279845234774    15.994914619570
         C           -1.049218085221    -0.799751483025     0.286173765226    12.000000000000
         C           -1.258637685221     0.613254216975    -0.094575634774    12.000000000000
         C           -0.193116085221     1.439140516975    -0.059824234774    12.000000000000
         C            1.111022914779     0.843490516975     0.184412765226    12.000000000000
         C            1.242881914779    -0.487164483025    -0.019864234774    12.000000000000
         H           -0.976795085221    -0.906897483025     1.381333765226     1.007825032230
         H           -1.826187085221    -1.469469483025    -0.085296234774     1.007825032230
         H           -2.263764085221     0.982113516975    -0.370719234774     1.007825032230
         H           -0.261710085221     2.497116516975    -0.299866234774     1.007825032230
         H            1.992349914779     1.447521516975     0.366651765226     1.007825032230
         H            2.190103914779    -1.015100483025    -0.079017234774     1.007825032230

  Basis Set: AUG-CC-PVTZ
    Blend: AUG-CC-PVTZ
  Basis Set: (AUG-CC-PVTZ AUX)
    Blend: AUG-CC-PVTZ-JKFIT
	 Reference Energy          =    -267.7372013406251199 [Eh]
	 Singles Energy            =      -0.0000000000000000 [Eh]
	 Same-Spin Energy          =      -0.2743410689128911 [Eh]
	 Opposite-Spin Energy      =      -0.8869127929333733 [Eh]
	 Correlation Energy        =      -1.1612538618462644 [Eh]
	 Total Energy              =    -268.8984552024713821 [Eh]

	 ================> DF-SCS-MP2 Energies <==================
	-----------------------------------------------------------
	 SCS Same-Spin Scale       =       0.3333333333333333 [-]
	 SCS Opposite-Spin Scale   =       1.2000000000000000 [-]
	 SCS Same-Spin Energy      =      -0.0914470229709637 [Eh]
	 SCS Opposite-Spin Energy  =      -1.0642953515200479 [Eh]
	 SCS Correlation Energy    =      -1.1557423744910116 [Eh]
	 SCS Total Energy          =    -268.8929437151161324 [Eh]
	-----------------------------------------------------------

  Dipole Moment: [D]
     X:    -0.3290      Y:     0.6294      Z:     0.4195     Total:     0.8248

*** Psi4 exiting successfully. Buy a developer a beer!
