                               Psi4 1.4a3.dev225

  ==> Input File <==

--------------------------------------------------------------------------
#psi4
#
memory 32 gb

molecule  {
0 1
  O        0.1973020    -1.3235490    -0.2892290
  C       -1.0344600    -0.8194530     0.2767900
  C       -1.2574290     0.6116450    -0.1105210
  C       -0.1783580     1.4194390    -0.0692080
  C        1.0809462     0.8442668     0.1666324
  C        1.2576400    -0.5068660    -0.0292480
  H       -0.9620370    -0.9265990     1.3719500
  H       -1.8114290    -1.4891710    -0.0946800
  H       -2.2490060     0.9624120    -0.3801030
  H       -0.2469520     2.4774150    -0.3092500
  H        2.0071080     1.4278200     0.3572680
  H        2.2048620    -1.0348020    -0.0884010
units angstrom
no_reorient  #important for SAPT in psi4, default
symmetry c1  #important for SAPT in psi4, default
}

set PROPERTIES_ORIGIN ["COM"]
properties('MP2/aug-cc-pvtz', properties = ['dipole'])
--------------------------------------------------------------------------

    Molecular point group: c1
  Charge       = 0
  Multiplicity = 1
  Basis Set: AUG-CC-PVTZ
    Blend: AUG-CC-PVTZ
  Basis Set: (AUG-CC-PVTZ AUX)
    Blend: AUG-CC-PVTZ-JKFIT

    Orbital Energies [Eh]
    ---------------------

    Doubly Occupied:

       1A    -20.587616     2A    -11.305809     3A    -11.291313
       4A    -11.238131     5A    -11.230599     6A    -11.227788
       7A     -1.408128     8A     -1.102883     9A     -1.031571
      10A     -0.895154    11A     -0.846836    12A     -0.719887
      13A     -0.701836    14A     -0.650176    15A     -0.631362
      16A     -0.605440    17A     -0.571429    18A     -0.538166
      19A     -0.505408    20A     -0.470560    21A     -0.423594
      22A     -0.295430

  @DF-RHF Final Energy:  -267.73274597175856

   => Energetics <=

    Nuclear Repulsion Energy =            223.8775323510797932
    One-Electron Energy =                -806.6623248242932505
    Two-Electron Energy =                 315.0520465014548677
    Total Energy =                       -267.7327459717585612
  Basis Set: (AUG-CC-PVTZ AUX)
    Blend: AUG-CC-PVTZ-RI
    Molecular point group: c1

    Geometry (in Angstrom), charge = 0, multiplicity = 1:

       Center              X                  Y                   Z               Mass
    ------------   -----------------  -----------------  -----------------  -----------------
         O            0.191083584149    -1.309489007642    -0.277657346915    15.994914619570
         C           -1.040678415851    -0.805393007642     0.288361653085    12.000000000000
         C           -1.263647415851     0.625704992358    -0.098949346915    12.000000000000
         C           -0.184576415851     1.433498992358    -0.057636346915    12.000000000000
         C            1.074727784149     0.858326792358     0.178204053085    12.000000000000
         C            1.251421584149    -0.492806007642    -0.017676346915    12.000000000000
         H           -0.968255415851    -0.912539007642     1.383521653085     1.007825032230
         H           -1.817647415851    -1.475111007642    -0.083108346915     1.007825032230
         H           -2.255224415851     0.976471992358    -0.368531346915     1.007825032230
         H           -0.253170415851     2.491474992358    -0.297678346915     1.007825032230
         H            2.000889584149     1.441879992358     0.368839653085     1.007825032230
         H            2.198643584149    -1.020742007642    -0.076829346915     1.007825032230

  Basis Set: AUG-CC-PVTZ
    Blend: AUG-CC-PVTZ
  Basis Set: (AUG-CC-PVTZ AUX)
    Blend: AUG-CC-PVTZ-JKFIT
	 Reference Energy          =    -267.7327459717585612 [Eh]
	 Singles Energy            =      -0.0000000000000000 [Eh]
	 Same-Spin Energy          =      -0.2753835336679996 [Eh]
	 Opposite-Spin Energy      =      -0.8882282236019184 [Eh]
	 Correlation Energy        =      -1.1636117572699181 [Eh]
	 Total Energy              =    -268.8963577290284661 [Eh]

	 ================> DF-SCS-MP2 Energies <==================
	-----------------------------------------------------------
	 SCS Same-Spin Scale       =       0.3333333333333333 [-]
	 SCS Opposite-Spin Scale   =       1.2000000000000000 [-]
	 SCS Same-Spin Energy      =      -0.0917945112226665 [Eh]
	 SCS Opposite-Spin Energy  =      -1.0658738683223021 [Eh]
	 SCS Correlation Energy    =      -1.1576683795449687 [Eh]
	 SCS Total Energy          =    -268.8904143513035478 [Eh]
	-----------------------------------------------------------

  Dipole Moment: [D]
     X:    -0.2959      Y:     0.5764      Z:     0.4095     Total:     0.7664

*** Psi4 exiting successfully. Buy a developer a beer!
