                               Psi4 1.3.2 release

  ==> Input File <==

--------------------------------------------------------------------------
#psi4
#
memory 32 gb

molecule  {
0 1
  O        0.1973020    -1.3235490    -0.2892290
  C       -1.0344600    -0.8194530     0.2767900
  C       -1.2574290     0.6116450    -0.1105210
  C       -0.2645023     1.5241822    -0.1083659
  C        1.1257810     0.8237890     0.1750290
  C        1.2576400    -0.5068660    -0.0292480
  H       -0.9620370    -0.9265990     1.3719500
  H       -1.8114290    -1.4891710    -0.0946800
  H       -2.2490060     0.9624120    -0.3801030
  H       -0.2469520     2.4774150    -0.3092500
  H        2.0071080     1.4278200     0.3572680
  H        2.2048620    -1.0348020    -0.0884010
units angstrom
no_reorient  #important for SAPT in psi4, default
symmetry c1  #important for SAPT in psi4, default
}

set PROPERTIES_ORIGIN ["COM"]
properties('MP2/aug-cc-pvtz', properties = ['dipole'])
--------------------------------------------------------------------------

    Molecular point group: c1
  Charge       = 0
  Multiplicity = 1
  Basis Set: AUG-CC-PVTZ
    Blend: AUG-CC-PVTZ
  Basis Set: (AUG-CC-PVTZ AUX)
    Blend: AUG-CC-PVTZ-JKFIT

    Orbital Energies [Eh]
    ---------------------

    Doubly Occupied:

       1A    -20.584282     2A    -11.296010     3A    -11.295757
       4A    -11.242995     5A    -11.238127     6A    -11.231100
       7A     -1.404729     8A     -1.084414     9A     -1.029599
      10A     -0.909635    11A     -0.832899    12A     -0.730977
      13A     -0.701903    14A     -0.643073    15A     -0.637584
      16A     -0.616828    17A     -0.574803    18A     -0.520599
      19A     -0.505914    20A     -0.465575    21A     -0.407650
      22A     -0.309219

  @DF-RHF Final Energy:  -267.71739226751691

   => Energetics <=

    Nuclear Repulsion Energy =            221.6601527757713370
    One-Electron Energy =                -802.2277502146379220
    Two-Electron Energy =                 312.8502051713497281
    Total Energy =                       -267.7173922675169138
  Basis Set: (AUG-CC-PVTZ AUX)
    Blend: AUG-CC-PVTZ-RI
    Molecular point group: c1

    Geometry (in Angstrom), charge = 0, multiplicity = 1:

       Center              X                  Y                   Z               Mass
    ------------   -----------------  -----------------  -----------------  -----------------
         O            0.197125792003    -1.321814236991    -0.273157990387    15.994914619570
         C           -1.034636207997    -0.817718236991     0.292861009613    12.000000000000
         C           -1.257605207997     0.613379763009    -0.094449990387    12.000000000000
         C           -0.264678507997     1.525916963009    -0.092294890387    12.000000000000
         C            1.125604792003     0.825523763009     0.191100009613    12.000000000000
         C            1.257463792003    -0.505131236991    -0.013176990387    12.000000000000
         H           -0.962213207997    -0.924864236991     1.388021009613     1.007825032230
         H           -1.811605207997    -1.487436236991    -0.078608990387     1.007825032230
         H           -2.249182207997     0.964146763009    -0.364031990387     1.007825032230
         H           -0.247128207997     2.479149763009    -0.293178990387     1.007825032230
         H            2.006931792003     1.429554763009     0.373339009613     1.007825032230
         H            2.204685792003    -1.033067236991    -0.072329990387     1.007825032230

  Basis Set: AUG-CC-PVTZ
    Blend: AUG-CC-PVTZ
  Basis Set: (AUG-CC-PVTZ AUX)
    Blend: AUG-CC-PVTZ-JKFIT
	 Reference Energy          =    -267.7173922675169138 [Eh]
	 Singles Energy            =      -0.0000000000000000 [Eh]
	 Same-Spin Energy          =      -0.2725983045719702 [Eh]
	 Opposite-Spin Energy      =      -0.8866736989952267 [Eh]
	 Correlation Energy        =      -1.1592720035671968 [Eh]
	 Total Energy              =    -268.8766642710841097 [Eh]

	 ================> DF-SCS-MP2 Energies <==================
	-----------------------------------------------------------
	 SCS Same-Spin Scale       =       0.3333333333333333 [-]
	 SCS Opposite-Spin Scale   =       1.2000000000000000 [-]
	 SCS Same-Spin Energy      =      -0.0908661015239901 [Eh]
	 SCS Opposite-Spin Energy  =      -1.0640084387942721 [Eh]
	 SCS Correlation Energy    =      -1.1548745403182621 [Eh]
	 SCS Total Energy          =    -268.8722668078351603 [Eh]
	-----------------------------------------------------------

  Dipole Moment: [D]
     X:    -0.4918      Y:     0.6914      Z:     0.4039     Total:     0.9397

*** Psi4 exiting successfully. Buy a developer a beer!
