                               Psi4 1.3.2 release

  ==> Input File <==

--------------------------------------------------------------------------
#psi4
#
memory 32 gb

molecule  {
0 1
  O        0.1973020    -1.3235490    -0.2892290
  C       -1.0344600    -0.8194530     0.2767900
  C       -1.2574290     0.6116450    -0.1105210
  C       -0.1783580     1.4194390    -0.0692080
  C        1.1257810     0.8237890     0.1750290
  C        1.2576400    -0.5068660    -0.0292480
  H       -0.9620370    -0.9265990     1.3719500
  H       -1.8114290    -1.4891710    -0.0946800
  H       -2.4316524     1.0270226    -0.4297594
  H       -0.2469520     2.4774150    -0.3092500
  H        2.0071080     1.4278200     0.3572680
  H        2.2048620    -1.0348020    -0.0884010
units angstrom
no_reorient  #important for SAPT in psi4, default
symmetry c1  #important for SAPT in psi4, default
}

set PROPERTIES_ORIGIN ["COM"]
properties('MP2/aug-cc-pvtz', properties = ['dipole'])
--------------------------------------------------------------------------

    Molecular point group: c1
  Charge       = 0
  Multiplicity = 1
  Basis Set: AUG-CC-PVTZ
    Blend: AUG-CC-PVTZ
  Basis Set: (AUG-CC-PVTZ AUX)
    Blend: AUG-CC-PVTZ-JKFIT

    Orbital Energies [Eh]
    ---------------------

    Doubly Occupied:

       1A    -20.588889     2A    -11.302069     3A    -11.293686
       4A    -11.252901     5A    -11.243467     6A    -11.228040
       7A     -1.409045     8A     -1.096191     9A     -1.033818
      10A     -0.899213    11A     -0.833946    12A     -0.718717
      13A     -0.691613    14A     -0.650893    15A     -0.628081
      16A     -0.593436    17A     -0.570022    18A     -0.528875
      19A     -0.506614    20A     -0.464982    21A     -0.420123
      22A     -0.303678

  @DF-RHF Final Energy:  -267.71597823431335

   => Energetics <=

    Nuclear Repulsion Energy =            222.6434285737173298
    One-Electron Energy =                -804.2022138287134112
    Two-Electron Energy =                 313.8428070206827556
    Total Energy =                       -267.7159782343133543
  Basis Set: (AUG-CC-PVTZ AUX)
    Blend: AUG-CC-PVTZ-RI
    Molecular point group: c1

    Geometry (in Angstrom), charge = 0, multiplicity = 1:

       Center              X                  Y                   Z               Mass
    ------------   -----------------  -----------------  -----------------  -----------------
         O            0.186769421046    -1.307287480162    -0.278275497626    15.994914619570
         C           -1.044992578954    -0.803191480162     0.287743502374    12.000000000000
         C           -1.267961578954     0.627906519838    -0.099567497626    12.000000000000
         C           -0.188890578954     1.435700519838    -0.058254497626    12.000000000000
         C            1.115248421046     0.840050519838     0.185982502374    12.000000000000
         C            1.247107421046    -0.490604480162    -0.018294497626    12.000000000000
         H           -0.972569578954    -0.910337480162     1.382903502374     1.007825032230
         H           -1.821961578954    -1.472909480162    -0.083726497626     1.007825032230
         H           -2.442184978954     1.043284119838    -0.418805897626     1.007825032230
         H           -0.257484578954     2.493676519838    -0.298296497626     1.007825032230
         H            1.996575421046     1.444081519838     0.368221502374     1.007825032230
         H            2.194329421046    -1.018540480162    -0.077447497626     1.007825032230

  Basis Set: AUG-CC-PVTZ
    Blend: AUG-CC-PVTZ
  Basis Set: (AUG-CC-PVTZ AUX)
    Blend: AUG-CC-PVTZ-JKFIT
	 Reference Energy          =    -267.7159782343133543 [Eh]
	 Singles Energy            =      -0.0000000000000000 [Eh]
	 Same-Spin Energy          =      -0.2745480467156790 [Eh]
	 Opposite-Spin Energy      =      -0.8887651524523015 [Eh]
	 Correlation Energy        =      -1.1633131991679804 [Eh]
	 Total Energy              =    -268.8792914334813418 [Eh]

	 ================> DF-SCS-MP2 Energies <==================
	-----------------------------------------------------------
	 SCS Same-Spin Scale       =       0.3333333333333333 [-]
	 SCS Opposite-Spin Scale   =       1.2000000000000000 [-]
	 SCS Same-Spin Energy      =      -0.0915160155718930 [Eh]
	 SCS Opposite-Spin Energy  =      -1.0665181829427617 [Eh]
	 SCS Correlation Energy    =      -1.1580341985146547 [Eh]
	 SCS Total Energy          =    -268.8740124328280103 [Eh]
	-----------------------------------------------------------

  Dipole Moment: [D]
     X:    -0.2355      Y:     0.5831      Z:     0.4360     Total:     0.7653

*** Psi4 exiting successfully. Buy a developer a beer!
