                               Psi4 1.3.2 release

  ==> Input File <==

--------------------------------------------------------------------------
#psi4
#
memory 32 gb

molecule  {
0 1
  O        0.1827607    -1.3047646    -0.2878408
  C       -1.0344600    -0.8194530     0.2767900
  C       -1.2574290     0.6116450    -0.1105210
  C       -0.1783580     1.4194390    -0.0692080
  C        1.1257810     0.8237890     0.1750290
  C        1.2576400    -0.5068660    -0.0292480
  H       -0.9620370    -0.9265990     1.3719500
  H       -1.8114290    -1.4891710    -0.0946800
  H       -2.2490060     0.9624120    -0.3801030
  H       -0.2469520     2.4774150    -0.3092500
  H        2.0071080     1.4278200     0.3572680
  H        2.2048620    -1.0348020    -0.0884010
units angstrom
no_reorient  #important for SAPT in psi4, default
symmetry c1  #important for SAPT in psi4, default
}

set PROPERTIES_ORIGIN ["COM"]
properties('MP2/aug-cc-pvtz', properties = ['dipole'])
--------------------------------------------------------------------------

    Molecular point group: c1
  Charge       = 0
  Multiplicity = 1
  Basis Set: AUG-CC-PVTZ
    Blend: AUG-CC-PVTZ
  Basis Set: (AUG-CC-PVTZ AUX)
    Blend: AUG-CC-PVTZ-JKFIT

    Orbital Energies [Eh]
    ---------------------

    Doubly Occupied:

       1A    -20.585891     2A    -11.300834     3A    -11.289390
       4A    -11.240997     5A    -11.230853     6A    -11.226378
       7A     -1.412001     8A     -1.095530     9A     -1.036436
      10A     -0.897761    11A     -0.841658    12A     -0.719818
      13A     -0.704075    14A     -0.651860    15A     -0.634518
      16A     -0.605054    17A     -0.574499    18A     -0.532897
      19A     -0.506026    20A     -0.469600    21A     -0.418064
      22A     -0.302290

  @DF-RHF Final Energy:  -267.73873451101485

   => Energetics <=

    Nuclear Repulsion Energy =            223.9903686078959026
    One-Electron Energy =                -806.9053488047904921
    Two-Electron Energy =                 315.1762456858797350
    Total Energy =                       -267.7387345110148544
  Basis Set: (AUG-CC-PVTZ AUX)
    Blend: AUG-CC-PVTZ-RI
    Molecular point group: c1

    Geometry (in Angstrom), charge = 0, multiplicity = 1:

       Center              X                  Y                   Z               Mass
    ------------   -----------------  -----------------  -----------------  -----------------
         O            0.172819419624    -1.291371599724    -0.277767934646    15.994914619570
         C           -1.044401280376    -0.806059999724     0.286862865354    12.000000000000
         C           -1.267370280376     0.625038000276    -0.100448134646    12.000000000000
         C           -0.188299280376     1.432832000276    -0.059135134646    12.000000000000
         C            1.115839719624     0.837182000276     0.185101865354    12.000000000000
         C            1.247698719624    -0.493472999724    -0.019175134646    12.000000000000
         H           -0.971978280376    -0.913205999724     1.382022865354     1.007825032230
         H           -1.821370280376    -1.475777999724    -0.084607134646     1.007825032230
         H           -2.258947280376     0.975805000276    -0.370030134646     1.007825032230
         H           -0.256893280376     2.490808000276    -0.299177134646     1.007825032230
         H            1.997166719624     1.441213000276     0.367340865354     1.007825032230
         H            2.194920719624    -1.021408999724    -0.078328134646     1.007825032230

  Basis Set: AUG-CC-PVTZ
    Blend: AUG-CC-PVTZ
  Basis Set: (AUG-CC-PVTZ AUX)
    Blend: AUG-CC-PVTZ-JKFIT
	 Reference Energy          =    -267.7387345110148544 [Eh]
	 Singles Energy            =      -0.0000000000000000 [Eh]
	 Same-Spin Energy          =      -0.2740098019897224 [Eh]
	 Opposite-Spin Energy      =      -0.8862283706125401 [Eh]
	 Correlation Energy        =      -1.1602381726022624 [Eh]
	 Total Energy              =    -268.8989726836171030 [Eh]

	 ================> DF-SCS-MP2 Energies <==================
	-----------------------------------------------------------
	 SCS Same-Spin Scale       =       0.3333333333333333 [-]
	 SCS Opposite-Spin Scale   =       1.2000000000000000 [-]
	 SCS Same-Spin Energy      =      -0.0913366006632408 [Eh]
	 SCS Opposite-Spin Energy  =      -1.0634740447350481 [Eh]
	 SCS Correlation Energy    =      -1.1548106453982889 [Eh]
	 SCS Total Energy          =    -268.8935451564131540 [Eh]
	-----------------------------------------------------------

  Dipole Moment: [D]
     X:    -0.2816      Y:     0.5929      Z:     0.4042     Total:     0.7709

*** Psi4 exiting successfully. Buy a developer a beer!
