                               Psi4 1.3.2 release

  ==> Input File <==

--------------------------------------------------------------------------
#psi4
#
memory 32 gb

molecule  {
0 1
  O        0.1973020    -1.3235490    -0.2892290
  C       -1.0344600    -0.8194530     0.2767900
  C       -1.2574290     0.6116450    -0.1105210
  C       -0.1783580     1.4194390    -0.0692080
  C        1.1257810     0.8237890     0.1750290
  C        1.2342285    -0.5085915    -0.0317557
  H       -0.9620370    -0.9265990     1.3719500
  H       -1.8114290    -1.4891710    -0.0946800
  H       -2.2490060     0.9624120    -0.3801030
  H       -0.2469520     2.4774150    -0.3092500
  H        2.0071080     1.4278200     0.3572680
  H        2.2048620    -1.0348020    -0.0884010
units angstrom
no_reorient  #important for SAPT in psi4, default
symmetry c1  #important for SAPT in psi4, default
}

set PROPERTIES_ORIGIN ["COM"]
properties('MP2/aug-cc-pvtz', properties = ['dipole'])
--------------------------------------------------------------------------

    Molecular point group: c1
  Charge       = 0
  Multiplicity = 1
  Basis Set: AUG-CC-PVTZ
    Blend: AUG-CC-PVTZ
  Basis Set: (AUG-CC-PVTZ AUX)
    Blend: AUG-CC-PVTZ-JKFIT

    Orbital Energies [Eh]
    ---------------------

    Doubly Occupied:

       1A    -20.590563     2A    -11.302305     3A    -11.292289
       4A    -11.241393     5A    -11.230127     6A    -11.224281
       7A     -1.417452     8A     -1.096932     9A     -1.034701
      10A     -0.899660    11A     -0.839924    12A     -0.718287
      13A     -0.704851    14A     -0.652578    15A     -0.634844
      16A     -0.605705    17A     -0.571922    18A     -0.532604
      19A     -0.511323    20A     -0.470546    21A     -0.418720
      22A     -0.300853

  @DF-RHF Final Energy:  -267.73786344057191

   => Energetics <=

    Nuclear Repulsion Energy =            223.9072030381069851
    One-Electron Energy =                -806.7064105972480093
    Two-Electron Energy =                 315.0613441185690817
    Total Energy =                       -267.7378634405719140
  Basis Set: (AUG-CC-PVTZ AUX)
    Blend: AUG-CC-PVTZ-RI
    Molecular point group: c1

    Geometry (in Angstrom), charge = 0, multiplicity = 1:

       Center              X                  Y                   Z               Mass
    ------------   -----------------  -----------------  -----------------  -----------------
         O            0.187950066882    -1.306241402281    -0.278518697399    15.994914619570
         C           -1.043811933118    -0.802145402281     0.287500302601    12.000000000000
         C           -1.266780933118     0.628952597719    -0.099810697399    12.000000000000
         C           -0.187709933118     1.436746597719    -0.058497697399    12.000000000000
         C            1.116429066882     0.841096597719     0.185739302601    12.000000000000
         C            1.224876566882    -0.491283902281    -0.021045397399    12.000000000000
         H           -0.971388933118    -0.909291402281     1.382660302601     1.007825032230
         H           -1.820780933118    -1.471863402281    -0.083969697399     1.007825032230
         H           -2.258357933118     0.979719597719    -0.369392697399     1.007825032230
         H           -0.256303933118     2.494722597719    -0.298539697399     1.007825032230
         H            1.997756066882     1.445127597719     0.367978302601     1.007825032230
         H            2.195510066882    -1.017494402281    -0.077690697399     1.007825032230

  Basis Set: AUG-CC-PVTZ
    Blend: AUG-CC-PVTZ
  Basis Set: (AUG-CC-PVTZ AUX)
    Blend: AUG-CC-PVTZ-JKFIT
	 Reference Energy          =    -267.7378634405719140 [Eh]
	 Singles Energy            =      -0.0000000000000000 [Eh]
	 Same-Spin Energy          =      -0.2742284894374981 [Eh]
	 Opposite-Spin Energy      =      -0.8864771696610424 [Eh]
	 Correlation Energy        =      -1.1607056590985405 [Eh]
	 Total Energy              =    -268.8985690996704534 [Eh]

	 ================> DF-SCS-MP2 Energies <==================
	-----------------------------------------------------------
	 SCS Same-Spin Scale       =       0.3333333333333333 [-]
	 SCS Opposite-Spin Scale   =       1.2000000000000000 [-]
	 SCS Same-Spin Energy      =      -0.0914094964791660 [Eh]
	 SCS Opposite-Spin Energy  =      -1.0637726035932509 [Eh]
	 SCS Correlation Energy    =      -1.1551821000724170 [Eh]
	 SCS Total Energy          =    -268.8930455406443230 [Eh]
	-----------------------------------------------------------

  Dipole Moment: [D]
     X:    -0.3734      Y:     0.5649      Z:     0.4097     Total:     0.7914

*** Psi4 exiting successfully. Buy a developer a beer!
