                               Psi4 1.3.2 release

  ==> Input File <==

--------------------------------------------------------------------------
#psi4
#
memory 32 gb

molecule  {
0 1
  O        0.1973020    -1.3235490    -0.2892290
  C       -1.1367281    -0.8356602     0.2616420
  C       -1.2574290     0.6116450    -0.1105210
  C       -0.1783580     1.4194390    -0.0692080
  C        1.1257810     0.8237890     0.1750290
  C        1.2576400    -0.5068660    -0.0292480
  H       -0.9620370    -0.9265990     1.3719500
  H       -1.8114290    -1.4891710    -0.0946800
  H       -2.2490060     0.9624120    -0.3801030
  H       -0.2469520     2.4774150    -0.3092500
  H        2.0071080     1.4278200     0.3572680
  H        2.2048620    -1.0348020    -0.0884010
units angstrom
no_reorient  #important for SAPT in psi4, default
symmetry c1  #important for SAPT in psi4, default
}

set PROPERTIES_ORIGIN ["COM"]
properties('MP2/aug-cc-pvtz', properties = ['dipole'])
--------------------------------------------------------------------------

    Molecular point group: c1
  Charge       = 0
  Multiplicity = 1
  Basis Set: AUG-CC-PVTZ
    Blend: AUG-CC-PVTZ
  Basis Set: (AUG-CC-PVTZ AUX)
    Blend: AUG-CC-PVTZ-JKFIT

    Orbital Energies [Eh]
    ---------------------

    Doubly Occupied:

       1A    -20.578750     2A    -11.299553     3A    -11.295028
       4A    -11.243920     5A    -11.232966     6A    -11.222110
       7A     -1.383472     8A     -1.093722     9A     -1.035197
      10A     -0.905417    11A     -0.834872    12A     -0.719705
      13A     -0.694999    14A     -0.642172    15A     -0.638451
      16A     -0.602606    17A     -0.571281    18A     -0.527172
      19A     -0.518654    20A     -0.466966    21A     -0.416223
      22A     -0.299046

  @DF-RHF Final Energy:  -267.72539136295438

   => Energetics <=

    Nuclear Repulsion Energy =            222.0352886660148783
    One-Electron Energy =                -803.0767926338812686
    Two-Electron Energy =                 313.3161126049120639
    Total Energy =                       -267.7253913629543831
  Basis Set: (AUG-CC-PVTZ AUX)
    Blend: AUG-CC-PVTZ-RI
    Molecular point group: c1

    Geometry (in Angstrom), charge = 0, multiplicity = 1:

       Center              X                  Y                   Z               Mass
    ------------   -----------------  -----------------  -----------------  -----------------
         O            0.199484168430    -1.304123210546    -0.276669841326    15.994914619570
         C           -1.134545931570    -0.816234410546     0.274201158674    12.000000000000
         C           -1.255246831570     0.631070789454    -0.097961841326    12.000000000000
         C           -0.176175831570     1.438864789454    -0.056648841326    12.000000000000
         C            1.127963168430     0.843214789454     0.187588158674    12.000000000000
         C            1.259822168430    -0.487440210546    -0.016688841326    12.000000000000
         H           -0.959854831570    -0.907173210546     1.384509158674     1.007825032230
         H           -1.809246831570    -1.469745210546    -0.082120841326     1.007825032230
         H           -2.246823831570     0.981837789454    -0.367543841326     1.007825032230
         H           -0.244769831570     2.496840789454    -0.296690841326     1.007825032230
         H            2.009290168430     1.447245789454     0.369827158674     1.007825032230
         H            2.207044168430    -1.015376210546    -0.075841841326     1.007825032230

  Basis Set: AUG-CC-PVTZ
    Blend: AUG-CC-PVTZ
  Basis Set: (AUG-CC-PVTZ AUX)
    Blend: AUG-CC-PVTZ-JKFIT
	 Reference Energy          =    -267.7253913629543831 [Eh]
	 Singles Energy            =      -0.0000000000000000 [Eh]
	 Same-Spin Energy          =      -0.2743407455925452 [Eh]
	 Opposite-Spin Energy      =      -0.8878926559211704 [Eh]
	 Correlation Energy        =      -1.1622334015137157 [Eh]
	 Total Energy              =    -268.8876247644681143 [Eh]

	 ================> DF-SCS-MP2 Energies <==================
	-----------------------------------------------------------
	 SCS Same-Spin Scale       =       0.3333333333333333 [-]
	 SCS Opposite-Spin Scale   =       1.2000000000000000 [-]
	 SCS Same-Spin Energy      =      -0.0914469151975150 [Eh]
	 SCS Opposite-Spin Energy  =      -1.0654711871054043 [Eh]
	 SCS Correlation Energy    =      -1.1569181023029194 [Eh]
	 SCS Total Energy          =    -268.8823094652573218 [Eh]
	-----------------------------------------------------------

  Dipole Moment: [D]
     X:    -0.5520      Y:     0.5644      Z:     0.4508     Total:     0.9091

*** Psi4 exiting successfully. Buy a developer a beer!
