                               Psi4 1.4a3.dev225

  ==> Input File <==

--------------------------------------------------------------------------
#psi4
#
memory 32 gb

molecule  {
0 1
  O        0.1973020    -1.3235490    -0.2892290
  C       -1.0344600    -0.8194530     0.2767900
  C       -1.2574290     0.6116450    -0.1105210
  C       -0.1783580     1.4194390    -0.0692080
  C        1.1257810     0.8237890     0.1750290
  C        1.2576400    -0.5068660    -0.0292480
  H       -0.9620370    -0.9265990     1.3719500
  H       -1.8114290    -1.4891710    -0.0946800
  H       -2.2490060     0.9624120    -0.3801030
  H       -0.2482140     2.4968804    -0.3136665
  H        2.0071080     1.4278200     0.3572680
  H        2.2048620    -1.0348020    -0.0884010
units angstrom
no_reorient  #important for SAPT in psi4, default
symmetry c1  #important for SAPT in psi4, default
}

set PROPERTIES_ORIGIN ["COM"]
properties('MP2/aug-cc-pvtz', properties = ['dipole'])
--------------------------------------------------------------------------

    Molecular point group: c1
  Charge       = 0
  Multiplicity = 1
  Basis Set: AUG-CC-PVTZ
    Blend: AUG-CC-PVTZ
  Basis Set: (AUG-CC-PVTZ AUX)
    Blend: AUG-CC-PVTZ-JKFIT

    Orbital Energies [Eh]
    ---------------------

    Doubly Occupied:

       1A    -20.587163     2A    -11.301020     3A    -11.291300
       4A    -11.244003     5A    -11.231478     6A    -11.226371
       7A     -1.407449     8A     -1.096067     9A     -1.034748
      10A     -0.897787    11A     -0.840167    12A     -0.716861
      13A     -0.703070    14A     -0.649793    15A     -0.633068
      16A     -0.604028    17A     -0.571267    18A     -0.532570
      19A     -0.508096    20A     -0.470642    21A     -0.418982
      22A     -0.302355

  @DF-RHF Final Energy:  -267.73751229896965

   => Energetics <=

    Nuclear Repulsion Energy =            223.4017816765596081
    One-Electron Energy =                -805.7420163587825073
    Two-Electron Energy =                 314.6027223832532513
    Total Energy =                       -267.7375122989696479
  Basis Set: (AUG-CC-PVTZ AUX)
    Blend: AUG-CC-PVTZ-RI
    Molecular point group: c1

    Geometry (in Angstrom), charge = 0, multiplicity = 1:

       Center              X                  Y                   Z               Mass
    ------------   -----------------  -----------------  -----------------  -----------------
         O            0.184541244746    -1.306732903998    -0.278831237110    15.994914619570
         C           -1.047220755254    -0.802636903998     0.287187762890    12.000000000000
         C           -1.270189755254     0.628461096002    -0.100123237110    12.000000000000
         C           -0.191118755254     1.436255096002    -0.058810237110    12.000000000000
         C            1.113020244746     0.840605096002     0.185426762890    12.000000000000
         C            1.244879244746    -0.490049903998    -0.018850237110    12.000000000000
         H           -0.974797755254    -0.909782903998     1.382347762890     1.007825032230
         H           -1.824189755254    -1.472354903998    -0.084282237110     1.007825032230
         H           -2.261766755254     0.979228096002    -0.369705237110     1.007825032230
         H           -0.260974755254     2.513696496002    -0.303268737110     1.007825032230
         H            1.994347244746     1.444636096002     0.367665762890     1.007825032230
         H            2.192101244746    -1.017985903998    -0.078003237110     1.007825032230

  Basis Set: AUG-CC-PVTZ
    Blend: AUG-CC-PVTZ
  Basis Set: (AUG-CC-PVTZ AUX)
    Blend: AUG-CC-PVTZ-JKFIT
	 Reference Energy          =    -267.7375122989696479 [Eh]
	 Singles Energy            =      -0.0000000000000000 [Eh]
	 Same-Spin Energy          =      -0.2741490065415378 [Eh]
	 Opposite-Spin Energy      =      -0.8868748370499697 [Eh]
	 Correlation Energy        =      -1.1610238435915075 [Eh]
	 Total Energy              =    -268.8985361425611700 [Eh]

	 ================> DF-SCS-MP2 Energies <==================
	-----------------------------------------------------------
	 SCS Same-Spin Scale       =       0.3333333333333333 [-]
	 SCS Opposite-Spin Scale   =       1.2000000000000000 [-]
	 SCS Same-Spin Energy      =      -0.0913830021805126 [Eh]
	 SCS Opposite-Spin Energy  =      -1.0642498044599635 [Eh]
	 SCS Correlation Energy    =      -1.1556328066404762 [Eh]
	 SCS Total Energy          =    -268.8931451056101309 [Eh]
	-----------------------------------------------------------

  Dipole Moment: [D]
     X:    -0.3259      Y:     0.6148      Z:     0.4202     Total:     0.8129

*** Psi4 exiting successfully. Buy a developer a beer!
