                               Psi4 1.3.2 release

  ==> Input File <==

--------------------------------------------------------------------------
#psi4
#
memory 32 gb

molecule  {
0 1
  O        0.1973020    -1.3235490    -0.2892290
  C       -1.0344600    -0.8194530     0.2767900
  C       -1.2574290     0.6116450    -0.1105210
  C       -0.1783580     1.4194390    -0.0692080
  C        1.1257810     0.8237890     0.1750290
  C        1.2576400    -0.5068660    -0.0292480
  H       -0.9620370    -0.9265990     1.3719500
  H       -1.8114290    -1.4891710    -0.0946800
  H       -2.0663596     0.8978014    -0.3304466
  H       -0.2469520     2.4774150    -0.3092500
  H        2.0071080     1.4278200     0.3572680
  H        2.2048620    -1.0348020    -0.0884010
units angstrom
no_reorient  #important for SAPT in psi4, default
symmetry c1  #important for SAPT in psi4, default
}

set PROPERTIES_ORIGIN ["COM"]
properties('MP2/aug-cc-pvtz', properties = ['dipole'])
--------------------------------------------------------------------------

    Molecular point group: c1
  Charge       = 0
  Multiplicity = 1
  Basis Set: AUG-CC-PVTZ
    Blend: AUG-CC-PVTZ
  Basis Set: (AUG-CC-PVTZ AUX)
    Blend: AUG-CC-PVTZ-JKFIT

    Orbital Energies [Eh]
    ---------------------

    Doubly Occupied:

       1A    -20.586060     2A    -11.300513     3A    -11.289513
       4A    -11.241079     5A    -11.225087     6A    -11.207453
       7A     -1.406379     8A     -1.100199     9A     -1.038297
      10A     -0.900449    11A     -0.856383    12A     -0.730448
      13A     -0.714833    14A     -0.650419    15A     -0.641673
      16A     -0.611917    17A     -0.572501    18A     -0.535122
      19A     -0.508924    20A     -0.474013    21A     -0.418220
      22A     -0.301839

  @DF-RHF Final Energy:  -267.70293906525126

   => Energetics <=

    Nuclear Repulsion Energy =            224.5975425262708427
    One-Electron Energy =                -807.9783183784400080
    Two-Electron Energy =                 315.6778367869178510
    Total Energy =                       -267.7029390652512575
  Basis Set: (AUG-CC-PVTZ AUX)
    Blend: AUG-CC-PVTZ-RI
    Molecular point group: c1

    Geometry (in Angstrom), charge = 0, multiplicity = 1:

       Center              X                  Y                   Z               Mass
    ------------   -----------------  -----------------  -----------------  -----------------
         O            0.182282062930    -1.305700091085    -0.279495483618    15.994914619570
         C           -1.049479937070    -0.801604091085     0.286523516382    12.000000000000
         C           -1.272448937070     0.629493908915    -0.100787483618    12.000000000000
         C           -0.193377937070     1.437287908915    -0.059474483618    12.000000000000
         C            1.110761062930     0.841637908915     0.184762516382    12.000000000000
         C            1.242620062930    -0.489017091085    -0.019514483618    12.000000000000
         H           -0.977056937070    -0.908750091085     1.381683516382     1.007825032230
         H           -1.826448937070    -1.471322091085    -0.084946483618     1.007825032230
         H           -2.081379537070     0.915650308915    -0.320713083618     1.007825032230
         H           -0.261971937070     2.495263908915    -0.299516483618     1.007825032230
         H            1.992088062930     1.445668908915     0.367001516382     1.007825032230
         H            2.189842062930    -1.016953091085    -0.078667483618     1.007825032230

  Basis Set: AUG-CC-PVTZ
    Blend: AUG-CC-PVTZ
  Basis Set: (AUG-CC-PVTZ AUX)
    Blend: AUG-CC-PVTZ-JKFIT
	 Reference Energy          =    -267.7029390652512575 [Eh]
	 Singles Energy            =      -0.0000000000000000 [Eh]
	 Same-Spin Energy          =      -0.2739740062132566 [Eh]
	 Opposite-Spin Energy      =      -0.8863014231248402 [Eh]
	 Correlation Energy        =      -1.1602754293380968 [Eh]
	 Total Energy              =    -268.8632144945893288 [Eh]

	 ================> DF-SCS-MP2 Energies <==================
	-----------------------------------------------------------
	 SCS Same-Spin Scale       =       0.3333333333333333 [-]
	 SCS Opposite-Spin Scale   =       1.2000000000000000 [-]
	 SCS Same-Spin Energy      =      -0.0913246687377522 [Eh]
	 SCS Opposite-Spin Energy  =      -1.0635617077498081 [Eh]
	 SCS Correlation Energy    =      -1.1548863764875603 [Eh]
	 SCS Total Energy          =    -268.8578254417388393 [Eh]
	-----------------------------------------------------------

  Dipole Moment: [D]
     X:    -0.3574      Y:     0.6434      Z:     0.4140     Total:     0.8445

*** Psi4 exiting successfully. Buy a developer a beer!
