                               Psi4 1.3.2 release

  ==> Input File <==

--------------------------------------------------------------------------
#psi4
#
memory 32 gb

molecule  {
0 1
  O        0.1973020    -1.3235490    -0.2892290
  C       -1.0344600    -0.8194530     0.2767900
  C       -1.2574290     0.6116450    -0.1105210
  C       -0.1783580     1.4194390    -0.0692080
  C        1.0788920     0.8186051     0.1730735
  C        1.2576400    -0.5068660    -0.0292480
  H       -0.9620370    -0.9265990     1.3719500
  H       -1.8114290    -1.4891710    -0.0946800
  H       -2.2490060     0.9624120    -0.3801030
  H       -0.2469520     2.4774150    -0.3092500
  H        2.0071080     1.4278200     0.3572680
  H        2.2048620    -1.0348020    -0.0884010
units angstrom
no_reorient  #important for SAPT in psi4, default
symmetry c1  #important for SAPT in psi4, default
}

set PROPERTIES_ORIGIN ["COM"]
properties('MP2/aug-cc-pvtz', properties = ['dipole'])
--------------------------------------------------------------------------

    Molecular point group: c1
  Charge       = 0
  Multiplicity = 1
  Basis Set: AUG-CC-PVTZ
    Blend: AUG-CC-PVTZ
  Basis Set: (AUG-CC-PVTZ AUX)
    Blend: AUG-CC-PVTZ-JKFIT

    Orbital Energies [Eh]
    ---------------------

    Doubly Occupied:

       1A    -20.585598     2A    -11.301096     3A    -11.291028
       4A    -11.238887     5A    -11.231275     6A    -11.226544
       7A     -1.407140     8A     -1.102756     9A     -1.033738
      10A     -0.897326    11A     -0.844189    12A     -0.720243
      13A     -0.700689    14A     -0.650306    15A     -0.629488
      16A     -0.606978    17A     -0.570701    18A     -0.535045
      19A     -0.503240    20A     -0.472625    21A     -0.423204
      22A     -0.299102

  @DF-RHF Final Energy:  -267.73430588647994

   => Energetics <=

    Nuclear Repulsion Energy =            224.1636278455086142
    One-Electron Energy =                -807.2534749306308868
    Two-Electron Energy =                 315.3555411986423564
    Total Energy =                       -267.7343058864799445
  Basis Set: (AUG-CC-PVTZ AUX)
    Blend: AUG-CC-PVTZ-RI
    Molecular point group: c1

    Geometry (in Angstrom), charge = 0, multiplicity = 1:

       Center              X                  Y                   Z               Mass
    ------------   -----------------  -----------------  -----------------  -----------------
         O            0.191384045383    -1.305735553224    -0.278599465919    15.994914619570
         C           -1.040377954617    -0.801639553224     0.287419534081    12.000000000000
         C           -1.263346954617     0.629458446776    -0.099891465919    12.000000000000
         C           -0.184275954617     1.437252446776    -0.058578465919    12.000000000000
         C            1.072974045383     0.836418546776     0.183703034081    12.000000000000
         C            1.251722045383    -0.489052553224    -0.018618465919    12.000000000000
         H           -0.967954954617    -0.908785553224     1.382579534081     1.007825032230
         H           -1.817346954617    -1.471357553224    -0.084050465919     1.007825032230
         H           -2.254923954617     0.980225446776    -0.369473465919     1.007825032230
         H           -0.252869954617     2.495228446776    -0.298620465919     1.007825032230
         H            2.001190045383     1.445633446776     0.367897534081     1.007825032230
         H            2.198944045383    -1.016988553224    -0.077771465919     1.007825032230

  Basis Set: AUG-CC-PVTZ
    Blend: AUG-CC-PVTZ
  Basis Set: (AUG-CC-PVTZ AUX)
    Blend: AUG-CC-PVTZ-JKFIT
	 Reference Energy          =    -267.7343058864799445 [Eh]
	 Singles Energy            =      -0.0000000000000000 [Eh]
	 Same-Spin Energy          =      -0.2749171949471438 [Eh]
	 Opposite-Spin Energy      =      -0.8874954041785219 [Eh]
	 Correlation Energy        =      -1.1624125991256657 [Eh]
	 Total Energy              =    -268.8967184856056178 [Eh]

	 ================> DF-SCS-MP2 Energies <==================
	-----------------------------------------------------------
	 SCS Same-Spin Scale       =       0.3333333333333333 [-]
	 SCS Opposite-Spin Scale   =       1.2000000000000000 [-]
	 SCS Same-Spin Energy      =      -0.0916390649823813 [Eh]
	 SCS Opposite-Spin Energy  =      -1.0649944850142263 [Eh]
	 SCS Correlation Energy    =      -1.1566335499966076 [Eh]
	 SCS Total Energy          =    -268.8909394364765717 [Eh]
	-----------------------------------------------------------

  Dipole Moment: [D]
     X:    -0.3113      Y:     0.6081      Z:     0.4026     Total:     0.7930

*** Psi4 exiting successfully. Buy a developer a beer!
