                               Psi4 1.3.2 release

  ==> Input File <==

--------------------------------------------------------------------------
#psi4
#
memory 32 gb

molecule  {
0 1
  O        0.1973020    -1.3235490    -0.2892290
  C       -1.0344600    -0.8194530     0.2767900
  C       -1.2276850     0.4207372    -0.0588539
  C       -0.1783580     1.4194390    -0.0692080
  C        1.1257810     0.8237890     0.1750290
  C        1.2576400    -0.5068660    -0.0292480
  H       -0.9620370    -0.9265990     1.3719500
  H       -1.8114290    -1.4891710    -0.0946800
  H       -2.2490060     0.9624120    -0.3801030
  H       -0.2469520     2.4774150    -0.3092500
  H        2.0071080     1.4278200     0.3572680
  H        2.2048620    -1.0348020    -0.0884010
units angstrom
no_reorient  #important for SAPT in psi4, default
symmetry c1  #important for SAPT in psi4, default
}

set PROPERTIES_ORIGIN ["COM"]
properties('MP2/aug-cc-pvtz', properties = ['dipole'])
--------------------------------------------------------------------------

    Molecular point group: c1
  Charge       = 0
  Multiplicity = 1
  Basis Set: AUG-CC-PVTZ
    Blend: AUG-CC-PVTZ
  Basis Set: (AUG-CC-PVTZ AUX)
    Blend: AUG-CC-PVTZ-JKFIT

    Orbital Energies [Eh]
    ---------------------

    Doubly Occupied:

       1A    -20.587390     2A    -11.301193     3A    -11.281017
       4A    -11.256784     5A    -11.241673     6A    -11.226311
       7A     -1.412631     8A     -1.104391     9A     -1.059602
      10A     -0.897379    11A     -0.840532    12A     -0.726579
      13A     -0.701193    14A     -0.660920    15A     -0.633740
      16A     -0.600228    17A     -0.588409    18A     -0.532588
      19A     -0.505492    20A     -0.465535    21A     -0.407946
      22A     -0.287776

  @DF-RHF Final Energy:  -267.67573930692583

   => Energetics <=

    Nuclear Repulsion Energy =            225.4221239870312843
    One-Electron Energy =                -809.5571064427675765
    Two-Electron Energy =                 316.4592431488104012
    Total Energy =                       -267.6757393069258342
  Basis Set: (AUG-CC-PVTZ AUX)
    Blend: AUG-CC-PVTZ-RI
    Molecular point group: c1

    Geometry (in Angstrom), charge = 0, multiplicity = 1:

       Center              X                  Y                   Z               Mass
    ------------   -----------------  -----------------  -----------------  -----------------
         O            0.180175182663    -1.278570315024    -0.286442671354    15.994914619570
         C           -1.051586817337    -0.774474315024     0.279576328646    12.000000000000
         C           -1.244811817337     0.465715884976    -0.056067571354    12.000000000000
         C           -0.195484817337     1.464417684976    -0.066421671354    12.000000000000
         C            1.108654182663     0.868767684976     0.177815328646    12.000000000000
         C            1.240513182663    -0.461887315024    -0.026461671354    12.000000000000
         H           -0.979163817337    -0.881620315024     1.374736328646     1.007825032230
         H           -1.828555817337    -1.444192315024    -0.091893671354     1.007825032230
         H           -2.266132817337     1.007390684976    -0.377316671354     1.007825032230
         H           -0.264078817337     2.522393684976    -0.306463671354     1.007825032230
         H            1.989981182663     1.472798684976     0.360054328646     1.007825032230
         H            2.187735182663    -0.989823315024    -0.085614671354     1.007825032230

  Basis Set: AUG-CC-PVTZ
    Blend: AUG-CC-PVTZ
  Basis Set: (AUG-CC-PVTZ AUX)
    Blend: AUG-CC-PVTZ-JKFIT
	 Reference Energy          =    -267.6757393069258342 [Eh]
	 Singles Energy            =      -0.0000000000000000 [Eh]
	 Same-Spin Energy          =      -0.2795353592064028 [Eh]
	 Opposite-Spin Energy      =      -0.8940815773295979 [Eh]
	 Correlation Energy        =      -1.1736169365360007 [Eh]
	 Total Energy              =    -268.8493562434618411 [Eh]

	 ================> DF-SCS-MP2 Energies <==================
	-----------------------------------------------------------
	 SCS Same-Spin Scale       =       0.3333333333333333 [-]
	 SCS Opposite-Spin Scale   =       1.2000000000000000 [-]
	 SCS Same-Spin Energy      =      -0.0931784530688009 [Eh]
	 SCS Opposite-Spin Energy  =      -1.0728978927955175 [Eh]
	 SCS Correlation Energy    =      -1.1660763458643184 [Eh]
	 SCS Total Energy          =    -268.8418156527901601 [Eh]
	-----------------------------------------------------------

  Dipole Moment: [D]
     X:    -0.2434      Y:     0.6851      Z:     0.3943     Total:     0.8271

*** Psi4 exiting successfully. Buy a developer a beer!
