                               Psi4 1.3.2 release

  ==> Input File <==

--------------------------------------------------------------------------
#psi4
#
memory 32 gb

molecule  {
0 1
  O        0.1973020    -1.3235490    -0.2892290
  C       -1.0344600    -0.8194530     0.2767900
  C       -1.2574290     0.6116450    -0.1105210
  C       -0.1882897     1.3961961    -0.0715423
  C        1.1257810     0.8237890     0.1750290
  C        1.2576400    -0.5068660    -0.0292480
  H       -0.9620370    -0.9265990     1.3719500
  H       -1.8114290    -1.4891710    -0.0946800
  H       -2.2490060     0.9624120    -0.3801030
  H       -0.2469520     2.4774150    -0.3092500
  H        2.0071080     1.4278200     0.3572680
  H        2.2048620    -1.0348020    -0.0884010
units angstrom
no_reorient  #important for SAPT in psi4, default
symmetry c1  #important for SAPT in psi4, default
}

set PROPERTIES_ORIGIN ["COM"]
properties('MP2/aug-cc-pvtz', properties = ['dipole'])
--------------------------------------------------------------------------

    Molecular point group: c1
  Charge       = 0
  Multiplicity = 1
  Basis Set: AUG-CC-PVTZ
    Blend: AUG-CC-PVTZ
  Basis Set: (AUG-CC-PVTZ AUX)
    Blend: AUG-CC-PVTZ-JKFIT

    Orbital Energies [Eh]
    ---------------------

    Doubly Occupied:

       1A    -20.587032     2A    -11.300669     3A    -11.290568
       4A    -11.240198     5A    -11.227866     6A    -11.225841
       7A     -1.407453     8A     -1.099679     9A     -1.035299
      10A     -0.899326    11A     -0.839494    12A     -0.717001
      13A     -0.702732    14A     -0.650700    15A     -0.633254
      16A     -0.604747    17A     -0.569681    18A     -0.533517
      19A     -0.509440    20A     -0.468201    21A     -0.421141
      22A     -0.304634

  @DF-RHF Final Energy:  -267.73812766535121

   => Energetics <=

    Nuclear Repulsion Energy =            223.8886305429628294
    One-Electron Energy =                -806.7165717156062783
    Two-Electron Energy =                 315.0898135072922628
    Total Energy =                       -267.7381276653512145
  Basis Set: (AUG-CC-PVTZ AUX)
    Blend: AUG-CC-PVTZ-RI
    Molecular point group: c1

    Geometry (in Angstrom), charge = 0, multiplicity = 1:

       Center              X                  Y                   Z               Mass
    ------------   -----------------  -----------------  -----------------  -----------------
         O            0.185978419841    -1.303094121310    -0.278544060060    15.994914619570
         C           -1.045783580159    -0.798998121310     0.287474939940    12.000000000000
         C           -1.268752580159     0.632099878690    -0.099836060060    12.000000000000
         C           -0.199613280159     1.416650978690    -0.060857360060    12.000000000000
         C            1.114457419841     0.844243878690     0.185713939940    12.000000000000
         C            1.246316419841    -0.486411121310    -0.018563060060    12.000000000000
         H           -0.973360580159    -0.906144121310     1.382634939940     1.007825032230
         H           -1.822752580159    -1.468716121310    -0.083995060060     1.007825032230
         H           -2.260329580159     0.982866878690    -0.369418060060     1.007825032230
         H           -0.258275580159     2.497869878690    -0.298565060060     1.007825032230
         H            1.995784419841     1.448274878690     0.367952939940     1.007825032230
         H            2.193538419841    -1.014347121310    -0.077716060060     1.007825032230

  Basis Set: AUG-CC-PVTZ
    Blend: AUG-CC-PVTZ
  Basis Set: (AUG-CC-PVTZ AUX)
    Blend: AUG-CC-PVTZ-JKFIT
	 Reference Energy          =    -267.7381276653512145 [Eh]
	 Singles Energy            =      -0.0000000000000000 [Eh]
	 Same-Spin Energy          =      -0.2739263541106430 [Eh]
	 Opposite-Spin Energy      =      -0.8862235432502441 [Eh]
	 Correlation Energy        =      -1.1601498973608870 [Eh]
	 Total Energy              =    -268.8982775627121100 [Eh]

	 ================> DF-SCS-MP2 Energies <==================
	-----------------------------------------------------------
	 SCS Same-Spin Scale       =       0.3333333333333333 [-]
	 SCS Opposite-Spin Scale   =       1.2000000000000000 [-]
	 SCS Same-Spin Energy      =      -0.0913087847035477 [Eh]
	 SCS Opposite-Spin Energy  =      -1.0634682519002929 [Eh]
	 SCS Correlation Energy    =      -1.1547770366038406 [Eh]
	 SCS Total Energy          =    -268.8929047019550467 [Eh]
	-----------------------------------------------------------

  Dipole Moment: [D]
     X:    -0.3265      Y:     0.6174      Z:     0.4266     Total:     0.8183

*** Psi4 exiting successfully. Buy a developer a beer!
