                               Psi4 1.3.2 release

  ==> Input File <==

--------------------------------------------------------------------------
#psi4
#
memory 32 gb

molecule  {
0 1
  O        0.1973020    -1.3235490    -0.2892290
  C       -1.0344600    -0.8194530     0.2767900
  C       -1.2835377     0.6485622    -0.1236045
  C       -0.1783580     1.4194390    -0.0692080
  C        1.1257810     0.8237890     0.1750290
  C        1.2576400    -0.5068660    -0.0292480
  H       -0.9620370    -0.9265990     1.3719500
  H       -1.8114290    -1.4891710    -0.0946800
  H       -2.2490060     0.9624120    -0.3801030
  H       -0.2469520     2.4774150    -0.3092500
  H        2.0071080     1.4278200     0.3572680
  H        2.2048620    -1.0348020    -0.0884010
units angstrom
no_reorient  #important for SAPT in psi4, default
symmetry c1  #important for SAPT in psi4, default
}

set PROPERTIES_ORIGIN ["COM"]
properties('MP2/aug-cc-pvtz', properties = ['dipole'])
--------------------------------------------------------------------------

    Molecular point group: c1
  Charge       = 0
  Multiplicity = 1
  Basis Set: AUG-CC-PVTZ
    Blend: AUG-CC-PVTZ
  Basis Set: (AUG-CC-PVTZ AUX)
    Blend: AUG-CC-PVTZ-JKFIT

    Orbital Energies [Eh]
    ---------------------

    Doubly Occupied:

       1A    -20.587804     2A    -11.301805     3A    -11.292393
       4A    -11.242224     5A    -11.230508     6A    -11.227015
       7A     -1.406910     8A     -1.094106     9A     -1.031260
      10A     -0.897530    11A     -0.841817    12A     -0.716672
      13A     -0.707710    14A     -0.648719    15A     -0.634914
      16A     -0.606803    17A     -0.567860    18A     -0.535682
      19A     -0.508210    20A     -0.466428    21A     -0.418971
      22A     -0.303388

  @DF-RHF Final Energy:  -267.73610887661818

   => Energetics <=

    Nuclear Repulsion Energy =            222.8443945985558514
    One-Electron Energy =                -804.6235511673042993
    Two-Electron Energy =                 314.0430476921303011
    Total Energy =                       -267.7361088766181751
  Basis Set: (AUG-CC-PVTZ AUX)
    Blend: AUG-CC-PVTZ-RI
    Molecular point group: c1

    Geometry (in Angstrom), charge = 0, multiplicity = 1:

       Center              X                  Y                   Z               Mass
    ------------   -----------------  -----------------  -----------------  -----------------
         O            0.188344577661    -1.311893545868    -0.276971809109    15.994914619570
         C           -1.043417422339    -0.807797545868     0.289047190891    12.000000000000
         C           -1.292495122339     0.660217654132    -0.111347309109    12.000000000000
         C           -0.187315422339     1.431094454132    -0.056950809109    12.000000000000
         C            1.116823577661     0.835444454132     0.187286190891    12.000000000000
         C            1.248682577661    -0.495210545868    -0.016990809109    12.000000000000
         H           -0.970994422339    -0.914943545868     1.384207190891     1.007825032230
         H           -1.820386422339    -1.477515545868    -0.082422809109     1.007825032230
         H           -2.257963422339     0.974067454132    -0.367845809109     1.007825032230
         H           -0.255909422339     2.489070454132    -0.296992809109     1.007825032230
         H            1.998150577661     1.439475454132     0.369525190891     1.007825032230
         H            2.195904577661    -1.023146545868    -0.076143809109     1.007825032230

  Basis Set: AUG-CC-PVTZ
    Blend: AUG-CC-PVTZ
  Basis Set: (AUG-CC-PVTZ AUX)
    Blend: AUG-CC-PVTZ-JKFIT
	 Reference Energy          =    -267.7361088766181751 [Eh]
	 Singles Energy            =      -0.0000000000000000 [Eh]
	 Same-Spin Energy          =      -0.2737929137093322 [Eh]
	 Opposite-Spin Energy      =      -0.8866509106753855 [Eh]
	 Correlation Energy        =      -1.1604438243847177 [Eh]
	 Total Energy              =    -268.8965527010029177 [Eh]

	 ================> DF-SCS-MP2 Energies <==================
	-----------------------------------------------------------
	 SCS Same-Spin Scale       =       0.3333333333333333 [-]
	 SCS Opposite-Spin Scale   =       1.2000000000000000 [-]
	 SCS Same-Spin Energy      =      -0.0912643045697774 [Eh]
	 SCS Opposite-Spin Energy  =      -1.0639810928104625 [Eh]
	 SCS Correlation Energy    =      -1.1552453973802399 [Eh]
	 SCS Total Energy          =    -268.8913542739983882 [Eh]
	-----------------------------------------------------------

  Dipole Moment: [D]
     X:    -0.3207      Y:     0.6079      Z:     0.4188     Total:     0.8049

*** Psi4 exiting successfully. Buy a developer a beer!
