                               Psi4 1.3.2 release

  ==> Input File <==

--------------------------------------------------------------------------
#psi4
#
memory 32 gb

molecule  {
0 1
  O        0.1973020    -1.3235490    -0.2892290
  C       -1.0344600    -0.8194530     0.2767900
  C       -1.2574290     0.6116450    -0.1105210
  C       -0.1783580     1.4194390    -0.0692080
  C        1.0361114     0.8647445     0.1582358
  C        1.2576400    -0.5068660    -0.0292480
  H       -0.9620370    -0.9265990     1.3719500
  H       -1.8114290    -1.4891710    -0.0946800
  H       -2.2490060     0.9624120    -0.3801030
  H       -0.2469520     2.4774150    -0.3092500
  H        2.0071080     1.4278200     0.3572680
  H        2.2048620    -1.0348020    -0.0884010
units angstrom
no_reorient  #important for SAPT in psi4, default
symmetry c1  #important for SAPT in psi4, default
}

set PROPERTIES_ORIGIN ["COM"]
properties('MP2/aug-cc-pvtz', properties = ['dipole'])
--------------------------------------------------------------------------

    Molecular point group: c1
  Charge       = 0
  Multiplicity = 1
  Basis Set: AUG-CC-PVTZ
    Blend: AUG-CC-PVTZ
  Basis Set: (AUG-CC-PVTZ AUX)
    Blend: AUG-CC-PVTZ-JKFIT

    Orbital Energies [Eh]
    ---------------------

    Doubly Occupied:

       1A    -20.588584     2A    -11.311263     3A    -11.291530
       4A    -11.234073     5A    -11.229753     6A    -11.229422
       7A     -1.409178     8A     -1.110794     9A     -1.028952
      10A     -0.891416    11A     -0.853591    12A     -0.721966
      13A     -0.700267    14A     -0.652132    15A     -0.630191
      16A     -0.606217    17A     -0.569833    18A     -0.542718
      19A     -0.502536    20A     -0.468060    21A     -0.429143
      22A     -0.288372

  @DF-RHF Final Energy:  -267.72035378438915

   => Energetics <=

    Nuclear Repulsion Energy =            224.2887159637087109
    One-Electron Energy =                -807.4381522484834477
    Two-Electron Energy =                 315.4290825003856185
    Total Energy =                       -267.7203537843891468
  Basis Set: (AUG-CC-PVTZ AUX)
    Blend: AUG-CC-PVTZ-RI
    Molecular point group: c1

    Geometry (in Angstrom), charge = 0, multiplicity = 1:

       Center              X                  Y                   Z               Mass
    ------------   -----------------  -----------------  -----------------  -----------------
         O            0.197641426309    -1.312484215035    -0.276429203207    15.994914619570
         C           -1.034120573691    -0.808388215035     0.289589796793    12.000000000000
         C           -1.257089573691     0.622709784965    -0.097721203207    12.000000000000
         C           -0.178018573691     1.430503784965    -0.056408203207    12.000000000000
         C            1.036450826309     0.875809284965     0.171035596793    12.000000000000
         C            1.257979426309    -0.495801215035    -0.016448203207    12.000000000000
         H           -0.961697573691    -0.915534215035     1.384749796793     1.007825032230
         H           -1.811089573691    -1.478106215035    -0.081880203207     1.007825032230
         H           -2.248666573691     0.973476784965    -0.367303203207     1.007825032230
         H           -0.246612573691     2.488479784965    -0.296450203207     1.007825032230
         H            2.007447426309     1.438884784965     0.370067796793     1.007825032230
         H            2.205201426309    -1.023737215035    -0.075601203207     1.007825032230

  Basis Set: AUG-CC-PVTZ
    Blend: AUG-CC-PVTZ
  Basis Set: (AUG-CC-PVTZ AUX)
    Blend: AUG-CC-PVTZ-JKFIT
	 Reference Energy          =    -267.7203537843891468 [Eh]
	 Singles Energy            =      -0.0000000000000000 [Eh]
	 Same-Spin Energy          =      -0.2769310400874626 [Eh]
	 Opposite-Spin Energy      =      -0.8901924001922745 [Eh]
	 Correlation Energy        =      -1.1671234402797372 [Eh]
	 Total Energy              =    -268.8874772246688849 [Eh]

	 ================> DF-SCS-MP2 Energies <==================
	-----------------------------------------------------------
	 SCS Same-Spin Scale       =       0.3333333333333333 [-]
	 SCS Opposite-Spin Scale   =       1.2000000000000000 [-]
	 SCS Same-Spin Energy      =      -0.0923103466958209 [Eh]
	 SCS Opposite-Spin Energy  =      -1.0682308802307294 [Eh]
	 SCS Correlation Energy    =      -1.1605412269265503 [Eh]
	 SCS Total Energy          =    -268.8808950113157152 [Eh]
	-----------------------------------------------------------

  Dipole Moment: [D]
     X:    -0.2676      Y:     0.5314      Z:     0.3986     Total:     0.7162

*** Psi4 exiting successfully. Buy a developer a beer!
