                               Psi4 1.3.2 release

  ==> Input File <==

--------------------------------------------------------------------------
#psi4
#
memory 32 gb

molecule  {
0 1
  O        0.1973020    -1.3235490    -0.2892290
  C       -1.0344600    -0.8194530     0.2767900
  C       -1.2574290     0.6116450    -0.1105210
  C       -0.1783580     1.4194390    -0.0692080
  C        1.1257810     0.8237890     0.1750290
  C        1.2576400    -0.5068660    -0.0292480
  H       -0.9620370    -0.9265990     1.3719500
  H       -1.8114290    -1.4891710    -0.0946800
  H       -2.1576828     0.9301067    -0.3552748
  H       -0.2469520     2.4774150    -0.3092500
  H        2.0071080     1.4278200     0.3572680
  H        2.2048620    -1.0348020    -0.0884010
units angstrom
no_reorient  #important for SAPT in psi4, default
symmetry c1  #important for SAPT in psi4, default
}

set PROPERTIES_ORIGIN ["COM"]
properties('MP2/aug-cc-pvtz', properties = ['dipole'])
--------------------------------------------------------------------------

    Molecular point group: c1
  Charge       = 0
  Multiplicity = 1
  Basis Set: AUG-CC-PVTZ
    Blend: AUG-CC-PVTZ
  Basis Set: (AUG-CC-PVTZ AUX)
    Blend: AUG-CC-PVTZ-JKFIT

    Orbital Energies [Eh]
    ---------------------

    Doubly Occupied:

       1A    -20.586461     2A    -11.300588     3A    -11.290204
       4A    -11.241213     5A    -11.225517     6A    -11.219413
       7A     -1.406765     8A     -1.097667     9A     -1.036017
      10A     -0.898977    11A     -0.847101    12A     -0.720587
      13A     -0.711644    14A     -0.649751    15A     -0.637654
      16A     -0.609679    17A     -0.572324    18A     -0.533931
      19A     -0.508579    20A     -0.472826    21A     -0.418443
      22A     -0.301911

  @DF-RHF Final Energy:  -267.73213894788330

   => Energetics <=

    Nuclear Repulsion Energy =            224.0076534450421377
    One-Electron Energy =                -806.9050815648417938
    Two-Electron Energy =                 315.1652891719163563
    Total Energy =                       -267.7321389478832998
  Basis Set: (AUG-CC-PVTZ AUX)
    Blend: AUG-CC-PVTZ-RI
    Molecular point group: c1

    Geometry (in Angstrom), charge = 0, multiplicity = 1:

       Center              X                  Y                   Z               Mass
    ------------   -----------------  -----------------  -----------------  -----------------
         O            0.183403902459    -1.306096938354    -0.279190487120    15.994914619570
         C           -1.048358097541    -0.802000938354     0.286828512880    12.000000000000
         C           -1.271327097541     0.629097061646    -0.100482487120    12.000000000000
         C           -0.192256097541     1.436891061646    -0.059169487120    12.000000000000
         C            1.111882902459     0.841241061646     0.185067512880    12.000000000000
         C            1.243741902459    -0.489413938354    -0.019209487120    12.000000000000
         H           -0.975935097541    -0.909146938354     1.381988512880     1.007825032230
         H           -1.825327097541    -1.471718938354    -0.084641487120     1.007825032230
         H           -2.171580897541     0.947558761646    -0.345236287120     1.007825032230
         H           -0.260850097541     2.494867061646    -0.299211487120     1.007825032230
         H            1.993209902459     1.445272061646     0.367306512880     1.007825032230
         H            2.190963902459    -1.017349938354    -0.078362487120     1.007825032230

  Basis Set: AUG-CC-PVTZ
    Blend: AUG-CC-PVTZ
  Basis Set: (AUG-CC-PVTZ AUX)
    Blend: AUG-CC-PVTZ-JKFIT
	 Reference Energy          =    -267.7321389478832998 [Eh]
	 Singles Energy            =      -0.0000000000000000 [Eh]
	 Same-Spin Energy          =      -0.2739951699563579 [Eh]
	 Opposite-Spin Energy      =      -0.8863037618493874 [Eh]
	 Correlation Energy        =      -1.1602989318057453 [Eh]
	 Total Energy              =    -268.8924378796890551 [Eh]

	 ================> DF-SCS-MP2 Energies <==================
	-----------------------------------------------------------
	 SCS Same-Spin Scale       =       0.3333333333333333 [-]
	 SCS Opposite-Spin Scale   =       1.2000000000000000 [-]
	 SCS Same-Spin Energy      =      -0.0913317233187859 [Eh]
	 SCS Opposite-Spin Energy  =      -1.0635645142192649 [Eh]
	 SCS Correlation Energy    =      -1.1548962375380509 [Eh]
	 SCS Total Energy          =    -268.8870351854213254 [Eh]
	-----------------------------------------------------------

  Dipole Moment: [D]
     X:    -0.3505      Y:     0.6353      Z:     0.4152     Total:     0.8360

*** Psi4 exiting successfully. Buy a developer a beer!
