                               Psi4 1.3.2 release

  ==> Input File <==

--------------------------------------------------------------------------
#psi4
#
memory 32 gb

molecule  {
0 1
  O        0.1973020    -1.3235490    -0.2892290
  C       -1.0344600    -0.8194530     0.2767900
  C       -1.2574290     0.6116450    -0.1105210
  C       -0.1680290     1.4425004    -0.0667993
  C        1.1257810     0.8237890     0.1750290
  C        1.2576400    -0.5068660    -0.0292480
  H       -0.9620370    -0.9265990     1.3719500
  H       -1.8114290    -1.4891710    -0.0946800
  H       -2.2490060     0.9624120    -0.3801030
  H       -0.2469520     2.4774150    -0.3092500
  H        2.0071080     1.4278200     0.3572680
  H        2.2048620    -1.0348020    -0.0884010
units angstrom
no_reorient  #important for SAPT in psi4, default
symmetry c1  #important for SAPT in psi4, default
}

set PROPERTIES_ORIGIN ["COM"]
properties('MP2/aug-cc-pvtz', properties = ['dipole'])
--------------------------------------------------------------------------

    Molecular point group: c1
  Charge       = 0
  Multiplicity = 1
  Basis Set: AUG-CC-PVTZ
    Blend: AUG-CC-PVTZ
  Basis Set: (AUG-CC-PVTZ AUX)
    Blend: AUG-CC-PVTZ-JKFIT

    Orbital Energies [Eh]
    ---------------------

    Doubly Occupied:

       1A    -20.587131     2A    -11.301095     3A    -11.291767
       4A    -11.243265     5A    -11.234830     6A    -11.226565
       7A     -1.407270     8A     -1.093335     9A     -1.033976
      10A     -0.898022    11A     -0.841550    12A     -0.719987
      13A     -0.703725    14A     -0.649082    15A     -0.633104
      16A     -0.606695    17A     -0.574079    18A     -0.531738
      19A     -0.506346    20A     -0.473858    21A     -0.416713
      22A     -0.299837

  @DF-RHF Final Energy:  -267.73623199886481

   => Energetics <=

    Nuclear Repulsion Energy =            223.1135303494720858
    One-Electron Energy =                -805.1515838438306218
    Two-Electron Energy =                 314.3018214954937548
    Total Energy =                       -267.7362319988648096
  Basis Set: (AUG-CC-PVTZ AUX)
    Blend: AUG-CC-PVTZ-RI
    Molecular point group: c1

    Geometry (in Angstrom), charge = 0, multiplicity = 1:

       Center              X                  Y                   Z               Mass
    ------------   -----------------  -----------------  -----------------  -----------------
         O            0.183014952341    -1.309866902514    -0.279237803433    15.994914619570
         C           -1.048747047659    -0.805770902514     0.286781196567    12.000000000000
         C           -1.271716047659     0.625327097486    -0.100529803433    12.000000000000
         C           -0.182316047659     1.456182497486    -0.056808103433    12.000000000000
         C            1.111493952341     0.837471097486     0.185020196567    12.000000000000
         C            1.243352952341    -0.493183902514    -0.019256803433    12.000000000000
         H           -0.976324047659    -0.912916902514     1.381941196567     1.007825032230
         H           -1.825716047659    -1.475488902514    -0.084688803433     1.007825032230
         H           -2.263293047659     0.976094097486    -0.370111803433     1.007825032230
         H           -0.261239047659     2.491097097486    -0.299258803433     1.007825032230
         H            1.992820952341     1.441502097486     0.367259196567     1.007825032230
         H            2.190574952341    -1.021119902514    -0.078409803433     1.007825032230

  Basis Set: AUG-CC-PVTZ
    Blend: AUG-CC-PVTZ
  Basis Set: (AUG-CC-PVTZ AUX)
    Blend: AUG-CC-PVTZ-JKFIT
	 Reference Energy          =    -267.7362319988648096 [Eh]
	 Singles Energy            =      -0.0000000000000000 [Eh]
	 Same-Spin Energy          =      -0.2743610106091987 [Eh]
	 Opposite-Spin Energy      =      -0.8873784143121308 [Eh]
	 Correlation Energy        =      -1.1617394249213295 [Eh]
	 Total Energy              =    -268.8979714237861458 [Eh]

	 ================> DF-SCS-MP2 Energies <==================
	-----------------------------------------------------------
	 SCS Same-Spin Scale       =       0.3333333333333333 [-]
	 SCS Opposite-Spin Scale   =       1.2000000000000000 [-]
	 SCS Same-Spin Energy      =      -0.0914536702030662 [Eh]
	 SCS Opposite-Spin Energy  =      -1.0648540971745570 [Eh]
	 SCS Correlation Energy    =      -1.1563077673776232 [Eh]
	 SCS Total Energy          =    -268.8925397662424075 [Eh]
	-----------------------------------------------------------

  Dipole Moment: [D]
     X:    -0.3296      Y:     0.6250      Z:     0.4121     Total:     0.8180

*** Psi4 exiting successfully. Buy a developer a beer!
