                               Psi4 1.3.2 release

  ==> Input File <==

--------------------------------------------------------------------------
#psi4
#
memory 32 gb

molecule  {
0 1
  O        0.1973020    -1.3235490    -0.2892290
  C       -1.0344600    -0.8194530     0.2767900
  C       -1.2574290     0.6116450    -0.1105210
  C       -0.1783580     1.4194390    -0.0692080
  C        1.2671826     0.8295980     0.1793942
  C        1.2576400    -0.5068660    -0.0292480
  H       -0.9620370    -0.9265990     1.3719500
  H       -1.8114290    -1.4891710    -0.0946800
  H       -2.2490060     0.9624120    -0.3801030
  H       -0.2469520     2.4774150    -0.3092500
  H        2.0071080     1.4278200     0.3572680
  H        2.2048620    -1.0348020    -0.0884010
units angstrom
no_reorient  #important for SAPT in psi4, default
symmetry c1  #important for SAPT in psi4, default
}

set PROPERTIES_ORIGIN ["COM"]
properties('MP2/aug-cc-pvtz', properties = ['dipole'])
--------------------------------------------------------------------------

    Molecular point group: c1
  Charge       = 0
  Multiplicity = 1
  Basis Set: AUG-CC-PVTZ
    Blend: AUG-CC-PVTZ
  Basis Set: (AUG-CC-PVTZ AUX)
    Blend: AUG-CC-PVTZ-JKFIT

    Orbital Energies [Eh]
    ---------------------

    Doubly Occupied:

       1A    -20.592237     2A    -11.302600     3A    -11.292022
       4A    -11.248923     5A    -11.232143     6A    -11.226954
       7A     -1.409107     8A     -1.081927     9A     -1.037849
      10A     -0.903752    11A     -0.833744    12A     -0.721892
      13A     -0.708252    14A     -0.664265    15A     -0.636758
      16A     -0.605555    17A     -0.571376    18A     -0.520157
      19A     -0.517724    20A     -0.459657    21A     -0.407616
      22A     -0.311875

  @DF-RHF Final Energy:  -267.71629918359059

   => Energetics <=

    Nuclear Repulsion Energy =            221.6820605029805620
    One-Electron Energy =                -802.2239488805704468
    Two-Electron Energy =                 312.8255891939992921
    Total Energy =                       -267.7162991835905927
  Basis Set: (AUG-CC-PVTZ AUX)
    Blend: AUG-CC-PVTZ-RI
    Molecular point group: c1

    Geometry (in Angstrom), charge = 0, multiplicity = 1:

       Center              X                  Y                   Z               Mass
    ------------   -----------------  -----------------  -----------------  -----------------
         O            0.163843384220    -1.307343449391    -0.279523974402    15.994914619570
         C           -1.067918615780    -0.803247449391     0.286495025598    12.000000000000
         C           -1.290887615780     0.627850550609    -0.100815974402    12.000000000000
         C           -0.211816615780     1.435644550609    -0.059502974402    12.000000000000
         C            1.233723984220     0.845803550609     0.189099225598    12.000000000000
         C            1.224181384220    -0.490660449391    -0.019542974402    12.000000000000
         H           -0.995495615780    -0.910393449391     1.381655025598     1.007825032230
         H           -1.844887615780    -1.472965449391    -0.084974974402     1.007825032230
         H           -2.282464615780     0.978617550609    -0.370397974402     1.007825032230
         H           -0.280410615780     2.493620550609    -0.299544974402     1.007825032230
         H            1.973649384220     1.444025550609     0.366973025598     1.007825032230
         H            2.171403384220    -1.018596449391    -0.078695974402     1.007825032230

  Basis Set: AUG-CC-PVTZ
    Blend: AUG-CC-PVTZ
  Basis Set: (AUG-CC-PVTZ AUX)
    Blend: AUG-CC-PVTZ-JKFIT
	 Reference Energy          =    -267.7162991835905927 [Eh]
	 Singles Energy            =      -0.0000000000000000 [Eh]
	 Same-Spin Energy          =      -0.2726730100809931 [Eh]
	 Opposite-Spin Energy      =      -0.8866430532256695 [Eh]
	 Correlation Energy        =      -1.1593160633066626 [Eh]
	 Total Energy              =    -268.8756152468972687 [Eh]

	 ================> DF-SCS-MP2 Energies <==================
	-----------------------------------------------------------
	 SCS Same-Spin Scale       =       0.3333333333333333 [-]
	 SCS Opposite-Spin Scale   =       1.2000000000000000 [-]
	 SCS Same-Spin Energy      =      -0.0908910033603310 [Eh]
	 SCS Opposite-Spin Energy  =      -1.0639716638708034 [Eh]
	 SCS Correlation Energy    =      -1.1548626672311344 [Eh]
	 SCS Total Energy          =    -268.8711618508217498 [Eh]
	-----------------------------------------------------------

  Dipole Moment: [D]
     X:    -0.4206      Y:     0.6430      Z:     0.4601     Total:     0.8956

*** Psi4 exiting successfully. Buy a developer a beer!
