                               Psi4 1.3.2 release

  ==> Input File <==

--------------------------------------------------------------------------
#psi4
#
memory 32 gb

molecule  {
0 1
  O        0.2123415    -1.3417086    -0.2924339
  C       -1.0344600    -0.8194530     0.2767900
  C       -1.2574290     0.6116450    -0.1105210
  C       -0.1783580     1.4194390    -0.0692080
  C        1.1257810     0.8237890     0.1750290
  C        1.2576400    -0.5068660    -0.0292480
  H       -0.9620370    -0.9265990     1.3719500
  H       -1.8114290    -1.4891710    -0.0946800
  H       -2.2490060     0.9624120    -0.3801030
  H       -0.2469520     2.4774150    -0.3092500
  H        2.0071080     1.4278200     0.3572680
  H        2.2048620    -1.0348020    -0.0884010
units angstrom
no_reorient  #important for SAPT in psi4, default
symmetry c1  #important for SAPT in psi4, default
}

set PROPERTIES_ORIGIN ["COM"]
properties('MP2/aug-cc-pvtz', properties = ['dipole'])
--------------------------------------------------------------------------

    Molecular point group: c1
  Charge       = 0
  Multiplicity = 1
  Basis Set: AUG-CC-PVTZ
    Blend: AUG-CC-PVTZ
  Basis Set: (AUG-CC-PVTZ AUX)
    Blend: AUG-CC-PVTZ-JKFIT

    Orbital Energies [Eh]
    ---------------------

    Doubly Occupied:

       1A    -20.588129     2A    -11.300882     3A    -11.293025
       4A    -11.242414     5A    -11.231833     6A    -11.225934
       7A     -1.402674     8A     -1.097237     9A     -1.032805
      10A     -0.899344    11A     -0.839376    12A     -0.716761
      13A     -0.702831    14A     -0.647584    15A     -0.631638
      16A     -0.606107    17A     -0.569451    18A     -0.532222
      19A     -0.510179    20A     -0.472562    21A     -0.419505
      22A     -0.302257

  @DF-RHF Final Energy:  -267.73685189062098

   => Energetics <=

    Nuclear Repulsion Energy =            223.0003280602018378
    One-Electron Energy =                -804.9448640991677166
    Two-Electron Energy =                 314.2076841483449243
    Total Energy =                       -267.7368518906209829
  Basis Set: (AUG-CC-PVTZ AUX)
    Blend: AUG-CC-PVTZ-RI
    Molecular point group: c1

    Geometry (in Angstrom), charge = 0, multiplicity = 1:

       Center              X                  Y                   Z               Mass
    ------------   -----------------  -----------------  -----------------  -----------------
         O            0.196633135082    -1.321112982779    -0.281465562042    15.994914619570
         C           -1.050168364918    -0.798857382779     0.287758337958    12.000000000000
         C           -1.273137364918     0.632240617221    -0.099552662042    12.000000000000
         C           -0.194066364918     1.440034617221    -0.058239662042    12.000000000000
         C            1.110072635082     0.844384617221     0.185997337958    12.000000000000
         C            1.241931635082    -0.486270382779    -0.018279662042    12.000000000000
         H           -0.977745364918    -0.906003382779     1.382918337958     1.007825032230
         H           -1.827137364918    -1.468575382779    -0.083711662042     1.007825032230
         H           -2.264714364918     0.983007617221    -0.369134662042     1.007825032230
         H           -0.262660364918     2.498010617221    -0.298281662042     1.007825032230
         H            1.991399635082     1.448415617221     0.368236337958     1.007825032230
         H            2.189153635082    -1.014206382779    -0.077432662042     1.007825032230

  Basis Set: AUG-CC-PVTZ
    Blend: AUG-CC-PVTZ
  Basis Set: (AUG-CC-PVTZ AUX)
    Blend: AUG-CC-PVTZ-JKFIT
	 Reference Energy          =    -267.7368518906209829 [Eh]
	 Singles Energy            =      -0.0000000000000000 [Eh]
	 Same-Spin Energy          =      -0.2742620671771144 [Eh]
	 Opposite-Spin Energy      =      -0.8873311918540230 [Eh]
	 Correlation Energy        =      -1.1615932590311373 [Eh]
	 Total Energy              =    -268.8984451496521046 [Eh]

	 ================> DF-SCS-MP2 Energies <==================
	-----------------------------------------------------------
	 SCS Same-Spin Scale       =       0.3333333333333333 [-]
	 SCS Opposite-Spin Scale   =       1.2000000000000000 [-]
	 SCS Same-Spin Energy      =      -0.0914206890590381 [Eh]
	 SCS Opposite-Spin Energy  =      -1.0647974302248275 [Eh]
	 SCS Correlation Energy    =      -1.1562181192838656 [Eh]
	 SCS Total Energy          =    -268.8930700099048750 [Eh]
	-----------------------------------------------------------

  Dipole Moment: [D]
     X:    -0.3754      Y:     0.6520      Z:     0.4360     Total:     0.8696

*** Psi4 exiting successfully. Buy a developer a beer!
