                               Psi4 1.3.2 release

  ==> Input File <==

--------------------------------------------------------------------------
#psi4
#
memory 32 gb

molecule  {
0 1
  O        0.1973020    -1.3235490    -0.2892290
  C       -1.0344600    -0.8194530     0.2767900
  C       -1.2574290     0.6116450    -0.1105210
  C       -0.1783580     1.4194390    -0.0692080
  C        1.1257810     0.8237890     0.1750290
  C        1.3354112    -0.4469658    -0.0101795
  H       -0.9620370    -0.9265990     1.3719500
  H       -1.8114290    -1.4891710    -0.0946800
  H       -2.2490060     0.9624120    -0.3801030
  H       -0.2469520     2.4774150    -0.3092500
  H        2.0071080     1.4278200     0.3572680
  H        2.2048620    -1.0348020    -0.0884010
units angstrom
no_reorient  #important for SAPT in psi4, default
symmetry c1  #important for SAPT in psi4, default
}

set PROPERTIES_ORIGIN ["COM"]
properties('MP2/aug-cc-pvtz', properties = ['dipole'])
--------------------------------------------------------------------------

    Molecular point group: c1
  Charge       = 0
  Multiplicity = 1
  Basis Set: AUG-CC-PVTZ
    Blend: AUG-CC-PVTZ
  Basis Set: (AUG-CC-PVTZ AUX)
    Blend: AUG-CC-PVTZ-JKFIT

    Orbital Energies [Eh]
    ---------------------

    Doubly Occupied:

       1A    -20.570883     2A    -11.291788     3A    -11.284678
       4A    -11.243364     5A    -11.236809     6A    -11.229009
       7A     -1.365056     8A     -1.101084     9A     -1.039528
      10A     -0.898437    11A     -0.837885    12A     -0.718108
      13A     -0.700097    14A     -0.637635    15A     -0.624502
      16A     -0.606172    17A     -0.567905    18A     -0.529125
      19A     -0.489745    20A     -0.471764    21A     -0.422818
      22A     -0.315721

  @DF-RHF Final Energy:  -267.72761854942149

   => Energetics <=

    Nuclear Repulsion Energy =            222.4723603852376357
    One-Electron Energy =                -804.0357321801769785
    Two-Electron Energy =                 313.8357532455178784
    Total Energy =                       -267.7276185494214928
  Basis Set: (AUG-CC-PVTZ AUX)
    Blend: AUG-CC-PVTZ-RI
    Molecular point group: c1

    Geometry (in Angstrom), charge = 0, multiplicity = 1:

       Center              X                  Y                   Z               Mass
    ------------   -----------------  -----------------  -----------------  -----------------
         O            0.173150398410    -1.315255195443    -0.281674578858    15.994914619570
         C           -1.058611601590    -0.811159195443     0.284344421142    12.000000000000
         C           -1.281580601590     0.619938804557    -0.102966578858    12.000000000000
         C           -0.202509601590     1.427732804557    -0.061653578858    12.000000000000
         C            1.101629398410     0.832082804557     0.182583421142    12.000000000000
         C            1.311259598410    -0.438671995443    -0.002625078858    12.000000000000
         H           -0.986188601590    -0.918305195443     1.379504421142     1.007825032230
         H           -1.835580601590    -1.480877195443    -0.087125578858     1.007825032230
         H           -2.273157601590     0.970705804557    -0.372548578858     1.007825032230
         H           -0.271103601590     2.485708804557    -0.301695578858     1.007825032230
         H            1.982956398410     1.436113804557     0.364822421142     1.007825032230
         H            2.180710398410    -1.026508195443    -0.080846578858     1.007825032230

  Basis Set: AUG-CC-PVTZ
    Blend: AUG-CC-PVTZ
  Basis Set: (AUG-CC-PVTZ AUX)
    Blend: AUG-CC-PVTZ-JKFIT
	 Reference Energy          =    -267.7276185494214928 [Eh]
	 Singles Energy            =      -0.0000000000000000 [Eh]
	 Same-Spin Energy          =      -0.2735592352508153 [Eh]
	 Opposite-Spin Energy      =      -0.8876447700844570 [Eh]
	 Correlation Energy        =      -1.1612040053352723 [Eh]
	 Total Energy              =    -268.8888225547567572 [Eh]

	 ================> DF-SCS-MP2 Energies <==================
	-----------------------------------------------------------
	 SCS Same-Spin Scale       =       0.3333333333333333 [-]
	 SCS Opposite-Spin Scale   =       1.2000000000000000 [-]
	 SCS Same-Spin Energy      =      -0.0911864117502718 [Eh]
	 SCS Opposite-Spin Energy  =      -1.0651737241013484 [Eh]
	 SCS Correlation Energy    =      -1.1563601358516202 [Eh]
	 SCS Total Energy          =    -268.8839786852731208 [Eh]
	-----------------------------------------------------------

  Dipole Moment: [D]
     X:    -0.1339      Y:     0.9860      Z:     0.4833     Total:     1.1062

*** Psi4 exiting successfully. Buy a developer a beer!
