                               Psi4 1.4a3.dev225

  ==> Input File <==

--------------------------------------------------------------------------
#psi4
#
memory 32 gb

molecule  {
0 1
  O        0.1973020    -1.3235490    -0.2892290
  C       -1.0514935    -0.8124821     0.2846172
  C       -1.2574290     0.6116450    -0.1105210
  C       -0.1783580     1.4194390    -0.0692080
  C        1.1257810     0.8237890     0.1750290
  C        1.2576400    -0.5068660    -0.0292480
  H       -0.9620370    -0.9265990     1.3719500
  H       -1.8114290    -1.4891710    -0.0946800
  H       -2.2490060     0.9624120    -0.3801030
  H       -0.2469520     2.4774150    -0.3092500
  H        2.0071080     1.4278200     0.3572680
  H        2.2048620    -1.0348020    -0.0884010
units angstrom
no_reorient  #important for SAPT in psi4, default
symmetry c1  #important for SAPT in psi4, default
}

set PROPERTIES_ORIGIN ["COM"]
properties('MP2/aug-cc-pvtz', properties = ['dipole'])
--------------------------------------------------------------------------

    Molecular point group: c1
  Charge       = 0
  Multiplicity = 1
  Basis Set: AUG-CC-PVTZ
    Blend: AUG-CC-PVTZ
  Basis Set: (AUG-CC-PVTZ AUX)
    Blend: AUG-CC-PVTZ-JKFIT

    Orbital Energies [Eh]
    ---------------------

    Doubly Occupied:

       1A    -20.585427     2A    -11.300479     3A    -11.291522
       4A    -11.242319     5A    -11.231079     6A    -11.225200
       7A     -1.401287     8A     -1.096484     9A     -1.034603
      10A     -0.899485    11A     -0.839119    12A     -0.717433
      13A     -0.702973    14A     -0.647538    15A     -0.632148
      16A     -0.605638    17A     -0.570108    18A     -0.532341
      19A     -0.510686    20A     -0.472288    21A     -0.418126
      22A     -0.301931

  @DF-RHF Final Energy:  -267.73730774904311

   => Energetics <=

    Nuclear Repulsion Energy =            223.2599711931798936
    One-Electron Energy =                -805.4781324027873097
    Two-Electron Energy =                 314.4808534605642762
    Total Energy =                       -267.7373077490431115
  Basis Set: (AUG-CC-PVTZ AUX)
    Blend: AUG-CC-PVTZ-RI
    Molecular point group: c1

    Geometry (in Angstrom), charge = 0, multiplicity = 1:

       Center              X                  Y                   Z               Mass
    ------------   -----------------  -----------------  -----------------  -----------------
         O            0.187017177311    -1.307513396771    -0.280030350020    15.994914619570
         C           -1.061778322689    -0.796446496771     0.293815849980    12.000000000000
         C           -1.267713822689     0.627680603229    -0.101322350020    12.000000000000
         C           -0.188642822689     1.435474603229    -0.060009350020    12.000000000000
         C            1.115496177311     0.839824603229     0.184227649980    12.000000000000
         C            1.247355177311    -0.490830396771    -0.020049350020    12.000000000000
         H           -0.972321822689    -0.910563396771     1.381148649980     1.007825032230
         H           -1.821713822689    -1.473135396771    -0.085481350020     1.007825032230
         H           -2.259290822689     0.978447603229    -0.370904350020     1.007825032230
         H           -0.257236822689     2.493450603229    -0.300051350020     1.007825032230
         H            1.996823177311     1.443855603229     0.366466649980     1.007825032230
         H            2.194577177311    -1.018766396771    -0.079202350020     1.007825032230

  Basis Set: AUG-CC-PVTZ
    Blend: AUG-CC-PVTZ
  Basis Set: (AUG-CC-PVTZ AUX)
    Blend: AUG-CC-PVTZ-JKFIT
	 Reference Energy          =    -267.7373077490431115 [Eh]
	 Singles Energy            =      -0.0000000000000000 [Eh]
	 Same-Spin Energy          =      -0.2742477482274290 [Eh]
	 Opposite-Spin Energy      =      -0.8870995202737807 [Eh]
	 Correlation Energy        =      -1.1613472685012098 [Eh]
	 Total Energy              =    -268.8986550175443426 [Eh]

	 ================> DF-SCS-MP2 Energies <==================
	-----------------------------------------------------------
	 SCS Same-Spin Scale       =       0.3333333333333333 [-]
	 SCS Opposite-Spin Scale   =       1.2000000000000000 [-]
	 SCS Same-Spin Energy      =      -0.0914159160758097 [Eh]
	 SCS Opposite-Spin Energy  =      -1.0645194243285367 [Eh]
	 SCS Correlation Energy    =      -1.1559353404043464 [Eh]
	 SCS Total Energy          =    -268.8932430894474805 [Eh]
	-----------------------------------------------------------

  Dipole Moment: [D]
     X:    -0.3740      Y:     0.6209      Z:     0.4484     Total:     0.8523

*** Psi4 exiting successfully. Buy a developer a beer!
