                               Psi4 1.3.2 release

  ==> Input File <==

--------------------------------------------------------------------------
#psi4
#
memory 32 gb

molecule  {
0 1
  O        0.1973020    -1.3235490    -0.2892290
  C       -0.8832490    -0.7821033     0.2959534
  C       -1.2574290     0.6116450    -0.1105210
  C       -0.1783580     1.4194390    -0.0692080
  C        1.1257810     0.8237890     0.1750290
  C        1.2576400    -0.5068660    -0.0292480
  H       -0.9620370    -0.9265990     1.3719500
  H       -1.8114290    -1.4891710    -0.0946800
  H       -2.2490060     0.9624120    -0.3801030
  H       -0.2469520     2.4774150    -0.3092500
  H        2.0071080     1.4278200     0.3572680
  H        2.2048620    -1.0348020    -0.0884010
units angstrom
no_reorient  #important for SAPT in psi4, default
symmetry c1  #important for SAPT in psi4, default
}

set PROPERTIES_ORIGIN ["COM"]
properties('MP2/aug-cc-pvtz', properties = ['dipole'])
--------------------------------------------------------------------------

    Molecular point group: c1
  Charge       = 0
  Multiplicity = 1
  Basis Set: AUG-CC-PVTZ
    Blend: AUG-CC-PVTZ
  Basis Set: (AUG-CC-PVTZ AUX)
    Blend: AUG-CC-PVTZ-JKFIT

    Orbital Energies [Eh]
    ---------------------

    Doubly Occupied:

       1A    -20.598719     2A    -11.303928     3A    -11.293576
       4A    -11.239933     5A    -11.233090     6A    -11.231840
       7A     -1.450342     8A     -1.103422     9A     -1.035912
      10A     -0.893102    11A     -0.850777    12A     -0.725742
      13A     -0.716998    14A     -0.664832    15A     -0.638161
      16A     -0.609547    17A     -0.580327    18A     -0.539684
      19A     -0.472722    20A     -0.464722    21A     -0.420439
      22A     -0.307598

  @DF-RHF Final Energy:  -267.71326807116537

   => Energetics <=

    Nuclear Repulsion Energy =            225.8369968881348484
    One-Electron Energy =                -810.3497070942116807
    Two-Electron Energy =                 316.7994421349114305
    Total Energy =                       -267.7132680711653734
  Basis Set: (AUG-CC-PVTZ AUX)
    Blend: AUG-CC-PVTZ-RI
    Molecular point group: c1

    Geometry (in Angstrom), charge = 0, multiplicity = 1:

       Center              X                  Y                   Z               Mass
    ------------   -----------------  -----------------  -----------------  -----------------
         O            0.162408594796    -1.311956806253    -0.281688459576    15.994914619570
         C           -0.918142405204    -0.770511106253     0.303493940424    12.000000000000
         C           -1.292322405204     0.623237193747    -0.102980459576    12.000000000000
         C           -0.213251405204     1.431031193747    -0.061667459576    12.000000000000
         C            1.090887594796     0.835381193747     0.182569540424    12.000000000000
         C            1.222746594796    -0.495273806253    -0.021707459576    12.000000000000
         H           -0.996930405204    -0.915006806253     1.379490540424     1.007825032230
         H           -1.846322405204    -1.477578806253    -0.087139459576     1.007825032230
         H           -2.283899405204     0.974004193747    -0.372562459576     1.007825032230
         H           -0.281845405204     2.489007193747    -0.301709459576     1.007825032230
         H            1.972214594796     1.439412193747     0.364808540424     1.007825032230
         H            2.169968594796    -1.023209806253    -0.080860459576     1.007825032230

  Basis Set: AUG-CC-PVTZ
    Blend: AUG-CC-PVTZ
  Basis Set: (AUG-CC-PVTZ AUX)
    Blend: AUG-CC-PVTZ-JKFIT
	 Reference Energy          =    -267.7132680711653734 [Eh]
	 Singles Energy            =      -0.0000000000000000 [Eh]
	 Same-Spin Energy          =      -0.2750961340064680 [Eh]
	 Opposite-Spin Energy      =      -0.8877583810704747 [Eh]
	 Correlation Energy        =      -1.1628545150769427 [Eh]
	 Total Energy              =    -268.8761225862423316 [Eh]

	 ================> DF-SCS-MP2 Energies <==================
	-----------------------------------------------------------
	 SCS Same-Spin Scale       =       0.3333333333333333 [-]
	 SCS Opposite-Spin Scale   =       1.2000000000000000 [-]
	 SCS Same-Spin Energy      =      -0.0916987113354893 [Eh]
	 SCS Opposite-Spin Energy  =      -1.0653100572845695 [Eh]
	 SCS Correlation Energy    =      -1.1570087686200590 [Eh]
	 SCS Total Energy          =    -268.8702768397854470 [Eh]
	-----------------------------------------------------------

  Dipole Moment: [D]
     X:     0.0852      Y:     0.7700      Z:     0.3626     Total:     0.8553

*** Psi4 exiting successfully. Buy a developer a beer!
