                               Psi4 1.3.2 release

  ==> Input File <==

--------------------------------------------------------------------------
#psi4
#
memory 32 gb

molecule  {
0 1
  O        0.1973020    -1.3235490    -0.2892290
  C       -1.0091838    -0.8141407     0.2809836
  C       -1.2574290     0.6116450    -0.1105210
  C       -0.1783580     1.4194390    -0.0692080
  C        1.1257810     0.8237890     0.1750290
  C        1.2576400    -0.5068660    -0.0292480
  H       -0.9620370    -0.9265990     1.3719500
  H       -1.8114290    -1.4891710    -0.0946800
  H       -2.2490060     0.9624120    -0.3801030
  H       -0.2469520     2.4774150    -0.3092500
  H        2.0071080     1.4278200     0.3572680
  H        2.2048620    -1.0348020    -0.0884010
units angstrom
no_reorient  #important for SAPT in psi4, default
symmetry c1  #important for SAPT in psi4, default
}

set PROPERTIES_ORIGIN ["COM"]
properties('MP2/aug-cc-pvtz', properties = ['dipole'])
--------------------------------------------------------------------------

    Molecular point group: c1
  Charge       = 0
  Multiplicity = 1
  Basis Set: AUG-CC-PVTZ
    Blend: AUG-CC-PVTZ
  Basis Set: (AUG-CC-PVTZ AUX)
    Blend: AUG-CC-PVTZ-JKFIT

    Orbital Energies [Eh]
    ---------------------

    Doubly Occupied:

       1A    -20.589013     2A    -11.301239     3A    -11.290825
       4A    -11.241283     5A    -11.231166     6A    -11.227195
       7A     -1.413756     8A     -1.097269     9A     -1.034633
      10A     -0.897232    11A     -0.842167    12A     -0.718751
      13A     -0.705660    14A     -0.651854    15A     -0.632989
      16A     -0.606091    17A     -0.572861    18A     -0.534043
      19A     -0.502514    20A     -0.471859    21A     -0.419408
      22A     -0.303088

  @DF-RHF Final Energy:  -267.73750772439683

   => Energetics <=

    Nuclear Repulsion Energy =            223.8699928665133143
    One-Electron Energy =                -806.6452047851054203
    Two-Electron Energy =                 315.0377041941952143
    Total Energy =                       -267.7375077243968349
  Basis Set: (AUG-CC-PVTZ AUX)
    Blend: AUG-CC-PVTZ-RI
    Molecular point group: c1

    Geometry (in Angstrom), charge = 0, multiplicity = 1:

       Center              X                  Y                   Z               Mass
    ------------   -----------------  -----------------  -----------------  -----------------
         O            0.180828673416    -1.307270798678    -0.279498875022    15.994914619570
         C           -1.025657126584    -0.797862498678     0.290713724978    12.000000000000
         C           -1.273902326584     0.627923201322    -0.100790875022    12.000000000000
         C           -0.194831326584     1.435717201322    -0.059477875022    12.000000000000
         C            1.109307673416     0.840067201322     0.184759124978    12.000000000000
         C            1.241166673416    -0.490587798678    -0.019517875022    12.000000000000
         H           -0.978510326584    -0.910320798678     1.381680124978     1.007825032230
         H           -1.827902326584    -1.472892798678    -0.084949875022     1.007825032230
         H           -2.265479326584     0.978690201322    -0.370372875022     1.007825032230
         H           -0.263425326584     2.493693201322    -0.299519875022     1.007825032230
         H            1.990634673416     1.444098201322     0.366998124978     1.007825032230
         H            2.188388673416    -1.018523798678    -0.078670875022     1.007825032230

  Basis Set: AUG-CC-PVTZ
    Blend: AUG-CC-PVTZ
  Basis Set: (AUG-CC-PVTZ AUX)
    Blend: AUG-CC-PVTZ-JKFIT
	 Reference Energy          =    -267.7375077243968349 [Eh]
	 Singles Energy            =      -0.0000000000000000 [Eh]
	 Same-Spin Energy          =      -0.2741706647253760 [Eh]
	 Opposite-Spin Energy      =      -0.8866913653683194 [Eh]
	 Correlation Energy        =      -1.1608620300936954 [Eh]
	 Total Energy              =    -268.8983697544905453 [Eh]

	 ================> DF-SCS-MP2 Energies <==================
	-----------------------------------------------------------
	 SCS Same-Spin Scale       =       0.3333333333333333 [-]
	 SCS Opposite-Spin Scale   =       1.2000000000000000 [-]
	 SCS Same-Spin Energy      =      -0.0913902215751253 [Eh]
	 SCS Opposite-Spin Energy  =      -1.0640296384419832 [Eh]
	 SCS Correlation Energy    =      -1.1554198600171084 [Eh]
	 SCS Total Energy          =    -268.8929275844139397 [Eh]
	-----------------------------------------------------------

  Dipole Moment: [D]
     X:    -0.2670      Y:     0.6423      Z:     0.4120     Total:     0.8084

*** Psi4 exiting successfully. Buy a developer a beer!
