                               Psi4 1.3.2 release

  ==> Input File <==

--------------------------------------------------------------------------
#psi4
#
memory 32 gb

molecule  {
0 1
  O        0.1973020    -1.3235490    -0.2892290
  C       -1.0344600    -0.8194530     0.2767900
  C       -1.2574290     0.6116450    -0.1105210
  C       -0.2345296     1.4903241    -0.0952894
  C        1.1257810     0.8237890     0.1750290
  C        1.2576400    -0.5068660    -0.0292480
  H       -0.9620370    -0.9265990     1.3719500
  H       -1.8114290    -1.4891710    -0.0946800
  H       -2.2490060     0.9624120    -0.3801030
  H       -0.2469520     2.4774150    -0.3092500
  H        2.0071080     1.4278200     0.3572680
  H        2.2048620    -1.0348020    -0.0884010
units angstrom
no_reorient  #important for SAPT in psi4, default
symmetry c1  #important for SAPT in psi4, default
}

set PROPERTIES_ORIGIN ["COM"]
properties('MP2/aug-cc-pvtz', properties = ['dipole'])
--------------------------------------------------------------------------

    Molecular point group: c1
  Charge       = 0
  Multiplicity = 1
  Basis Set: AUG-CC-PVTZ
    Blend: AUG-CC-PVTZ
  Basis Set: (AUG-CC-PVTZ AUX)
    Blend: AUG-CC-PVTZ-JKFIT

    Orbital Energies [Eh]
    ---------------------

    Doubly Occupied:

       1A    -20.585036     2A    -11.297444     3A    -11.294135
       4A    -11.242182     5A    -11.235587     6A    -11.229688
       7A     -1.405409     8A     -1.087500     9A     -1.031218
      10A     -0.905759    11A     -0.834342    12A     -0.725510
      13A     -0.702731    14A     -0.644148    15A     -0.635276
      16A     -0.614911    17A     -0.573836    18A     -0.522537
      19A     -0.507800    20A     -0.470322    21A     -0.410933
      22A     -0.306937

  @DF-RHF Final Energy:  -267.72952813129996

   => Energetics <=

    Nuclear Repulsion Energy =            222.2417931400749751
    One-Electron Energy =                -803.4161589209076055
    Two-Electron Energy =                 313.4448376495327011
    Total Energy =                       -267.7295281312999577
  Basis Set: (AUG-CC-PVTZ AUX)
    Blend: AUG-CC-PVTZ-RI
    Molecular point group: c1

    Geometry (in Angstrom), charge = 0, multiplicity = 1:

       Center              X                  Y                   Z               Mass
    ------------   -----------------  -----------------  -----------------  -----------------
         O            0.192741781464    -1.316861921476    -0.275070648033    15.994914619570
         C           -1.039020218536    -0.812765921476     0.290948351967    12.000000000000
         C           -1.261989218536     0.618332078524    -0.096362648033    12.000000000000
         C           -0.239089818536     1.497011178524    -0.081131048033    12.000000000000
         C            1.121220781464     0.830476078524     0.189187351967    12.000000000000
         C            1.253079781464    -0.500178921476    -0.015089648033    12.000000000000
         H           -0.966597218536    -0.919911921476     1.386108351967     1.007825032230
         H           -1.815989218536    -1.482483921476    -0.080521648033     1.007825032230
         H           -2.253566218536     0.969099078524    -0.365944648033     1.007825032230
         H           -0.251512218536     2.484102078524    -0.295091648033     1.007825032230
         H            2.002547781464     1.434507078524     0.371426351967     1.007825032230
         H            2.200301781464    -1.028114921476    -0.074242648033     1.007825032230

  Basis Set: AUG-CC-PVTZ
    Blend: AUG-CC-PVTZ
  Basis Set: (AUG-CC-PVTZ AUX)
    Blend: AUG-CC-PVTZ-JKFIT
	 Reference Energy          =    -267.7295281312999577 [Eh]
	 Singles Energy            =      -0.0000000000000000 [Eh]
	 Same-Spin Energy          =      -0.2729496436159359 [Eh]
	 Opposite-Spin Energy      =      -0.8863715040177578 [Eh]
	 Correlation Energy        =      -1.1593211476336938 [Eh]
	 Total Energy              =    -268.8888492789336624 [Eh]

	 ================> DF-SCS-MP2 Energies <==================
	-----------------------------------------------------------
	 SCS Same-Spin Scale       =       0.3333333333333333 [-]
	 SCS Opposite-Spin Scale   =       1.2000000000000000 [-]
	 SCS Same-Spin Energy      =      -0.0909832145386453 [Eh]
	 SCS Opposite-Spin Energy  =      -1.0636458048213093 [Eh]
	 SCS Correlation Energy    =      -1.1546290193599547 [Eh]
	 SCS Total Energy          =    -268.8841571506599166 [Eh]
	-----------------------------------------------------------

  Dipole Moment: [D]
     X:    -0.4389      Y:     0.6759      Z:     0.4081     Total:     0.9033

*** Psi4 exiting successfully. Buy a developer a beer!
