                               Psi4 1.3.2 release

  ==> Input File <==

--------------------------------------------------------------------------
#psi4
#
memory 32 gb

molecule  {
0 1
  O        0.2112022    -1.2326668    -0.3309171
  C       -1.0344600    -0.8194530     0.2767900
  C       -1.2574290     0.6116450    -0.1105210
  C       -0.1783580     1.4194390    -0.0692080
  C        1.1257810     0.8237890     0.1750290
  C        1.2576400    -0.5068660    -0.0292480
  H       -0.9620370    -0.9265990     1.3719500
  H       -1.8114290    -1.4891710    -0.0946800
  H       -2.2490060     0.9624120    -0.3801030
  H       -0.2469520     2.4774150    -0.3092500
  H        2.0071080     1.4278200     0.3572680
  H        2.2048620    -1.0348020    -0.0884010
units angstrom
no_reorient  #important for SAPT in psi4, default
symmetry c1  #important for SAPT in psi4, default
}

set PROPERTIES_ORIGIN ["COM"]
properties('MP2/aug-cc-pvtz', properties = ['dipole'])
--------------------------------------------------------------------------

    Molecular point group: c1
  Charge       = 0
  Multiplicity = 1
  Basis Set: AUG-CC-PVTZ
    Blend: AUG-CC-PVTZ
  Basis Set: (AUG-CC-PVTZ AUX)
    Blend: AUG-CC-PVTZ-JKFIT

    Orbital Energies [Eh]
    ---------------------

    Doubly Occupied:

       1A    -20.585845     2A    -11.296642     3A    -11.295699
       4A    -11.239188     5A    -11.228678     6A    -11.218482
       7A     -1.429382     8A     -1.092466     9A     -1.039357
      10A     -0.899304    11A     -0.839792    12A     -0.726404
      13A     -0.707798    14A     -0.655400    15A     -0.634170
      16A     -0.608395    17A     -0.571058    18A     -0.539430
      19A     -0.512618    20A     -0.465587    21A     -0.411968
      22A     -0.298115

  @DF-RHF Final Energy:  -267.73652888573196

   => Energetics <=

    Nuclear Repulsion Energy =            225.2256610163488517
    One-Electron Energy =                -809.3328191279965722
    Two-Electron Energy =                 316.3706292259158204
    Total Energy =                       -267.7365288857319570
  Basis Set: (AUG-CC-PVTZ AUX)
    Blend: AUG-CC-PVTZ-RI
    Molecular point group: c1

    Geometry (in Angstrom), charge = 0, multiplicity = 1:

       Center              X                  Y                   Z               Mass
    ------------   -----------------  -----------------  -----------------  -----------------
         O            0.195715953463    -1.233330015509    -0.312446062053    15.994914619570
         C           -1.049946246537    -0.820116215509     0.295261037947    12.000000000000
         C           -1.272915246537     0.610981784491    -0.092049962053    12.000000000000
         C           -0.193844246537     1.418775784491    -0.050736962053    12.000000000000
         C            1.110294753463     0.823125784491     0.193500037947    12.000000000000
         C            1.242153753463    -0.507529215509    -0.010776962053    12.000000000000
         H           -0.977523246537    -0.927262215509     1.390421037947     1.007825032230
         H           -1.826915246537    -1.489834215509    -0.076208962053     1.007825032230
         H           -2.264492246537     0.961748784491    -0.361631962053     1.007825032230
         H           -0.262438246537     2.476751784491    -0.290778962053     1.007825032230
         H            1.991621753463     1.427156784491     0.375739037947     1.007825032230
         H            2.189375753463    -1.035465215509    -0.069929962053     1.007825032230

  Basis Set: AUG-CC-PVTZ
    Blend: AUG-CC-PVTZ
  Basis Set: (AUG-CC-PVTZ AUX)
    Blend: AUG-CC-PVTZ-JKFIT
	 Reference Energy          =    -267.7365288857319570 [Eh]
	 Singles Energy            =      -0.0000000000000000 [Eh]
	 Same-Spin Energy          =      -0.2741417758230411 [Eh]
	 Opposite-Spin Energy      =      -0.8852168979343895 [Eh]
	 Correlation Energy        =      -1.1593586737574306 [Eh]
	 Total Energy              =    -268.8958875594893811 [Eh]

	 ================> DF-SCS-MP2 Energies <==================
	-----------------------------------------------------------
	 SCS Same-Spin Scale       =       0.3333333333333333 [-]
	 SCS Opposite-Spin Scale   =       1.2000000000000000 [-]
	 SCS Same-Spin Energy      =      -0.0913805919410137 [Eh]
	 SCS Opposite-Spin Energy  =      -1.0622602775212673 [Eh]
	 SCS Correlation Energy    =      -1.1536408694622811 [Eh]
	 SCS Total Energy          =    -268.8901697551942220 [Eh]
	-----------------------------------------------------------

  Dipole Moment: [D]
     X:    -0.4595      Y:     0.3047      Z:     0.4495     Total:     0.7114

*** Psi4 exiting successfully. Buy a developer a beer!
