                               Psi4 1.3.2 release

  ==> Input File <==

--------------------------------------------------------------------------
#psi4
#
memory 32 gb

molecule  {
0 1
  O        0.1973020    -1.3235490    -0.2892290
  C       -1.0344600    -0.8194530     0.2767900
  C       -1.2574290     0.6116450    -0.1105210
  C       -0.1783580     1.4194390    -0.0692080
  C        1.1257810     0.8237890     0.1750290
  C        1.2576400    -0.5068660    -0.0292480
  H       -0.9620370    -0.9265990     1.3719500
  H       -1.8114290    -1.4891710    -0.0946800
  H       -2.2490060     0.9624120    -0.3801030
  H       -0.2469520     2.4774150    -0.3092500
  H        2.0071080     1.4278200     0.3572680
  H        2.1176426    -0.9861901    -0.0829542
units angstrom
no_reorient  #important for SAPT in psi4, default
symmetry c1  #important for SAPT in psi4, default
}

set PROPERTIES_ORIGIN ["COM"]
properties('MP2/aug-cc-pvtz', properties = ['dipole'])
--------------------------------------------------------------------------

    Molecular point group: c1
  Charge       = 0
  Multiplicity = 1
  Basis Set: AUG-CC-PVTZ
    Blend: AUG-CC-PVTZ
  Basis Set: (AUG-CC-PVTZ AUX)
    Blend: AUG-CC-PVTZ-JKFIT

    Orbital Energies [Eh]
    ---------------------

    Doubly Occupied:

       1A    -20.585885     2A    -11.290596     3A    -11.289201
       4A    -11.241261     5A    -11.231184     6A    -11.225756
       7A     -1.406736     8A     -1.096023     9A     -1.038401
      10A     -0.898712    11A     -0.849736    12A     -0.729257
      13A     -0.703423    14A     -0.651589    15A     -0.634612
      16A     -0.608958    17A     -0.573750    18A     -0.534612
      19A     -0.507899    20A     -0.472322    21A     -0.418634
      22A     -0.302033

  @DF-RHF Final Energy:  -267.73220151912534

   => Energetics <=

    Nuclear Repulsion Energy =            224.0269441686352252
    One-Electron Energy =                -806.9371336368863012
    Two-Electron Energy =                 315.1779879491256793
    Total Energy =                       -267.7322015191253399
  Basis Set: (AUG-CC-PVTZ AUX)
    Blend: AUG-CC-PVTZ-RI
    Molecular point group: c1

    Geometry (in Angstrom), charge = 0, multiplicity = 1:

       Center              X                  Y                   Z               Mass
    ------------   -----------------  -----------------  -----------------  -----------------
         O            0.185597169299    -1.307090947691    -0.278952400624    15.994914619570
         C           -1.046164830701    -0.802994947691     0.287066599376    12.000000000000
         C           -1.269133830701     0.628103052309    -0.100244400624    12.000000000000
         C           -0.190062830701     1.435897052309    -0.058931400624    12.000000000000
         C            1.114076169299     0.840247052309     0.185305599376    12.000000000000
         C            1.245935169299    -0.490407947691    -0.018971400624    12.000000000000
         H           -0.973741830701    -0.910140947691     1.382226599376     1.007825032230
         H           -1.823133830701    -1.472712947691    -0.084403400624     1.007825032230
         H           -2.260710830701     0.978870052309    -0.369826400624     1.007825032230
         H           -0.258656830701     2.493873052309    -0.298973400624     1.007825032230
         H            1.995403169299     1.444278052309     0.367544599376     1.007825032230
         H            2.105937769299    -0.969732047691    -0.072677600624     1.007825032230

  Basis Set: AUG-CC-PVTZ
    Blend: AUG-CC-PVTZ
  Basis Set: (AUG-CC-PVTZ AUX)
    Blend: AUG-CC-PVTZ-JKFIT
	 Reference Energy          =    -267.7322015191253399 [Eh]
	 Singles Energy            =      -0.0000000000000000 [Eh]
	 Same-Spin Energy          =      -0.2739303241332674 [Eh]
	 Opposite-Spin Energy      =      -0.8862410659343561 [Eh]
	 Correlation Energy        =      -1.1601713900676236 [Eh]
	 Total Energy              =    -268.8923729091929431 [Eh]

	 ================> DF-SCS-MP2 Energies <==================
	-----------------------------------------------------------
	 SCS Same-Spin Scale       =       0.3333333333333333 [-]
	 SCS Opposite-Spin Scale   =       1.2000000000000000 [-]
	 SCS Same-Spin Energy      =      -0.0913101080444225 [Eh]
	 SCS Opposite-Spin Energy  =      -1.0634892791212274 [Eh]
	 SCS Correlation Energy    =      -1.1547993871656499 [Eh]
	 SCS Total Energy          =    -268.8870009062910071 [Eh]
	-----------------------------------------------------------

  Dipole Moment: [D]
     X:    -0.3075      Y:     0.6285      Z:     0.4205     Total:     0.8163

*** Psi4 exiting successfully. Buy a developer a beer!
