                               Psi4 1.3.2 release

  ==> Input File <==

--------------------------------------------------------------------------
#psi4
#
memory 32 gb

molecule  {
0 1
  O        0.2281537    -1.3436054    -0.1952258
  C       -1.0344600    -0.8194530     0.2767900
  C       -1.2574290     0.6116450    -0.1105210
  C       -0.1783580     1.4194390    -0.0692080
  C        1.1257810     0.8237890     0.1750290
  C        1.2576400    -0.5068660    -0.0292480
  H       -0.9620370    -0.9265990     1.3719500
  H       -1.8114290    -1.4891710    -0.0946800
  H       -2.2490060     0.9624120    -0.3801030
  H       -0.2469520     2.4774150    -0.3092500
  H        2.0071080     1.4278200     0.3572680
  H        2.2048620    -1.0348020    -0.0884010
units angstrom
no_reorient  #important for SAPT in psi4, default
symmetry c1  #important for SAPT in psi4, default
}

set PROPERTIES_ORIGIN ["COM"]
properties('MP2/aug-cc-pvtz', properties = ['dipole'])
--------------------------------------------------------------------------

    Molecular point group: c1
  Charge       = 0
  Multiplicity = 1
  Basis Set: AUG-CC-PVTZ
    Blend: AUG-CC-PVTZ
  Basis Set: (AUG-CC-PVTZ AUX)
    Blend: AUG-CC-PVTZ-JKFIT

    Orbital Energies [Eh]
    ---------------------

    Doubly Occupied:

       1A    -20.589936     2A    -11.301838     3A    -11.292114
       4A    -11.242398     5A    -11.230115     6A    -11.222062
       7A     -1.419242     8A     -1.096433     9A     -1.036378
      10A     -0.899845    11A     -0.843788    12A     -0.720386
      13A     -0.700125    14A     -0.655377    15A     -0.639049
      16A     -0.608471    17A     -0.571071    18A     -0.528189
      19A     -0.511222    20A     -0.475064    21A     -0.420075
      22A     -0.297306

  @DF-RHF Final Energy:  -267.73785576707968

   => Energetics <=

    Nuclear Repulsion Energy =            223.7752938066709305
    One-Electron Energy =                -806.4253307603428311
    Two-Electron Energy =                 314.9121811865922496
    Total Energy =                       -267.7378557670796795
  Basis Set: (AUG-CC-PVTZ AUX)
    Blend: AUG-CC-PVTZ-RI
    Molecular point group: c1

    Geometry (in Angstrom), charge = 0, multiplicity = 1:

       Center              X                  Y                   Z               Mass
    ------------   -----------------  -----------------  -----------------  -----------------
         O            0.209362582276    -1.322639981896    -0.203209191911    15.994914619570
         C           -1.053251117724    -0.798487581896     0.268806608089    12.000000000000
         C           -1.276220117724     0.632610418104    -0.118504391911    12.000000000000
         C           -0.197149117724     1.440404418104    -0.077191391911    12.000000000000
         C            1.106989882276     0.844754418104     0.167045608089    12.000000000000
         C            1.238848882276    -0.485900581896    -0.037231391911    12.000000000000
         H           -0.980828117724    -0.905633581896     1.363966608089     1.007825032230
         H           -1.830220117724    -1.468205581896    -0.102663391911     1.007825032230
         H           -2.267797117724     0.983377418104    -0.388086391911     1.007825032230
         H           -0.265743117724     2.498380418104    -0.317233391911     1.007825032230
         H            1.988316882276     1.448785418104     0.349284608089     1.007825032230
         H            2.186070882276    -1.013836581896    -0.096384391911     1.007825032230

  Basis Set: AUG-CC-PVTZ
    Blend: AUG-CC-PVTZ
  Basis Set: (AUG-CC-PVTZ AUX)
    Blend: AUG-CC-PVTZ-JKFIT
	 Reference Energy          =    -267.7378557670796795 [Eh]
	 Singles Energy            =      -0.0000000000000000 [Eh]
	 Same-Spin Energy          =      -0.2740307789888282 [Eh]
	 Opposite-Spin Energy      =      -0.8859392328209355 [Eh]
	 Correlation Energy        =      -1.1599700118097638 [Eh]
	 Total Energy              =    -268.8978257788894553 [Eh]

	 ================> DF-SCS-MP2 Energies <==================
	-----------------------------------------------------------
	 SCS Same-Spin Scale       =       0.3333333333333333 [-]
	 SCS Opposite-Spin Scale   =       1.2000000000000000 [-]
	 SCS Same-Spin Energy      =      -0.0913435929962761 [Eh]
	 SCS Opposite-Spin Energy  =      -1.0631270793851224 [Eh]
	 SCS Correlation Energy    =      -1.1544706723813984 [Eh]
	 SCS Total Energy          =    -268.8923264394611010 [Eh]
	-----------------------------------------------------------

  Dipole Moment: [D]
     X:    -0.3954      Y:     0.5305      Z:     0.2923     Total:     0.7233

*** Psi4 exiting successfully. Buy a developer a beer!
