                               Psi4 1.3.2 release

  ==> Input File <==

--------------------------------------------------------------------------
#psi4
#
memory 32 gb

molecule  {
0 1
  O        0.1973020    -1.3235490    -0.2892290
  C       -1.0344600    -0.8194530     0.2767900
  C       -1.2574290     0.6116450    -0.1105210
  C       -0.1592508     1.4645562    -0.0559252
  C        1.1257810     0.8237890     0.1750290
  C        1.2576400    -0.5068660    -0.0292480
  H       -0.9620370    -0.9265990     1.3719500
  H       -1.8114290    -1.4891710    -0.0946800
  H       -2.2490060     0.9624120    -0.3801030
  H       -0.2469520     2.4774150    -0.3092500
  H        2.0071080     1.4278200     0.3572680
  H        2.2048620    -1.0348020    -0.0884010
units angstrom
no_reorient  #important for SAPT in psi4, default
symmetry c1  #important for SAPT in psi4, default
}

set PROPERTIES_ORIGIN ["COM"]
properties('MP2/aug-cc-pvtz', properties = ['dipole'])
--------------------------------------------------------------------------

    Molecular point group: c1
  Charge       = 0
  Multiplicity = 1
  Basis Set: AUG-CC-PVTZ
    Blend: AUG-CC-PVTZ
  Basis Set: (AUG-CC-PVTZ AUX)
    Blend: AUG-CC-PVTZ-JKFIT

    Orbital Energies [Eh]
    ---------------------

    Doubly Occupied:

       1A    -20.587198     2A    -11.301281     3A    -11.292365
       4A    -11.244808     5A    -11.238164     6A    -11.227083
       7A     -1.407228     8A     -1.090772     9A     -1.033453
      10A     -0.897786    11A     -0.842321    12A     -0.721767
      13A     -0.703934    14A     -0.648881    15A     -0.633082
      16A     -0.607741    17A     -0.575638    18A     -0.531456
      19A     -0.503997    20A     -0.475856    21A     -0.414967
      22A     -0.297713

  @DF-RHF Final Energy:  -267.73276744571660

   => Energetics <=

    Nuclear Repulsion Energy =            222.7594337757807068
    One-Electron Energy =                -804.4294233186135443
    Two-Electron Energy =                 313.9372220971162051
    Total Energy =                       -267.7327674457166040
  Basis Set: (AUG-CC-PVTZ AUX)
    Blend: AUG-CC-PVTZ-RI
    Molecular point group: c1

    Geometry (in Angstrom), charge = 0, multiplicity = 1:

       Center              X                  Y                   Z               Mass
    ------------   -----------------  -----------------  -----------------  -----------------
         O            0.181730993227    -1.313092933524    -0.280828323106    15.994914619570
         C           -1.050031006773    -0.808996933524     0.285190676894    12.000000000000
         C           -1.273000006773     0.622101066476    -0.102120323106    12.000000000000
         C           -0.174821806773     1.475012266476    -0.047524523106    12.000000000000
         C            1.110209993227     0.834245066476     0.183429676894    12.000000000000
         C            1.242068993227    -0.496409933524    -0.020847323106    12.000000000000
         H           -0.977608006773    -0.916142933524     1.380350676894     1.007825032230
         H           -1.827000006773    -1.478714933524    -0.086279323106     1.007825032230
         H           -2.264577006773     0.972868066476    -0.371702323106     1.007825032230
         H           -0.262523006773     2.487871066476    -0.300849323106     1.007825032230
         H            1.991536993227     1.438276066476     0.365668676894     1.007825032230
         H            2.189290993227    -1.024345933524    -0.080000323106     1.007825032230

  Basis Set: AUG-CC-PVTZ
    Blend: AUG-CC-PVTZ
  Basis Set: (AUG-CC-PVTZ AUX)
    Blend: AUG-CC-PVTZ-JKFIT
	 Reference Energy          =    -267.7327674457166040 [Eh]
	 Singles Energy            =      -0.0000000000000000 [Eh]
	 Same-Spin Energy          =      -0.2746314498517087 [Eh]
	 Opposite-Spin Energy      =      -0.8880869259267556 [Eh]
	 Correlation Energy        =      -1.1627183757784643 [Eh]
	 Total Energy              =    -268.8954858214950718 [Eh]

	 ================> DF-SCS-MP2 Energies <==================
	-----------------------------------------------------------
	 SCS Same-Spin Scale       =       0.3333333333333333 [-]
	 SCS Opposite-Spin Scale   =       1.2000000000000000 [-]
	 SCS Same-Spin Energy      =      -0.0915438166172362 [Eh]
	 SCS Opposite-Spin Energy  =      -1.0657043111121067 [Eh]
	 SCS Correlation Energy    =      -1.1572481277293429 [Eh]
	 SCS Total Energy          =    -268.8900155734459645 [Eh]
	-----------------------------------------------------------

  Dipole Moment: [D]
     X:    -0.3314      Y:     0.6217      Z:     0.4009     Total:     0.8106

*** Psi4 exiting successfully. Buy a developer a beer!
