                               Psi4 1.4a3.dev225

  ==> Input File <==

--------------------------------------------------------------------------
#psi4
#
memory 32 gb

molecule  {
0 1
  O        0.1973020    -1.3235490    -0.2892290
  C       -1.0344600    -0.8194530     0.2767900
  C       -1.2574290     0.6116450    -0.1105210
  C       -0.1783580     1.4194390    -0.0692080
  C        1.1078471     0.8319801     0.1716704
  C        1.2576400    -0.5068660    -0.0292480
  H       -0.9620370    -0.9265990     1.3719500
  H       -1.8114290    -1.4891710    -0.0946800
  H       -2.2490060     0.9624120    -0.3801030
  H       -0.2469520     2.4774150    -0.3092500
  H        2.0071080     1.4278200     0.3572680
  H        2.2048620    -1.0348020    -0.0884010
units angstrom
no_reorient  #important for SAPT in psi4, default
symmetry c1  #important for SAPT in psi4, default
}

set PROPERTIES_ORIGIN ["COM"]
properties('MP2/aug-cc-pvtz', properties = ['dipole'])
--------------------------------------------------------------------------

    Molecular point group: c1
  Charge       = 0
  Multiplicity = 1
  Basis Set: AUG-CC-PVTZ
    Blend: AUG-CC-PVTZ
  Basis Set: (AUG-CC-PVTZ AUX)
    Blend: AUG-CC-PVTZ-JKFIT

    Orbital Energies [Eh]
    ---------------------

    Doubly Occupied:

       1A    -20.587237     2A    -11.302777     3A    -11.291206
       4A    -11.240343     5A    -11.231060     6A    -11.226783
       7A     -1.407623     8A     -1.098818     9A     -1.033346
      10A     -0.897222    11A     -0.843013    12A     -0.718846
      13A     -0.702759    14A     -0.649654    15A     -0.632408
      16A     -0.605442    17A     -0.571923    18A     -0.534875
      19A     -0.507090    20A     -0.471159    21A     -0.420659
      22A     -0.299550

  @DF-RHF Final Energy:  -267.73676620817884

   => Energetics <=

    Nuclear Repulsion Energy =            223.6455021214135570
    One-Electron Energy =                -806.2169474703899823
    Two-Electron Energy =                 314.8346791407976184
    Total Energy =                       -267.7367662081788353
  Basis Set: (AUG-CC-PVTZ AUX)
    Blend: AUG-CC-PVTZ-RI
    Molecular point group: c1

    Geometry (in Angstrom), charge = 0, multiplicity = 1:

       Center              X                  Y                   Z               Mass
    ------------   -----------------  -----------------  -----------------  -----------------
         O            0.187148875927    -1.307691871505    -0.278394238990    15.994914619570
         C           -1.044613124073    -0.803595871505     0.287624761010    12.000000000000
         C           -1.267582124073     0.627502128495    -0.099686238990    12.000000000000
         C           -0.188511124073     1.435296128495    -0.058373238990    12.000000000000
         C            1.097693975927     0.847837228495     0.182505161010    12.000000000000
         C            1.247486875927    -0.491008871505    -0.018413238990    12.000000000000
         H           -0.972190124073    -0.910741871505     1.382784761010     1.007825032230
         H           -1.821582124073    -1.473313871505    -0.083845238990     1.007825032230
         H           -2.259159124073     0.978269128495    -0.369268238990     1.007825032230
         H           -0.257105124073     2.493272128495    -0.298415238990     1.007825032230
         H            1.996954875927     1.443677128495     0.368102761010     1.007825032230
         H            2.194708875927    -1.018944871505    -0.077566238990     1.007825032230

  Basis Set: AUG-CC-PVTZ
    Blend: AUG-CC-PVTZ
  Basis Set: (AUG-CC-PVTZ AUX)
    Blend: AUG-CC-PVTZ-JKFIT
	 Reference Energy          =    -267.7367662081788353 [Eh]
	 Singles Energy            =      -0.0000000000000000 [Eh]
	 Same-Spin Energy          =      -0.2745907162024419 [Eh]
	 Opposite-Spin Energy      =      -0.8872818792998326 [Eh]
	 Correlation Energy        =      -1.1618725955022744 [Eh]
	 Total Energy              =    -268.8986388036811377 [Eh]

	 ================> DF-SCS-MP2 Energies <==================
	-----------------------------------------------------------
	 SCS Same-Spin Scale       =       0.3333333333333333 [-]
	 SCS Opposite-Spin Scale   =       1.2000000000000000 [-]
	 SCS Same-Spin Energy      =      -0.0915302387341473 [Eh]
	 SCS Opposite-Spin Energy  =      -1.0647382551597990 [Eh]
	 SCS Correlation Energy    =      -1.1562684938939463 [Eh]
	 SCS Total Energy          =    -268.8930347020727822 [Eh]
	-----------------------------------------------------------

  Dipole Moment: [D]
     X:    -0.3150      Y:     0.6043      Z:     0.4154     Total:     0.7980

*** Psi4 exiting successfully. Buy a developer a beer!
