                               Psi4 1.4a3.dev225

  ==> Input File <==

--------------------------------------------------------------------------
#psi4
#
memory 32 gb

molecule  {
0 1
  O        0.1973020    -1.3235490    -0.2892290
  C       -1.0344600    -0.8194530     0.2767900
  C       -1.2574290     0.6116450    -0.1105210
  C       -0.1783580     1.4194390    -0.0692080
  C        1.1257810     0.8237890     0.1750290
  C        1.2625140    -0.5560517    -0.0367988
  H       -0.9620370    -0.9265990     1.3719500
  H       -1.8114290    -1.4891710    -0.0946800
  H       -2.2490060     0.9624120    -0.3801030
  H       -0.2469520     2.4774150    -0.3092500
  H        2.0071080     1.4278200     0.3572680
  H        2.2048620    -1.0348020    -0.0884010
units angstrom
no_reorient  #important for SAPT in psi4, default
symmetry c1  #important for SAPT in psi4, default
}

set PROPERTIES_ORIGIN ["COM"]
properties('MP2/aug-cc-pvtz', properties = ['dipole'])
--------------------------------------------------------------------------

    Molecular point group: c1
  Charge       = 0
  Multiplicity = 1
  Basis Set: AUG-CC-PVTZ
    Blend: AUG-CC-PVTZ
  Basis Set: (AUG-CC-PVTZ AUX)
    Blend: AUG-CC-PVTZ-JKFIT

    Orbital Energies [Eh]
    ---------------------

    Doubly Occupied:

       1A    -20.591719     2A    -11.307009     3A    -11.293917
       4A    -11.241278     5A    -11.229520     6A    -11.228892
       7A     -1.419900     8A     -1.092241     9A     -1.031210
      10A     -0.895213    11A     -0.845785    12A     -0.722941
      13A     -0.703976    14A     -0.655314    15A     -0.636374
      16A     -0.608390    17A     -0.570497    18A     -0.536262
      19A     -0.511486    20A     -0.468975    21A     -0.415106
      22A     -0.293563

  @DF-RHF Final Energy:  -267.73371930014434

   => Energetics <=

    Nuclear Repulsion Energy =            223.1957733829223685
    One-Electron Energy =                -805.2598519520214495
    Two-Electron Energy =                 314.3303592689547941
    Total Energy =                       -267.7337193001443438
  Basis Set: (AUG-CC-PVTZ AUX)
    Blend: AUG-CC-PVTZ-RI
    Molecular point group: c1

    Geometry (in Angstrom), charge = 0, multiplicity = 1:

       Center              X                  Y                   Z               Mass
    ------------   -----------------  -----------------  -----------------  -----------------
         O            0.183812837666    -1.299299551297    -0.277781059363    15.994914619570
         C           -1.047949162334    -0.795203551297     0.288237940637    12.000000000000
         C           -1.270918162334     0.635894448703    -0.099073059363    12.000000000000
         C           -0.191847162334     1.443688448703    -0.057760059363    12.000000000000
         C            1.112291837666     0.848038448703     0.186476940637    12.000000000000
         C            1.249024837666    -0.531802251297    -0.025350859363    12.000000000000
         H           -0.975526162334    -0.902349551297     1.383397940637     1.007825032230
         H           -1.824918162334    -1.464921551297    -0.083232059363     1.007825032230
         H           -2.262495162334     0.986661448703    -0.368655059363     1.007825032230
         H           -0.260441162334     2.501664448703    -0.297802059363     1.007825032230
         H            1.993618837666     1.452069448703     0.368715940637     1.007825032230
         H            2.191372837666    -1.010552551297    -0.076953059363     1.007825032230

  Basis Set: AUG-CC-PVTZ
    Blend: AUG-CC-PVTZ
  Basis Set: (AUG-CC-PVTZ AUX)
    Blend: AUG-CC-PVTZ-JKFIT
	 Reference Energy          =    -267.7337193001443438 [Eh]
	 Singles Energy            =      -0.0000000000000000 [Eh]
	 Same-Spin Energy          =      -0.2746912904662218 [Eh]
	 Opposite-Spin Energy      =      -0.8873718920901084 [Eh]
	 Correlation Energy        =      -1.1620631825563301 [Eh]
	 Total Energy              =    -268.8957824827006675 [Eh]

	 ================> DF-SCS-MP2 Energies <==================
	-----------------------------------------------------------
	 SCS Same-Spin Scale       =       0.3333333333333333 [-]
	 SCS Opposite-Spin Scale   =       1.2000000000000000 [-]
	 SCS Same-Spin Energy      =      -0.0915637634887406 [Eh]
	 SCS Opposite-Spin Energy  =      -1.0648462705081301 [Eh]
	 SCS Correlation Energy    =      -1.1564100339968706 [Eh]
	 SCS Total Energy          =    -268.8901293341411929 [Eh]
	-----------------------------------------------------------

  Dipole Moment: [D]
     X:    -0.3727      Y:     0.4566      Z:     0.3854     Total:     0.7042

*** Psi4 exiting successfully. Buy a developer a beer!
