                               Psi4 1.3.2 release

  ==> Input File <==

--------------------------------------------------------------------------
#psi4
#
memory 32 gb

molecule  {
0 1
  O        0.1973020    -1.3235490    -0.2892290
  C       -1.0344600    -0.8194530     0.2767900
  C       -1.2574290     0.6116450    -0.1105210
  C       -0.2260629     1.2799573    -0.1072081
  C        1.1257810     0.8237890     0.1750290
  C        1.2576400    -0.5068660    -0.0292480
  H       -0.9620370    -0.9265990     1.3719500
  H       -1.8114290    -1.4891710    -0.0946800
  H       -2.2490060     0.9624120    -0.3801030
  H       -0.2469520     2.4774150    -0.3092500
  H        2.0071080     1.4278200     0.3572680
  H        2.2048620    -1.0348020    -0.0884010
units angstrom
no_reorient  #important for SAPT in psi4, default
symmetry c1  #important for SAPT in psi4, default
}

set PROPERTIES_ORIGIN ["COM"]
properties('MP2/aug-cc-pvtz', properties = ['dipole'])
--------------------------------------------------------------------------

    Molecular point group: c1
  Charge       = 0
  Multiplicity = 1
  Basis Set: AUG-CC-PVTZ
    Blend: AUG-CC-PVTZ
  Basis Set: (AUG-CC-PVTZ AUX)
    Blend: AUG-CC-PVTZ-JKFIT

    Orbital Energies [Eh]
    ---------------------

    Doubly Occupied:

       1A    -20.587588     2A    -11.300309     3A    -11.288850
       4A    -11.234173     5A    -11.225705     6A    -11.212358
       7A     -1.409021     8A     -1.118646     9A     -1.039635
      10A     -0.905884    11A     -0.833143    12A     -0.717313
      13A     -0.696746    14A     -0.657727    15A     -0.635428
      16A     -0.604853    17A     -0.557673    18A     -0.539613
      19A     -0.511568    20A     -0.451298    21A     -0.430661
      22A     -0.315362

  @DF-RHF Final Energy:  -267.71068951956045

   => Energetics <=

    Nuclear Repulsion Energy =            225.8989804062296116
    One-Electron Energy =                -810.6722309847235692
    Two-Electron Energy =                 317.0625610589335110
    Total Energy =                       -267.7106895195604466
  Basis Set: (AUG-CC-PVTZ AUX)
    Blend: AUG-CC-PVTZ-RI
    Molecular point group: c1

    Geometry (in Angstrom), charge = 0, multiplicity = 1:

       Center              X                  Y                   Z               Mass
    ------------   -----------------  -----------------  -----------------  -----------------
         O            0.191503384455    -1.286092245460    -0.273327338073    15.994914619570
         C           -1.040258615545    -0.781996245460     0.292691661927    12.000000000000
         C           -1.263227615545     0.649101754540    -0.094619338073    12.000000000000
         C           -0.231861515545     1.317414054540    -0.091306438073    12.000000000000
         C            1.119982384455     0.861245754540     0.190930661927    12.000000000000
         C            1.251841384455    -0.469409245460    -0.013346338073    12.000000000000
         H           -0.967835615545    -0.889142245460     1.387851661927     1.007825032230
         H           -1.817227615545    -1.451714245460    -0.078778338073     1.007825032230
         H           -2.254804615545     0.999868754540    -0.364201338073     1.007825032230
         H           -0.252750615545     2.514871754540    -0.293348338073     1.007825032230
         H            2.001309384455     1.465276754540     0.373169661927     1.007825032230
         H            2.199063384455    -0.997345245460    -0.072499338073     1.007825032230

  Basis Set: AUG-CC-PVTZ
    Blend: AUG-CC-PVTZ
  Basis Set: (AUG-CC-PVTZ AUX)
    Blend: AUG-CC-PVTZ-JKFIT
	 Reference Energy          =    -267.7106895195604466 [Eh]
	 Singles Energy            =      -0.0000000000000000 [Eh]
	 Same-Spin Energy          =      -0.2737455503033133 [Eh]
	 Opposite-Spin Energy      =      -0.8852389968260664 [Eh]
	 Correlation Energy        =      -1.1589845471293798 [Eh]
	 Total Energy              =    -268.8696740666898108 [Eh]

	 ================> DF-SCS-MP2 Energies <==================
	-----------------------------------------------------------
	 SCS Same-Spin Scale       =       0.3333333333333333 [-]
	 SCS Opposite-Spin Scale   =       1.2000000000000000 [-]
	 SCS Same-Spin Energy      =      -0.0912485167677711 [Eh]
	 SCS Opposite-Spin Energy  =      -1.0622867961912796 [Eh]
	 SCS Correlation Energy    =      -1.1535353129590507 [Eh]
	 SCS Total Energy          =    -268.8642248325194828 [Eh]
	-----------------------------------------------------------

  Dipole Moment: [D]
     X:    -0.3254      Y:     0.5426      Z:     0.4838     Total:     0.7964

*** Psi4 exiting successfully. Buy a developer a beer!
