                               Psi4 1.3.2 release

  ==> Input File <==

--------------------------------------------------------------------------
#psi4
#
memory 32 gb

molecule  {
0 1
  O        0.2276995    -1.3596140    -0.2955586
  C       -1.0344600    -0.8194530     0.2767900
  C       -1.2574290     0.6116450    -0.1105210
  C       -0.1783580     1.4194390    -0.0692080
  C        1.1257810     0.8237890     0.1750290
  C        1.2576400    -0.5068660    -0.0292480
  H       -0.9620370    -0.9265990     1.3719500
  H       -1.8114290    -1.4891710    -0.0946800
  H       -2.2490060     0.9624120    -0.3801030
  H       -0.2469520     2.4774150    -0.3092500
  H        2.0071080     1.4278200     0.3572680
  H        2.2048620    -1.0348020    -0.0884010
units angstrom
no_reorient  #important for SAPT in psi4, default
symmetry c1  #important for SAPT in psi4, default
}

set PROPERTIES_ORIGIN ["COM"]
properties('MP2/aug-cc-pvtz', properties = ['dipole'])
--------------------------------------------------------------------------

    Molecular point group: c1
  Charge       = 0
  Multiplicity = 1
  Basis Set: AUG-CC-PVTZ
    Blend: AUG-CC-PVTZ
  Basis Set: (AUG-CC-PVTZ AUX)
    Blend: AUG-CC-PVTZ-JKFIT

    Orbital Energies [Eh]
    ---------------------

    Doubly Occupied:

       1A    -20.589091     2A    -11.300926     3A    -11.294945
       4A    -11.243126     5A    -11.232322     6A    -11.225730
       7A     -1.398228     8A     -1.098121     9A     -1.031104
      10A     -0.900203    11A     -0.838122    12A     -0.715383
      13A     -0.702428    14A     -0.645566    15A     -0.630218
      16A     -0.606504    17A     -0.566944    18A     -0.531976
      19A     -0.512037    20A     -0.473672    21A     -0.420071
      22A     -0.302289

  @DF-RHF Final Energy:  -267.73494068389454

   => Energetics <=

    Nuclear Repulsion Energy =            222.5134130178774399
    One-Electron Energy =                -803.9786936736073812
    Two-Electron Energy =                 313.7303399718353489
    Total Energy =                       -267.7349406838945356
  Basis Set: (AUG-CC-PVTZ AUX)
    Blend: AUG-CC-PVTZ-RI
    Molecular point group: c1

    Geometry (in Angstrom), charge = 0, multiplicity = 1:

       Center              X                  Y                   Z               Mass
    ------------   -----------------  -----------------  -----------------  -----------------
         O            0.208996933289    -1.335527538868    -0.283981069286    15.994914619570
         C           -1.053162566711    -0.795366538868     0.288367530714    12.000000000000
         C           -1.276131566711     0.635731461132    -0.098943469286    12.000000000000
         C           -0.197060566711     1.443525461132    -0.057630469286    12.000000000000
         C            1.107078433289     0.847875461132     0.186606530714    12.000000000000
         C            1.238937433289    -0.482779538868    -0.017670469286    12.000000000000
         H           -0.980739566711    -0.902512538868     1.383527530714     1.007825032230
         H           -1.830131566711    -1.465084538868    -0.083102469286     1.007825032230
         H           -2.267708566711     0.986498461132    -0.368525469286     1.007825032230
         H           -0.265654566711     2.501501461132    -0.297672469286     1.007825032230
         H            1.988405433289     1.451906461132     0.368845530714     1.007825032230
         H            2.186159433289    -1.010715538868    -0.076823469286     1.007825032230

  Basis Set: AUG-CC-PVTZ
    Blend: AUG-CC-PVTZ
  Basis Set: (AUG-CC-PVTZ AUX)
    Blend: AUG-CC-PVTZ-JKFIT
	 Reference Energy          =    -267.7349406838945356 [Eh]
	 Singles Energy            =      -0.0000000000000000 [Eh]
	 Same-Spin Energy          =      -0.2744339673251625 [Eh]
	 Opposite-Spin Energy      =      -0.8879641927858803 [Eh]
	 Correlation Energy        =      -1.1623981601110427 [Eh]
	 Total Energy              =    -268.8973388440055601 [Eh]

	 ================> DF-SCS-MP2 Energies <==================
	-----------------------------------------------------------
	 SCS Same-Spin Scale       =       0.3333333333333333 [-]
	 SCS Opposite-Spin Scale   =       1.2000000000000000 [-]
	 SCS Same-Spin Energy      =      -0.0914779891083875 [Eh]
	 SCS Opposite-Spin Energy  =      -1.0655570313430565 [Eh]
	 SCS Correlation Energy    =      -1.1570350204514439 [Eh]
	 SCS Total Energy          =    -268.8919757043459526 [Eh]
	-----------------------------------------------------------

  Dipole Moment: [D]
     X:    -0.4221      Y:     0.6806      Z:     0.4521     Total:     0.9196

*** Psi4 exiting successfully. Buy a developer a beer!
