                               Psi4 1.4a3.dev225

  ==> Input File <==

--------------------------------------------------------------------------
#psi4
#
memory 32 gb

molecule  {
0 1
  O        0.1973020    -1.3235490    -0.2892290
  C       -1.0344600    -0.8194530     0.2767900
  C       -1.2574290     0.6116450    -0.1105210
  C       -0.1783580     1.4194390    -0.0692080
  C        1.1257810     0.8237890     0.1750290
  C        1.2595896    -0.5265403    -0.0322683
  H       -0.9620370    -0.9265990     1.3719500
  H       -1.8114290    -1.4891710    -0.0946800
  H       -2.2490060     0.9624120    -0.3801030
  H       -0.2469520     2.4774150    -0.3092500
  H        2.0071080     1.4278200     0.3572680
  H        2.2048620    -1.0348020    -0.0884010
units angstrom
no_reorient  #important for SAPT in psi4, default
symmetry c1  #important for SAPT in psi4, default
}

set PROPERTIES_ORIGIN ["COM"]
properties('MP2/aug-cc-pvtz', properties = ['dipole'])
--------------------------------------------------------------------------

    Molecular point group: c1
  Charge       = 0
  Multiplicity = 1
  Basis Set: AUG-CC-PVTZ
    Blend: AUG-CC-PVTZ
  Basis Set: (AUG-CC-PVTZ AUX)
    Blend: AUG-CC-PVTZ-JKFIT

    Orbital Energies [Eh]
    ---------------------

    Doubly Occupied:

       1A    -20.588867     2A    -11.303292     3A    -11.292232
       4A    -11.241531     5A    -11.230632     6A    -11.227352
       7A     -1.412286     8A     -1.094517     9A     -1.033156
      10A     -0.897227    11A     -0.842681    12A     -0.719988
      13A     -0.703602    14A     -0.651632    15A     -0.634425
      16A     -0.606858    17A     -0.571498    18A     -0.534108
      19A     -0.509573    20A     -0.470392    21A     -0.417315
      22A     -0.298776

  @DF-RHF Final Energy:  -267.73721477754350

   => Energetics <=

    Nuclear Repulsion Energy =            223.3721027922290148
    One-Electron Energy =                -805.6547557101657731
    Two-Electron Energy =                 314.5454381403932302
    Total Energy =                       -267.7372147775434996
  Basis Set: (AUG-CC-PVTZ AUX)
    Blend: AUG-CC-PVTZ-RI
    Molecular point group: c1

    Geometry (in Angstrom), charge = 0, multiplicity = 1:

       Center              X                  Y                   Z               Mass
    ------------   -----------------  -----------------  -----------------  -----------------
         O            0.184240580259    -1.303616088967    -0.278443721044    15.994914619570
         C           -1.047521419741    -0.799520088967     0.287575278956    12.000000000000
         C           -1.270490419741     0.631577911033    -0.099735721044    12.000000000000
         C           -0.191419419741     1.439371911033    -0.058422721044    12.000000000000
         C            1.112719580259     0.843721911033     0.185814278956    12.000000000000
         C            1.246528180259    -0.506607388967    -0.021483021044    12.000000000000
         H           -0.975098419741    -0.906666088967     1.382735278956     1.007825032230
         H           -1.824490419741    -1.469238088967    -0.083894721044     1.007825032230
         H           -2.262067419741     0.982344911033    -0.369317721044     1.007825032230
         H           -0.260013419741     2.497347911033    -0.298464721044     1.007825032230
         H            1.994046580259     1.447752911033     0.368053278956     1.007825032230
         H            2.191800580259    -1.014869088967    -0.077615721044     1.007825032230

  Basis Set: AUG-CC-PVTZ
    Blend: AUG-CC-PVTZ
  Basis Set: (AUG-CC-PVTZ AUX)
    Blend: AUG-CC-PVTZ-JKFIT
	 Reference Energy          =    -267.7372147775434996 [Eh]
	 Singles Energy            =      -0.0000000000000000 [Eh]
	 Same-Spin Energy          =      -0.2743275631563779 [Eh]
	 Opposite-Spin Energy      =      -0.8869596472831707 [Eh]
	 Correlation Energy        =      -1.1612872104395486 [Eh]
	 Total Energy              =    -268.8985019879830247 [Eh]

	 ================> DF-SCS-MP2 Energies <==================
	-----------------------------------------------------------
	 SCS Same-Spin Scale       =       0.3333333333333333 [-]
	 SCS Opposite-Spin Scale   =       1.2000000000000000 [-]
	 SCS Same-Spin Energy      =      -0.0914425210521259 [Eh]
	 SCS Opposite-Spin Energy  =      -1.0643515767398048 [Eh]
	 SCS Correlation Energy    =      -1.1557940977919308 [Eh]
	 SCS Total Energy          =    -268.8930088753354539 [Eh]
	-----------------------------------------------------------

  Dipole Moment: [D]
     X:    -0.3451      Y:     0.5559      Z:     0.4057     Total:     0.7698

*** Psi4 exiting successfully. Buy a developer a beer!
