                               Psi4 1.3.2 release

  ==> Input File <==

--------------------------------------------------------------------------
#psi4
#
memory 32 gb

molecule  {
0 1
  O        0.1973020    -1.3235490    -0.2892290
  C       -1.0344600    -0.8194530     0.2767900
  C       -1.2582612     0.5806404    -0.2104656
  C       -0.1783580     1.4194390    -0.0692080
  C        1.1257810     0.8237890     0.1750290
  C        1.2576400    -0.5068660    -0.0292480
  H       -0.9620370    -0.9265990     1.3719500
  H       -1.8114290    -1.4891710    -0.0946800
  H       -2.2490060     0.9624120    -0.3801030
  H       -0.2469520     2.4774150    -0.3092500
  H        2.0071080     1.4278200     0.3572680
  H        2.2048620    -1.0348020    -0.0884010
units angstrom
no_reorient  #important for SAPT in psi4, default
symmetry c1  #important for SAPT in psi4, default
}

set PROPERTIES_ORIGIN ["COM"]
properties('MP2/aug-cc-pvtz', properties = ['dipole'])
--------------------------------------------------------------------------

    Molecular point group: c1
  Charge       = 0
  Multiplicity = 1
  Basis Set: AUG-CC-PVTZ
    Blend: AUG-CC-PVTZ
  Basis Set: (AUG-CC-PVTZ AUX)
    Blend: AUG-CC-PVTZ-JKFIT

    Orbital Energies [Eh]
    ---------------------

    Doubly Occupied:

       1A    -20.587134     2A    -11.302061     3A    -11.291175
       4A    -11.246919     5A    -11.232363     6A    -11.226901
       7A     -1.407786     8A     -1.092627     9A     -1.034921
      10A     -0.895636    11A     -0.841324    12A     -0.719032
      13A     -0.705464    14A     -0.646698    15A     -0.635005
      16A     -0.602604    17A     -0.573928    18A     -0.533001
      19A     -0.503557    20A     -0.473722    21A     -0.415932
      22A     -0.300599

  @DF-RHF Final Energy:  -267.73254620408630

   => Energetics <=

    Nuclear Repulsion Energy =            223.3128277280727048
    One-Electron Energy =                -805.5539696876621747
    Two-Electron Energy =                 314.5085957555031086
    Total Energy =                       -267.7325462040863044
  Basis Set: (AUG-CC-PVTZ AUX)
    Blend: AUG-CC-PVTZ-RI
    Molecular point group: c1

    Geometry (in Angstrom), charge = 0, multiplicity = 1:

       Center              X                  Y                   Z               Mass
    ------------   -----------------  -----------------  -----------------  -----------------
         O            0.184647465208    -1.301958842386    -0.264266915060    15.994914619570
         C           -1.047114534792    -0.797862842386     0.301752084940    12.000000000000
         C           -1.270915734792     0.602230557614    -0.185503515060    12.000000000000
         C           -0.191012534792     1.441029157614    -0.044245915060    12.000000000000
         C            1.113126465208     0.845379157614     0.199991084940    12.000000000000
         C            1.244985465208    -0.485275842386    -0.004285915060    12.000000000000
         H           -0.974691534792    -0.905008842386     1.396912084940     1.007825032230
         H           -1.824083534792    -1.467580842386    -0.069717915060     1.007825032230
         H           -2.261660534792     0.984002157614    -0.355140915060     1.007825032230
         H           -0.259606534792     2.499005157614    -0.284287915060     1.007825032230
         H            1.994453465208     1.449410157614     0.382230084940     1.007825032230
         H            2.192207465208    -1.013211842386    -0.063438915060     1.007825032230

  Basis Set: AUG-CC-PVTZ
    Blend: AUG-CC-PVTZ
  Basis Set: (AUG-CC-PVTZ AUX)
    Blend: AUG-CC-PVTZ-JKFIT
	 Reference Energy          =    -267.7325462040863044 [Eh]
	 Singles Energy            =      -0.0000000000000000 [Eh]
	 Same-Spin Energy          =      -0.2748125544688548 [Eh]
	 Opposite-Spin Energy      =      -0.8881520555679439 [Eh]
	 Correlation Energy        =      -1.1629646100367987 [Eh]
	 Total Energy              =    -268.8955108141230994 [Eh]

	 ================> DF-SCS-MP2 Energies <==================
	-----------------------------------------------------------
	 SCS Same-Spin Scale       =       0.3333333333333333 [-]
	 SCS Opposite-Spin Scale   =       1.2000000000000000 [-]
	 SCS Same-Spin Energy      =      -0.0916041848229516 [Eh]
	 SCS Opposite-Spin Energy  =      -1.0657824666815325 [Eh]
	 SCS Correlation Energy    =      -1.1573866515044842 [Eh]
	 SCS Total Energy          =    -268.8899328555908141 [Eh]
	-----------------------------------------------------------

  Dipole Moment: [D]
     X:    -0.2946      Y:     0.6424      Z:     0.5401     Total:     0.8895

*** Psi4 exiting successfully. Buy a developer a beer!
