                               Psi4 1.3.2 release

  ==> Input File <==

--------------------------------------------------------------------------
#psi4
#
memory 32 gb

molecule  {
0 1
  O        0.1774007    -1.4119753    -0.2447834
  C       -1.0344600    -0.8194530     0.2767900
  C       -1.2574290     0.6116450    -0.1105210
  C       -0.1783580     1.4194390    -0.0692080
  C        1.1257810     0.8237890     0.1750290
  C        1.2576400    -0.5068660    -0.0292480
  H       -0.9620370    -0.9265990     1.3719500
  H       -1.8114290    -1.4891710    -0.0946800
  H       -2.2490060     0.9624120    -0.3801030
  H       -0.2469520     2.4774150    -0.3092500
  H        2.0071080     1.4278200     0.3572680
  H        2.2048620    -1.0348020    -0.0884010
units angstrom
no_reorient  #important for SAPT in psi4, default
symmetry c1  #important for SAPT in psi4, default
}

set PROPERTIES_ORIGIN ["COM"]
properties('MP2/aug-cc-pvtz', properties = ['dipole'])
--------------------------------------------------------------------------

    Molecular point group: c1
  Charge       = 0
  Multiplicity = 1
  Basis Set: AUG-CC-PVTZ
    Blend: AUG-CC-PVTZ
  Basis Set: (AUG-CC-PVTZ AUX)
    Blend: AUG-CC-PVTZ-JKFIT

    Orbital Energies [Eh]
    ---------------------

    Doubly Occupied:

       1A    -20.587334     2A    -11.305017     3A    -11.286886
       4A    -11.243993     5A    -11.234497     6A    -11.234116
       7A     -1.385771     8A     -1.100753     9A     -1.030401
      10A     -0.897432    11A     -0.840334    12A     -0.712012
      13A     -0.699968    14A     -0.645049    15A     -0.631926
      16A     -0.601491    17A     -0.572346    18A     -0.525649
      19A     -0.501289    20A     -0.474298    21A     -0.425499
      22A     -0.306573

  @DF-RHF Final Energy:  -267.73026436526806

   => Energetics <=

    Nuclear Repulsion Energy =            221.7962112233819596
    One-Electron Energy =                -802.5676796593755853
    Two-Electron Energy =                 313.0412040707255414
    Total Energy =                       -267.7302643652680558
  Basis Set: (AUG-CC-PVTZ AUX)
    Blend: AUG-CC-PVTZ-RI
    Molecular point group: c1

    Geometry (in Angstrom), charge = 0, multiplicity = 1:

       Center              X                  Y                   Z               Mass
    ------------   -----------------  -----------------  -----------------  -----------------
         O            0.168504407357    -1.377680458978    -0.243105022489    15.994914619570
         C           -1.043356292643    -0.785158158978     0.278468377511    12.000000000000
         C           -1.266325292643     0.645939841022    -0.108842622489    12.000000000000
         C           -0.187254292643     1.453733841022    -0.067529622489    12.000000000000
         C            1.116884707357     0.858083841022     0.176707377511    12.000000000000
         C            1.248743707357    -0.472571158978    -0.027569622489    12.000000000000
         H           -0.970933292643    -0.892304158978     1.373628377511     1.007825032230
         H           -1.820325292643    -1.454876158978    -0.093001622489     1.007825032230
         H           -2.257902292643     0.996706841022    -0.378424622489     1.007825032230
         H           -0.255848292643     2.511709841022    -0.307571622489     1.007825032230
         H            1.998211707357     1.462114841022     0.358946377511     1.007825032230
         H            2.195965707357    -1.000507158978    -0.086722622489     1.007825032230

  Basis Set: AUG-CC-PVTZ
    Blend: AUG-CC-PVTZ
  Basis Set: (AUG-CC-PVTZ AUX)
    Blend: AUG-CC-PVTZ-JKFIT
	 Reference Energy          =    -267.7302643652680558 [Eh]
	 Singles Energy            =      -0.0000000000000000 [Eh]
	 Same-Spin Energy          =      -0.2743653542942838 [Eh]
	 Opposite-Spin Energy      =      -0.8889658889714025 [Eh]
	 Correlation Energy        =      -1.1633312432656862 [Eh]
	 Total Energy              =    -268.8935956085337580 [Eh]

	 ================> DF-SCS-MP2 Energies <==================
	-----------------------------------------------------------
	 SCS Same-Spin Scale       =       0.3333333333333333 [-]
	 SCS Opposite-Spin Scale   =       1.2000000000000000 [-]
	 SCS Same-Spin Energy      =      -0.0914551180980946 [Eh]
	 SCS Opposite-Spin Energy  =      -1.0667590667656830 [Eh]
	 SCS Correlation Energy    =      -1.1582141848637777 [Eh]
	 SCS Total Energy          =    -268.8884785501318220 [Eh]
	-----------------------------------------------------------

  Dipole Moment: [D]
     X:    -0.1974      Y:     0.9477      Z:     0.3795     Total:     1.0397

*** Psi4 exiting successfully. Buy a developer a beer!
