                               Psi4 1.3.2 release

  ==> Input File <==

--------------------------------------------------------------------------
#psi4
#
memory 32 gb

molecule  {
0 1
  O        0.1973020    -1.3235490    -0.2892290
  C       -1.0344600    -0.8194530     0.2767900
  C       -1.2574290     0.6116450    -0.1105210
  C       -0.1385780     1.5088928    -0.0423611
  C        1.1257810     0.8237890     0.1750290
  C        1.2576400    -0.5068660    -0.0292480
  H       -0.9620370    -0.9265990     1.3719500
  H       -1.8114290    -1.4891710    -0.0946800
  H       -2.2490060     0.9624120    -0.3801030
  H       -0.2469520     2.4774150    -0.3092500
  H        2.0071080     1.4278200     0.3572680
  H        2.2048620    -1.0348020    -0.0884010
units angstrom
no_reorient  #important for SAPT in psi4, default
symmetry c1  #important for SAPT in psi4, default
}

set PROPERTIES_ORIGIN ["COM"]
properties('MP2/aug-cc-pvtz', properties = ['dipole'])
--------------------------------------------------------------------------

    Molecular point group: c1
  Charge       = 0
  Multiplicity = 1
  Basis Set: AUG-CC-PVTZ
    Blend: AUG-CC-PVTZ
  Basis Set: (AUG-CC-PVTZ AUX)
    Blend: AUG-CC-PVTZ-JKFIT

    Orbital Energies [Eh]
    ---------------------

    Doubly Occupied:

       1A    -20.587447     2A    -11.301748     3A    -11.293734
       4A    -11.248063     5A    -11.245021     6A    -11.228359
       7A     -1.407284     8A     -1.086077     9A     -1.032546
      10A     -0.898346    11A     -0.843382    12A     -0.726406
      13A     -0.704024    14A     -0.650003    15A     -0.633185
      16A     -0.609416    17A     -0.578246    18A     -0.531250
      19A     -0.497983    20A     -0.479551    21A     -0.411630
      22A     -0.293192

  @DF-RHF Final Energy:  -267.72066779152055

   => Energetics <=

    Nuclear Repulsion Energy =            222.0564113614601354
    One-Electron Energy =                -802.9803721932429426
    Two-Electron Energy =                 313.2032930402622242
    Total Energy =                       -267.7206677915205546
  Basis Set: (AUG-CC-PVTZ AUX)
    Blend: AUG-CC-PVTZ-RI
    Molecular point group: c1

    Geometry (in Angstrom), charge = 0, multiplicity = 1:

       Center              X                  Y                   Z               Mass
    ------------   -----------------  -----------------  -----------------  -----------------
         O            0.178707249184    -1.319577905571    -0.282812300437    15.994914619570
         C           -1.053054750816    -0.815481905571     0.283206699563    12.000000000000
         C           -1.276023750816     0.615616094429    -0.104104300437    12.000000000000
         C           -0.157172750816     1.512863894429    -0.035944400437    12.000000000000
         C            1.107186249184     0.827760094429     0.181445699563    12.000000000000
         C            1.239045249184    -0.502894905571    -0.022831300437    12.000000000000
         H           -0.980631750816    -0.922627905571     1.378366699563     1.007825032230
         H           -1.830023750816    -1.485199905571    -0.088263300437     1.007825032230
         H           -2.267600750816     0.966383094429    -0.373686300437     1.007825032230
         H           -0.265546750816     2.481386094429    -0.302833300437     1.007825032230
         H            1.988513249184     1.431791094429     0.363684699563     1.007825032230
         H            2.186267249184    -1.030830905571    -0.081984300437     1.007825032230

  Basis Set: AUG-CC-PVTZ
    Blend: AUG-CC-PVTZ
  Basis Set: (AUG-CC-PVTZ AUX)
    Blend: AUG-CC-PVTZ-JKFIT
	 Reference Energy          =    -267.7206677915205546 [Eh]
	 Singles Energy            =      -0.0000000000000000 [Eh]
	 Same-Spin Energy          =      -0.2753398360009685 [Eh]
	 Opposite-Spin Energy      =      -0.8898787595779375 [Eh]
	 Correlation Energy        =      -1.1652185955789061 [Eh]
	 Total Energy              =    -268.8858863870994469 [Eh]

	 ================> DF-SCS-MP2 Energies <==================
	-----------------------------------------------------------
	 SCS Same-Spin Scale       =       0.3333333333333333 [-]
	 SCS Opposite-Spin Scale   =       1.2000000000000000 [-]
	 SCS Same-Spin Energy      =      -0.0917799453336562 [Eh]
	 SCS Opposite-Spin Energy  =      -1.0678545114935249 [Eh]
	 SCS Correlation Energy    =      -1.1596344568271810 [Eh]
	 SCS Total Energy          =    -268.8803022483477321 [Eh]
	-----------------------------------------------------------

  Dipole Moment: [D]
     X:    -0.3344      Y:     0.6100      Z:     0.3838     Total:     0.7945

*** Psi4 exiting successfully. Buy a developer a beer!
