                               Psi4 1.3.2 release

  ==> Input File <==

--------------------------------------------------------------------------
#psi4
#
memory 32 gb

molecule  {
0 1
  O        0.1973020    -1.3235490    -0.2892290
  C       -1.0344600    -0.8194530     0.2767900
  C       -1.2574290     0.6116450    -0.1105210
  C       -0.0983419     1.4793392    -0.0661445
  C        1.1257810     0.8237890     0.1750290
  C        1.2576400    -0.5068660    -0.0292480
  H       -0.9620370    -0.9265990     1.3719500
  H       -1.8114290    -1.4891710    -0.0946800
  H       -2.2490060     0.9624120    -0.3801030
  H       -0.2469520     2.4774150    -0.3092500
  H        2.0071080     1.4278200     0.3572680
  H        2.2048620    -1.0348020    -0.0884010
units angstrom
no_reorient  #important for SAPT in psi4, default
symmetry c1  #important for SAPT in psi4, default
}

set PROPERTIES_ORIGIN ["COM"]
properties('MP2/aug-cc-pvtz', properties = ['dipole'])
--------------------------------------------------------------------------

    Molecular point group: c1
  Charge       = 0
  Multiplicity = 1
  Basis Set: AUG-CC-PVTZ
    Blend: AUG-CC-PVTZ
  Basis Set: (AUG-CC-PVTZ AUX)
    Blend: AUG-CC-PVTZ-JKFIT

    Orbital Energies [Eh]
    ---------------------

    Doubly Occupied:

       1A    -20.588977     2A    -11.304303     3A    -11.292544
       4A    -11.248461     5A    -11.243736     6A    -11.225831
       7A     -1.408553     8A     -1.092115     9A     -1.032781
      10A     -0.894309    11A     -0.847568    12A     -0.724297
      13A     -0.704408    14A     -0.653439    15A     -0.633059
      16A     -0.604738    17A     -0.579923    18A     -0.534611
      19A     -0.498639    20A     -0.478556    21A     -0.415762
      22A     -0.288201

  @DF-RHF Final Energy:  -267.71949782071755

   => Energetics <=

    Nuclear Repulsion Energy =            222.5879344924802865
    One-Electron Energy =                -804.0252419551954972
    Two-Electron Energy =                 313.7178096419976896
    Total Energy =                       -267.7194978207175495
  Basis Set: (AUG-CC-PVTZ AUX)
    Blend: AUG-CC-PVTZ-RI
    Molecular point group: c1

    Geometry (in Angstrom), charge = 0, multiplicity = 1:

       Center              X                  Y                   Z               Mass
    ------------   -----------------  -----------------  -----------------  -----------------
         O            0.172822044099    -1.315255195443    -0.279333578925    15.994914619570
         C           -1.058939955901    -0.811159195443     0.286685421075    12.000000000000
         C           -1.281908955901     0.619938804557    -0.100625578925    12.000000000000
         C           -0.122821855901     1.487633004557    -0.056249078925    12.000000000000
         C            1.101301044099     0.832082804557     0.184924421075    12.000000000000
         C            1.233160044099    -0.498572195443    -0.019352578925    12.000000000000
         H           -0.986516955901    -0.918305195443     1.381845421075     1.007825032230
         H           -1.835908955901    -1.480877195443    -0.084784578925     1.007825032230
         H           -2.273485955901     0.970705804557    -0.370207578925     1.007825032230
         H           -0.271431955901     2.485708804557    -0.299354578925     1.007825032230
         H            1.982628044099     1.436113804557     0.367163421075     1.007825032230
         H            2.180382044099    -1.026508195443    -0.078505578925     1.007825032230

  Basis Set: AUG-CC-PVTZ
    Blend: AUG-CC-PVTZ
  Basis Set: (AUG-CC-PVTZ AUX)
    Blend: AUG-CC-PVTZ-JKFIT
	 Reference Energy          =    -267.7194978207175495 [Eh]
	 Singles Energy            =      -0.0000000000000000 [Eh]
	 Same-Spin Energy          =      -0.2763977176433375 [Eh]
	 Opposite-Spin Energy      =      -0.8907367664453445 [Eh]
	 Correlation Energy        =      -1.1671344840886819 [Eh]
	 Total Energy              =    -268.8866323048062554 [Eh]

	 ================> DF-SCS-MP2 Energies <==================
	-----------------------------------------------------------
	 SCS Same-Spin Scale       =       0.3333333333333333 [-]
	 SCS Opposite-Spin Scale   =       1.2000000000000000 [-]
	 SCS Same-Spin Energy      =      -0.0921325725477792 [Eh]
	 SCS Opposite-Spin Energy  =      -1.0688841197344134 [Eh]
	 SCS Correlation Energy    =      -1.1610166922821925 [Eh]
	 SCS Total Energy          =    -268.8805145129997527 [Eh]
	-----------------------------------------------------------

  Dipole Moment: [D]
     X:    -0.2748      Y:     0.5996      Z:     0.4082     Total:     0.7757

*** Psi4 exiting successfully. Buy a developer a beer!
