                               Psi4 1.3.2 release

  ==> Input File <==

--------------------------------------------------------------------------
#psi4
#
memory 32 gb

molecule  {
0 1
  O        0.1685468    -1.2857371    -0.2863739
  C       -1.0344600    -0.8194530     0.2767900
  C       -1.2574290     0.6116450    -0.1105210
  C       -0.1783580     1.4194390    -0.0692080
  C        1.1257810     0.8237890     0.1750290
  C        1.2576400    -0.5068660    -0.0292480
  H       -0.9620370    -0.9265990     1.3719500
  H       -1.8114290    -1.4891710    -0.0946800
  H       -2.2490060     0.9624120    -0.3801030
  H       -0.2469520     2.4774150    -0.3092500
  H        2.0071080     1.4278200     0.3572680
  H        2.2048620    -1.0348020    -0.0884010
units angstrom
no_reorient  #important for SAPT in psi4, default
symmetry c1  #important for SAPT in psi4, default
}

set PROPERTIES_ORIGIN ["COM"]
properties('MP2/aug-cc-pvtz', properties = ['dipole'])
--------------------------------------------------------------------------

    Molecular point group: c1
  Charge       = 0
  Multiplicity = 1
  Basis Set: AUG-CC-PVTZ
    Blend: AUG-CC-PVTZ
  Basis Set: (AUG-CC-PVTZ AUX)
    Blend: AUG-CC-PVTZ-JKFIT

    Orbital Energies [Eh]
    ---------------------

    Doubly Occupied:

       1A    -20.584634     2A    -11.300828     3A    -11.287681
       4A    -11.240287     5A    -11.230364     6A    -11.226620
       7A     -1.416866     8A     -1.094716     9A     -1.038348
      10A     -0.897037    11A     -0.842663    12A     -0.721489
      13A     -0.704933    14A     -0.654104    15A     -0.635931
      16A     -0.604443    17A     -0.576949    18A     -0.533277
      19A     -0.503789    20A     -0.467842    21A     -0.417161
      22A     -0.302363

  @DF-RHF Final Energy:  -267.73865026926302

   => Energetics <=

    Nuclear Repulsion Energy =            224.4923635329027718
    One-Electron Energy =                -807.8973816503180387
    Two-Electron Energy =                 315.6663678481522197
    Total Energy =                       -267.7386502692630188
  Basis Set: (AUG-CC-PVTZ AUX)
    Blend: AUG-CC-PVTZ-RI
    Molecular point group: c1

    Geometry (in Angstrom), charge = 0, multiplicity = 1:

       Center              X                  Y                   Z               Mass
    ------------   -----------------  -----------------  -----------------  -----------------
         O            0.161376667226    -1.276053708698    -0.276587022054    15.994914619570
         C           -1.041630132774    -0.809769608698     0.286576877946    12.000000000000
         C           -1.264599132774     0.621328391302    -0.100734122054    12.000000000000
         C           -0.185528132774     1.429122391302    -0.059421122054    12.000000000000
         C            1.118610867226     0.833472391302     0.184815877946    12.000000000000
         C            1.250469867226    -0.497182608698    -0.019461122054    12.000000000000
         H           -0.969207132774    -0.916915608698     1.381736877946     1.007825032230
         H           -1.818599132774    -1.479487608698    -0.084893122054     1.007825032230
         H           -2.256176132774     0.972095391302    -0.370316122054     1.007825032230
         H           -0.254122132774     2.487098391302    -0.299463122054     1.007825032230
         H            1.999937867226     1.437503391302     0.367054877946     1.007825032230
         H            2.197691867226    -1.025118608698    -0.078614122054     1.007825032230

  Basis Set: AUG-CC-PVTZ
    Blend: AUG-CC-PVTZ
  Basis Set: (AUG-CC-PVTZ AUX)
    Blend: AUG-CC-PVTZ-JKFIT
	 Reference Energy          =    -267.7386502692630188 [Eh]
	 Singles Energy            =      -0.0000000000000000 [Eh]
	 Same-Spin Energy          =      -0.2739301642606327 [Eh]
	 Opposite-Spin Energy      =      -0.8857617268933615 [Eh]
	 Correlation Energy        =      -1.1596918911539942 [Eh]
	 Total Energy              =    -268.8983421604170303 [Eh]

	 ================> DF-SCS-MP2 Energies <==================
	-----------------------------------------------------------
	 SCS Same-Spin Scale       =       0.3333333333333333 [-]
	 SCS Opposite-Spin Scale   =       1.2000000000000000 [-]
	 SCS Same-Spin Energy      =      -0.0913100547535442 [Eh]
	 SCS Opposite-Spin Energy  =      -1.0629140722720338 [Eh]
	 SCS Correlation Energy    =      -1.1542241270255780 [Eh]
	 SCS Total Energy          =    -268.8928743962886188 [Eh]
	-----------------------------------------------------------

  Dipole Moment: [D]
     X:    -0.2346      Y:     0.5622      Z:     0.3886     Total:     0.7225

*** Psi4 exiting successfully. Buy a developer a beer!
