                               Psi4 1.3.2 release

  ==> Input File <==

--------------------------------------------------------------------------
#psi4
#
memory 32 gb

molecule  {
0 1
  O        0.1973020    -1.3235490    -0.2892290
  C       -1.0344600    -0.8194530     0.2767900
  C       -1.2574290     0.6116450    -0.1105210
  C       -0.1783580     1.4194390    -0.0692080
  C        1.1257810     0.8237890     0.1750290
  C        1.3508131    -0.4959177    -0.0186029
  H       -0.9620370    -0.9265990     1.3719500
  H       -1.8114290    -1.4891710    -0.0946800
  H       -2.2490060     0.9624120    -0.3801030
  H       -0.2469520     2.4774150    -0.3092500
  H        2.0071080     1.4278200     0.3572680
  H        2.2048620    -1.0348020    -0.0884010
units angstrom
no_reorient  #important for SAPT in psi4, default
symmetry c1  #important for SAPT in psi4, default
}

set PROPERTIES_ORIGIN ["COM"]
properties('MP2/aug-cc-pvtz', properties = ['dipole'])
--------------------------------------------------------------------------

    Molecular point group: c1
  Charge       = 0
  Multiplicity = 1
  Basis Set: AUG-CC-PVTZ
    Blend: AUG-CC-PVTZ
  Basis Set: (AUG-CC-PVTZ AUX)
    Blend: AUG-CC-PVTZ-JKFIT

    Orbital Energies [Eh]
    ---------------------

    Doubly Occupied:

       1A    -20.573360     2A    -11.296747     3A    -11.286825
       4A    -11.243339     5A    -11.236292     6A    -11.234681
       7A     -1.370848     8A     -1.095151     9A     -1.035105
      10A     -0.895291    11A     -0.845233    12A     -0.723509
      13A     -0.699126    14A     -0.637351    15A     -0.628063
      16A     -0.608375    17A     -0.568406    18A     -0.533059
      19A     -0.492725    20A     -0.469046    21A     -0.419352
      22A     -0.308171

  @DF-RHF Final Energy:  -267.72629967630729

   => Energetics <=

    Nuclear Repulsion Energy =            221.9344301296722790
    One-Electron Energy =                -802.9213529373712390
    Two-Electron Energy =                 313.2606231313916965
    Total Energy =                       -267.7262996763072920
  Basis Set: (AUG-CC-PVTZ AUX)
    Blend: AUG-CC-PVTZ-RI
    Molecular point group: c1

    Geometry (in Angstrom), charge = 0, multiplicity = 1:

       Center              X                  Y                   Z               Mass
    ------------   -----------------  -----------------  -----------------  -----------------
         O            0.170897611977    -1.308095158292    -0.280442515201    15.994914619570
         C           -1.060864388023    -0.803999158292     0.285576484799    12.000000000000
         C           -1.283833388023     0.627098841708    -0.101734515201    12.000000000000
         C           -0.204762388023     1.434892841708    -0.060421515201    12.000000000000
         C            1.099376611977     0.839242841708     0.183815484799    12.000000000000
         C            1.324408711977    -0.480463858292    -0.009816415201    12.000000000000
         H           -0.988441388023    -0.911145158292     1.380736484799     1.007825032230
         H           -1.837833388023    -1.473717158292    -0.085893515201     1.007825032230
         H           -2.275410388023     0.977865841708    -0.371316515201     1.007825032230
         H           -0.273356388023     2.492868841708    -0.300463515201     1.007825032230
         H            1.980703611977     1.443273841708     0.366054484799     1.007825032230
         H            2.178457611977    -1.019348158292    -0.079614515201     1.007825032230

  Basis Set: AUG-CC-PVTZ
    Blend: AUG-CC-PVTZ
  Basis Set: (AUG-CC-PVTZ AUX)
    Blend: AUG-CC-PVTZ-JKFIT
	 Reference Energy          =    -267.7262996763072920 [Eh]
	 Singles Energy            =      -0.0000000000000000 [Eh]
	 Same-Spin Energy          =      -0.2739392244195327 [Eh]
	 Opposite-Spin Energy      =      -0.8884291690669863 [Eh]
	 Correlation Energy        =      -1.1623683934865190 [Eh]
	 Total Energy              =    -268.8886680697938232 [Eh]

	 ================> DF-SCS-MP2 Energies <==================
	-----------------------------------------------------------
	 SCS Same-Spin Scale       =       0.3333333333333333 [-]
	 SCS Opposite-Spin Scale   =       1.2000000000000000 [-]
	 SCS Same-Spin Energy      =      -0.0913130748065109 [Eh]
	 SCS Opposite-Spin Energy  =      -1.0661150028803836 [Eh]
	 SCS Correlation Energy    =      -1.1574280776868946 [Eh]
	 SCS Total Energy          =    -268.8837277539942079 [Eh]
	-----------------------------------------------------------

  Dipole Moment: [D]
     X:    -0.1687      Y:     0.8630      Z:     0.4575     Total:     0.9912

*** Psi4 exiting successfully. Buy a developer a beer!
