                               Psi4 1.3.2 release

  ==> Input File <==

--------------------------------------------------------------------------
#psi4
#
memory 32 gb

molecule  {
0 1
  O        0.1973020    -1.3235490    -0.2892290
  C       -1.0344600    -0.8194530     0.2767900
  C       -1.2706497     0.6299834    -0.1170701
  C       -0.1783580     1.4194390    -0.0692080
  C        1.1257810     0.8237890     0.1750290
  C        1.2576400    -0.5068660    -0.0292480
  H       -0.9620370    -0.9265990     1.3719500
  H       -1.8114290    -1.4891710    -0.0946800
  H       -2.2490060     0.9624120    -0.3801030
  H       -0.2469520     2.4774150    -0.3092500
  H        2.0071080     1.4278200     0.3572680
  H        2.2048620    -1.0348020    -0.0884010
units angstrom
no_reorient  #important for SAPT in psi4, default
symmetry c1  #important for SAPT in psi4, default
}

set PROPERTIES_ORIGIN ["COM"]
properties('MP2/aug-cc-pvtz', properties = ['dipole'])
--------------------------------------------------------------------------

    Molecular point group: c1
  Charge       = 0
  Multiplicity = 1
  Basis Set: AUG-CC-PVTZ
    Blend: AUG-CC-PVTZ
  Basis Set: (AUG-CC-PVTZ AUX)
    Blend: AUG-CC-PVTZ-JKFIT

    Orbital Energies [Eh]
    ---------------------

    Doubly Occupied:

       1A    -20.587426     2A    -11.301329     3A    -11.291793
       4A    -11.241917     5A    -11.230875     6A    -11.226569
       7A     -1.407098     8A     -1.095173     9A     -1.032867
      10A     -0.897968    11A     -0.841171    12A     -0.717384
      13A     -0.705436    14A     -0.649017    15A     -0.634072
      16A     -0.606352    17A     -0.569815    18A     -0.534057
      19A     -0.508164    20A     -0.469170    21A     -0.418933
      22A     -0.302806

  @DF-RHF Final Energy:  -267.73777069783108

   => Energetics <=

    Nuclear Repulsion Energy =            223.1664077114677696
    One-Electron Energy =                -805.2695742550538398
    Two-Electron Energy =                 314.3653958457550175
    Total Energy =                       -267.7377706978310812
  Basis Set: (AUG-CC-PVTZ AUX)
    Blend: AUG-CC-PVTZ-RI
    Molecular point group: c1

    Geometry (in Angstrom), charge = 0, multiplicity = 1:

       Center              X                  Y                   Z               Mass
    ------------   -----------------  -----------------  -----------------  -----------------
         O            0.186459491304    -1.309176084477    -0.277927574804    15.994914619570
         C           -1.045302508696    -0.805080084477     0.288091425196    12.000000000000
         C           -1.281492208696     0.644356315523    -0.105768674804    12.000000000000
         C           -0.189200508696     1.433811915523    -0.057906574804    12.000000000000
         C            1.114938491304     0.838161915523     0.186330425196    12.000000000000
         C            1.246797491304    -0.492493084477    -0.017946574804    12.000000000000
         H           -0.972879508696    -0.912226084477     1.383251425196     1.007825032230
         H           -1.822271508696    -1.474798084477    -0.083378574804     1.007825032230
         H           -2.259848508696     0.976784915523    -0.368801574804     1.007825032230
         H           -0.257794508696     2.491787915523    -0.297948574804     1.007825032230
         H            1.996265491304     1.442192915523     0.368569425196     1.007825032230
         H            2.194019491304    -1.020429084477    -0.077099574804     1.007825032230

  Basis Set: AUG-CC-PVTZ
    Blend: AUG-CC-PVTZ
  Basis Set: (AUG-CC-PVTZ AUX)
    Blend: AUG-CC-PVTZ-JKFIT
	 Reference Energy          =    -267.7377706978310812 [Eh]
	 Singles Energy            =      -0.0000000000000000 [Eh]
	 Same-Spin Energy          =      -0.2739358135411338 [Eh]
	 Opposite-Spin Energy      =      -0.8866573948529961 [Eh]
	 Correlation Energy        =      -1.1605932083941299 [Eh]
	 Total Energy              =    -268.8983639062251996 [Eh]

	 ================> DF-SCS-MP2 Energies <==================
	-----------------------------------------------------------
	 SCS Same-Spin Scale       =       0.3333333333333333 [-]
	 SCS Opposite-Spin Scale   =       1.2000000000000000 [-]
	 SCS Same-Spin Energy      =      -0.0913119378470446 [Eh]
	 SCS Opposite-Spin Energy  =      -1.0639888738235952 [Eh]
	 SCS Correlation Energy    =      -1.1553008116706398 [Eh]
	 SCS Total Energy          =    -268.8930715095017376 [Eh]
	-----------------------------------------------------------

  Dipole Moment: [D]
     X:    -0.3252      Y:     0.6156      Z:     0.4189     Total:     0.8125

*** Psi4 exiting successfully. Buy a developer a beer!
