                               Psi4 1.3.2 release

  ==> Input File <==

--------------------------------------------------------------------------
#psi4
#
memory 32 gb

molecule  {
0 1
  O        0.1973020    -1.3235490    -0.2892290
  C       -1.0344600    -0.8194530     0.2767900
  C       -1.2574290     0.6116450    -0.1105210
  C       -0.1783580     1.4194390    -0.0692080
  C        1.1257810     0.8237890     0.1750290
  C        1.2576400    -0.5068660    -0.0292480
  H       -0.9554696    -0.9363151     1.4712600
  H       -1.8114290    -1.4891710    -0.0946800
  H       -2.2490060     0.9624120    -0.3801030
  H       -0.2469520     2.4774150    -0.3092500
  H        2.0071080     1.4278200     0.3572680
  H        2.2048620    -1.0348020    -0.0884010
units angstrom
no_reorient  #important for SAPT in psi4, default
symmetry c1  #important for SAPT in psi4, default
}

set PROPERTIES_ORIGIN ["COM"]
properties('MP2/aug-cc-pvtz', properties = ['dipole'])
--------------------------------------------------------------------------

    Molecular point group: c1
  Charge       = 0
  Multiplicity = 1
  Basis Set: AUG-CC-PVTZ
    Blend: AUG-CC-PVTZ
  Basis Set: (AUG-CC-PVTZ AUX)
    Blend: AUG-CC-PVTZ-JKFIT

    Orbital Energies [Eh]
    ---------------------

    Doubly Occupied:

       1A    -20.589344     2A    -11.302556     3A    -11.301687
       4A    -11.242595     5A    -11.232551     6A    -11.227172
       7A     -1.408549     8A     -1.096973     9A     -1.032983
      10A     -0.894090    11A     -0.841645    12A     -0.718620
      13A     -0.694359    14A     -0.650793    15A     -0.630822
      16A     -0.606529    17A     -0.572844    18A     -0.528428
      19A     -0.504940    20A     -0.468359    21A     -0.419451
      22A     -0.302599

  @DF-RHF Final Energy:  -267.73151088815803

   => Energetics <=

    Nuclear Repulsion Energy =            223.0531413514817132
    One-Electron Energy =                -805.0335229724576038
    Two-Electron Energy =                 314.2488707328178634
    Total Energy =                       -267.7315108881580272
  Basis Set: (AUG-CC-PVTZ AUX)
    Blend: AUG-CC-PVTZ-RI
    Molecular point group: c1

    Geometry (in Angstrom), charge = 0, multiplicity = 1:

       Center              X                  Y                   Z               Mass
    ------------   -----------------  -----------------  -----------------  -----------------
         O            0.184445066224    -1.306374430355    -0.280105442218    15.994914619570
         C           -1.047316933776    -0.802278430355     0.285913557782    12.000000000000
         C           -1.270285933776     0.628819569645    -0.101397442218    12.000000000000
         C           -0.191214933776     1.436613569645    -0.060084442218    12.000000000000
         C            1.112924066224     0.840963569645     0.184152557782    12.000000000000
         C            1.244783066224    -0.489691430355    -0.020124442218    12.000000000000
         H           -0.968326533776    -0.919140530355     1.480383557782     1.007825032230
         H           -1.824285933776    -1.471996430355    -0.085556442218     1.007825032230
         H           -2.261862933776     0.979586569645    -0.370979442218     1.007825032230
         H           -0.259808933776     2.494589569645    -0.300126442218     1.007825032230
         H            1.994251066224     1.444994569645     0.366391557782     1.007825032230
         H            2.192005066224    -1.017627430355    -0.079277442218     1.007825032230

  Basis Set: AUG-CC-PVTZ
    Blend: AUG-CC-PVTZ
  Basis Set: (AUG-CC-PVTZ AUX)
    Blend: AUG-CC-PVTZ-JKFIT
	 Reference Energy          =    -267.7315108881580272 [Eh]
	 Singles Energy            =      -0.0000000000000000 [Eh]
	 Same-Spin Energy          =      -0.2744170143348432 [Eh]
	 Opposite-Spin Energy      =      -0.8876792781718512 [Eh]
	 Correlation Energy        =      -1.1620962925066944 [Eh]
	 Total Energy              =    -268.8936071806647305 [Eh]

	 ================> DF-SCS-MP2 Energies <==================
	-----------------------------------------------------------
	 SCS Same-Spin Scale       =       0.3333333333333333 [-]
	 SCS Opposite-Spin Scale   =       1.2000000000000000 [-]
	 SCS Same-Spin Energy      =      -0.0914723381116144 [Eh]
	 SCS Opposite-Spin Energy  =      -1.0652151338062215 [Eh]
	 SCS Correlation Energy    =      -1.1566874719178359 [Eh]
	 SCS Total Energy          =    -268.8881983600758758 [Eh]
	-----------------------------------------------------------

  Dipole Moment: [D]
     X:    -0.2862      Y:     0.6734      Z:     0.3235     Total:     0.8000

*** Psi4 exiting successfully. Buy a developer a beer!
