                               Psi4 1.3.2 release

  ==> Input File <==

--------------------------------------------------------------------------
#psi4
#
memory 32 gb

molecule  {
0 1
  O        0.1973020    -1.3235490    -0.2892290
  C       -1.0344600    -0.8194530     0.2767900
  C       -1.2574290     0.6116450    -0.1105210
  C       -0.1783580     1.4194390    -0.0692080
  C        1.1257810     0.8237890     0.1750290
  C        1.2576400    -0.5068660    -0.0292480
  H       -0.9620370    -0.9265990     1.3719500
  H       -1.8114290    -1.4891710    -0.0946800
  H       -2.2490060     0.9624120    -0.3801030
  H       -0.2469520     2.4774150    -0.3092500
  H        1.8444840     1.3163631     0.3236409
  H        2.2048620    -1.0348020    -0.0884010
units angstrom
no_reorient  #important for SAPT in psi4, default
symmetry c1  #important for SAPT in psi4, default
}

set PROPERTIES_ORIGIN ["COM"]
properties('MP2/aug-cc-pvtz', properties = ['dipole'])
--------------------------------------------------------------------------

    Molecular point group: c1
  Charge       = 0
  Multiplicity = 1
  Basis Set: AUG-CC-PVTZ
    Blend: AUG-CC-PVTZ
  Basis Set: (AUG-CC-PVTZ AUX)
    Blend: AUG-CC-PVTZ-JKFIT

    Orbital Energies [Eh]
    ---------------------

    Doubly Occupied:

       1A    -20.586350     2A    -11.300427     3A    -11.290526
       4A    -11.240069     5A    -11.230224     6A    -11.202590
       7A     -1.406650     8A     -1.100030     9A     -1.039845
      10A     -0.904463    11A     -0.847599    12A     -0.732488
      13A     -0.711436    14A     -0.657748    15A     -0.640589
      16A     -0.606787    17A     -0.576105    18A     -0.536378
      19A     -0.512111    20A     -0.470502    21A     -0.418177
      22A     -0.301769

  @DF-RHF Final Energy:  -267.70244230346634

   => Energetics <=

    Nuclear Repulsion Energy =            224.6049664459366397
    One-Electron Energy =                -807.9890902279672673
    Two-Electron Energy =                 315.6816814785643146
    Total Energy =                       -267.7024423034663414
  Basis Set: (AUG-CC-PVTZ AUX)
    Blend: AUG-CC-PVTZ-RI
    Molecular point group: c1

    Geometry (in Angstrom), charge = 0, multiplicity = 1:

       Center              X                  Y                   Z               Mass
    ------------   -----------------  -----------------  -----------------  -----------------
         O            0.186523460329    -1.305124618137    -0.278472405995    15.994914619570
         C           -1.045238539671    -0.801028618137     0.287546594005    12.000000000000
         C           -1.268207539671     0.630069381863    -0.099764405995    12.000000000000
         C           -0.189136539671     1.437863381863    -0.058451405995    12.000000000000
         C            1.115002460329     0.842213381863     0.185785594005    12.000000000000
         C            1.246861460329    -0.488441618137    -0.018491405995    12.000000000000
         H           -0.972815539671    -0.908174618137     1.382706594005     1.007825032230
         H           -1.822207539671    -1.470746618137    -0.083923405995     1.007825032230
         H           -2.259784539671     0.980836381863    -0.369346405995     1.007825032230
         H           -0.257730539671     2.495839381863    -0.298493405995     1.007825032230
         H            1.833705460329     1.334787481863     0.334397494005     1.007825032230
         H            2.194083460329    -1.016377618137    -0.077644405995     1.007825032230

  Basis Set: AUG-CC-PVTZ
    Blend: AUG-CC-PVTZ
  Basis Set: (AUG-CC-PVTZ AUX)
    Blend: AUG-CC-PVTZ-JKFIT
	 Reference Energy          =    -267.7024423034663414 [Eh]
	 Singles Energy            =      -0.0000000000000000 [Eh]
	 Same-Spin Energy          =      -0.2740249693789687 [Eh]
	 Opposite-Spin Energy      =      -0.8864735395074179 [Eh]
	 Correlation Energy        =      -1.1604985088863866 [Eh]
	 Total Energy              =    -268.8629408123527469 [Eh]

	 ================> DF-SCS-MP2 Energies <==================
	-----------------------------------------------------------
	 SCS Same-Spin Scale       =       0.3333333333333333 [-]
	 SCS Opposite-Spin Scale   =       1.2000000000000000 [-]
	 SCS Same-Spin Energy      =      -0.0913416564596562 [Eh]
	 SCS Opposite-Spin Energy  =      -1.0637682474089014 [Eh]
	 SCS Correlation Energy    =      -1.1551099038685577 [Eh]
	 SCS Total Energy          =    -268.8575522073348907 [Eh]
	-----------------------------------------------------------

  Dipole Moment: [D]
     X:    -0.2907      Y:     0.6123      Z:     0.4211     Total:     0.7979

*** Psi4 exiting successfully. Buy a developer a beer!
