                               Psi4 1.3.2 release

  ==> Input File <==

--------------------------------------------------------------------------
#psi4
#
memory 32 gb

molecule  {
0 1
  O        0.1681964    -1.2864890    -0.2825826
  C       -1.0344600    -0.8194530     0.2767900
  C       -1.2574290     0.6116450    -0.1105210
  C       -0.1783580     1.4194390    -0.0692080
  C        1.1257810     0.8237890     0.1750290
  C        1.2576400    -0.5068660    -0.0292480
  H       -0.9620370    -0.9265990     1.3719500
  H       -1.8114290    -1.4891710    -0.0946800
  H       -2.2490060     0.9624120    -0.3801030
  H       -0.2469520     2.4774150    -0.3092500
  H        2.0071080     1.4278200     0.3572680
  H        2.2048620    -1.0348020    -0.0884010
units angstrom
no_reorient  #important for SAPT in psi4, default
symmetry c1  #important for SAPT in psi4, default
}

set PROPERTIES_ORIGIN ["COM"]
properties('MP2/aug-cc-pvtz', properties = ['dipole'])
--------------------------------------------------------------------------

    Molecular point group: c1
  Charge       = 0
  Multiplicity = 1
  Basis Set: AUG-CC-PVTZ
    Blend: AUG-CC-PVTZ
  Basis Set: (AUG-CC-PVTZ AUX)
    Blend: AUG-CC-PVTZ-JKFIT

    Orbital Energies [Eh]
    ---------------------

    Doubly Occupied:

       1A    -20.584639     2A    -11.300936     3A    -11.287511
       4A    -11.240301     5A    -11.230328     6A    -11.226629
       7A     -1.417319     8A     -1.094731     9A     -1.038490
      10A     -0.897015    11A     -0.842869    12A     -0.721573
      13A     -0.704844    14A     -0.654375    15A     -0.636250
      16A     -0.604430    17A     -0.577137    18A     -0.533094
      19A     -0.503615    20A     -0.467885    21A     -0.417273
      22A     -0.302262

  @DF-RHF Final Energy:  -267.73865165302567

   => Energetics <=

    Nuclear Repulsion Energy =            224.5137754293180876
    One-Electron Energy =                -807.9378423358775763
    Two-Electron Energy =                 315.6854152535337903
    Total Energy =                       -267.7386516530256699
  Basis Set: (AUG-CC-PVTZ AUX)
    Blend: AUG-CC-PVTZ-RI
    Molecular point group: c1

    Geometry (in Angstrom), charge = 0, multiplicity = 1:

       Center              X                  Y                   Z               Mass
    ------------   -----------------  -----------------  -----------------  -----------------
         O            0.161094581349    -1.276659017974    -0.273534875411    15.994914619570
         C           -1.041561818651    -0.809623017974     0.285837724589    12.000000000000
         C           -1.264530818651     0.621474982026    -0.101473275411    12.000000000000
         C           -0.185459818651     1.429268982026    -0.060160275411    12.000000000000
         C            1.118679181349     0.833618982026     0.184076724589    12.000000000000
         C            1.250538181349    -0.497036017974    -0.020200275411    12.000000000000
         H           -0.969138818651    -0.916769017974     1.380997724589     1.007825032230
         H           -1.818530818651    -1.479341017974    -0.085632275411     1.007825032230
         H           -2.256107818651     0.972241982026    -0.371055275411     1.007825032230
         H           -0.254053818651     2.487244982026    -0.300202275411     1.007825032230
         H            2.000006181349     1.437649982026     0.366315724589     1.007825032230
         H            2.197760181349    -1.024972017974    -0.079353275411     1.007825032230

  Basis Set: AUG-CC-PVTZ
    Blend: AUG-CC-PVTZ
  Basis Set: (AUG-CC-PVTZ AUX)
    Blend: AUG-CC-PVTZ-JKFIT
	 Reference Energy          =    -267.7386516530256699 [Eh]
	 Singles Energy            =      -0.0000000000000000 [Eh]
	 Same-Spin Energy          =      -0.2739189918397185 [Eh]
	 Opposite-Spin Energy      =      -0.8857198552676802 [Eh]
	 Correlation Energy        =      -1.1596388471073986 [Eh]
	 Total Energy              =    -268.8982905001330437 [Eh]

	 ================> DF-SCS-MP2 Energies <==================
	-----------------------------------------------------------
	 SCS Same-Spin Scale       =       0.3333333333333333 [-]
	 SCS Opposite-Spin Scale   =       1.2000000000000000 [-]
	 SCS Same-Spin Energy      =      -0.0913063306132395 [Eh]
	 SCS Opposite-Spin Energy  =      -1.0628638263212162 [Eh]
	 SCS Correlation Energy    =      -1.1541701569344558 [Eh]
	 SCS Total Energy          =    -268.8928218099601395 [Eh]
	-----------------------------------------------------------

  Dipole Moment: [D]
     X:    -0.2310      Y:     0.5623      Z:     0.3824     Total:     0.7182

*** Psi4 exiting successfully. Buy a developer a beer!
