                               Psi4 1.3.2 release

  ==> Input File <==

--------------------------------------------------------------------------
#psi4
#
memory 32 gb

molecule  {
0 1
  O        0.2412810    -1.3526816    -0.1473327
  C       -1.0344600    -0.8194530     0.2767900
  C       -1.2574290     0.6116450    -0.1105210
  C       -0.1783580     1.4194390    -0.0692080
  C        1.1257810     0.8237890     0.1750290
  C        1.2576400    -0.5068660    -0.0292480
  H       -0.9620370    -0.9265990     1.3719500
  H       -1.8114290    -1.4891710    -0.0946800
  H       -2.2490060     0.9624120    -0.3801030
  H       -0.2469520     2.4774150    -0.3092500
  H        2.0071080     1.4278200     0.3572680
  H        2.2048620    -1.0348020    -0.0884010
units angstrom
no_reorient  #important for SAPT in psi4, default
symmetry c1  #important for SAPT in psi4, default
}

set PROPERTIES_ORIGIN ["COM"]
properties('MP2/aug-cc-pvtz', properties = ['dipole'])
--------------------------------------------------------------------------

    Molecular point group: c1
  Charge       = 0
  Multiplicity = 1
  Basis Set: AUG-CC-PVTZ
    Blend: AUG-CC-PVTZ
  Basis Set: (AUG-CC-PVTZ AUX)
    Blend: AUG-CC-PVTZ-JKFIT

    Orbital Energies [Eh]
    ---------------------

    Doubly Occupied:

       1A    -20.591178     2A    -11.302363     3A    -11.292334
       4A    -11.242683     5A    -11.229684     6A    -11.220399
       7A     -1.423932     8A     -1.096499     9A     -1.037080
      10A     -0.900413    11A     -0.845127    12A     -0.721249
      13A     -0.698104    14A     -0.658176    15A     -0.641327
      16A     -0.609658    17A     -0.570792    18A     -0.525954
      19A     -0.511999    20A     -0.476913    21A     -0.420577
      22A     -0.295089

  @DF-RHF Final Energy:  -267.73623933871784

   => Energetics <=

    Nuclear Repulsion Energy =            223.8634688651639522
    One-Electron Energy =                -806.5763543009850309
    Two-Electron Energy =                 314.9766460971032984
    Total Energy =                       -267.7362393387178372
  Basis Set: (AUG-CC-PVTZ AUX)
    Blend: AUG-CC-PVTZ-RI
    Molecular point group: c1

    Geometry (in Angstrom), charge = 0, multiplicity = 1:

       Center              X                  Y                   Z               Mass
    ------------   -----------------  -----------------  -----------------  -----------------
         O            0.219930578643    -1.329946682331    -0.164653349750    15.994914619570
         C           -1.055810421357    -0.796718082331     0.259469350250    12.000000000000
         C           -1.278779421357     0.634379917669    -0.127841649750    12.000000000000
         C           -0.199708421357     1.442173917669    -0.086528649750    12.000000000000
         C            1.104430578643     0.846523917669     0.157708350250    12.000000000000
         C            1.236289578643    -0.484131082331    -0.046568649750    12.000000000000
         H           -0.983387421357    -0.903864082331     1.354629350250     1.007825032230
         H           -1.832779421357    -1.466436082331    -0.112000649750     1.007825032230
         H           -2.270356421357     0.985146917669    -0.397423649750     1.007825032230
         H           -0.268302421357     2.500149917669    -0.326570649750     1.007825032230
         H            1.985757578643     1.450554917669     0.339947350250     1.007825032230
         H            2.183511578643    -1.012067082331    -0.105721649750     1.007825032230

  Basis Set: AUG-CC-PVTZ
    Blend: AUG-CC-PVTZ
  Basis Set: (AUG-CC-PVTZ AUX)
    Blend: AUG-CC-PVTZ-JKFIT
	 Reference Energy          =    -267.7362393387178372 [Eh]
	 Singles Energy            =      -0.0000000000000000 [Eh]
	 Same-Spin Energy          =      -0.2740365645059360 [Eh]
	 Opposite-Spin Energy      =      -0.8857306122173800 [Eh]
	 Correlation Energy        =      -1.1597671767233160 [Eh]
	 Total Energy              =    -268.8960065154411723 [Eh]

	 ================> DF-SCS-MP2 Energies <==================
	-----------------------------------------------------------
	 SCS Same-Spin Scale       =       0.3333333333333333 [-]
	 SCS Opposite-Spin Scale   =       1.2000000000000000 [-]
	 SCS Same-Spin Energy      =      -0.0913455215019787 [Eh]
	 SCS Opposite-Spin Energy  =      -1.0628767346608561 [Eh]
	 SCS Correlation Energy    =      -1.1542222561628348 [Eh]
	 SCS Total Energy          =    -268.8904615948806622 [Eh]
	-----------------------------------------------------------

  Dipole Moment: [D]
     X:    -0.4200      Y:     0.4922      Z:     0.2326     Total:     0.6876

*** Psi4 exiting successfully. Buy a developer a beer!
