                               Psi4 1.3.2 release

  ==> Input File <==

--------------------------------------------------------------------------
#psi4
#
memory 32 gb

molecule  {
0 1
  O        0.1880961    -1.3680964    -0.2673376
  C       -1.0344600    -0.8194530     0.2767900
  C       -1.2574290     0.6116450    -0.1105210
  C       -0.1783580     1.4194390    -0.0692080
  C        1.1257810     0.8237890     0.1750290
  C        1.2576400    -0.5068660    -0.0292480
  H       -0.9620370    -0.9265990     1.3719500
  H       -1.8114290    -1.4891710    -0.0946800
  H       -2.2490060     0.9624120    -0.3801030
  H       -0.2469520     2.4774150    -0.3092500
  H        2.0071080     1.4278200     0.3572680
  H        2.2048620    -1.0348020    -0.0884010
units angstrom
no_reorient  #important for SAPT in psi4, default
symmetry c1  #important for SAPT in psi4, default
}

set PROPERTIES_ORIGIN ["COM"]
properties('MP2/aug-cc-pvtz', properties = ['dipole'])
--------------------------------------------------------------------------

    Molecular point group: c1
  Charge       = 0
  Multiplicity = 1
  Basis Set: AUG-CC-PVTZ
    Blend: AUG-CC-PVTZ
  Basis Set: (AUG-CC-PVTZ AUX)
    Blend: AUG-CC-PVTZ-JKFIT

    Orbital Energies [Eh]
    ---------------------

    Doubly Occupied:

       1A    -20.587297     2A    -11.302955     3A    -11.288960
       4A    -11.242882     5A    -11.232872     6A    -11.230129
       7A     -1.396398     8A     -1.098526     9A     -1.032407
      10A     -0.897984    11A     -0.840606    12A     -0.714821
      13A     -0.701549    14A     -0.647264    15A     -0.632538
      16A     -0.603683    17A     -0.572257    18A     -0.529022
      19A     -0.504951    20A     -0.473174    21A     -0.422208
      22A     -0.304401

  @DF-RHF Final Energy:  -267.73533086812012

   => Energetics <=

    Nuclear Repulsion Energy =            222.6404528454489196
    One-Electron Energy =                -804.2377956779521355
    Two-Electron Energy =                 313.8620119643831572
    Total Energy =                       -267.7353308681201156
  Basis Set: (AUG-CC-PVTZ AUX)
    Blend: AUG-CC-PVTZ-RI
    Molecular point group: c1

    Geometry (in Angstrom), charge = 0, multiplicity = 1:

       Center              X                  Y                   Z               Mass
    ------------   -----------------  -----------------  -----------------  -----------------
         O            0.177114627916    -1.342356206788    -0.261262046679    15.994914619570
         C           -1.045441472084    -0.793712806788     0.282865553321    12.000000000000
         C           -1.268410472084     0.637385193212    -0.104445446679    12.000000000000
         C           -0.189339472084     1.445179193212    -0.063132446679    12.000000000000
         C            1.114799527916     0.849529193212     0.181104553321    12.000000000000
         C            1.246658527916    -0.481125806788    -0.023172446679    12.000000000000
         H           -0.973018472084    -0.900858806788     1.378025553321     1.007825032230
         H           -1.822410472084    -1.463430806788    -0.088604446679     1.007825032230
         H           -2.259987472084     0.988152193212    -0.374027446679     1.007825032230
         H           -0.257933472084     2.503155193212    -0.303174446679     1.007825032230
         H            1.996126527916     1.453560193212     0.363343553321     1.007825032230
         H            2.193880527916    -1.009061806788    -0.082325446679     1.007825032230

  Basis Set: AUG-CC-PVTZ
    Blend: AUG-CC-PVTZ
  Basis Set: (AUG-CC-PVTZ AUX)
    Blend: AUG-CC-PVTZ-JKFIT
	 Reference Energy          =    -267.7353308681201156 [Eh]
	 Singles Energy            =      -0.0000000000000000 [Eh]
	 Same-Spin Energy          =      -0.2742082447002161 [Eh]
	 Opposite-Spin Energy      =      -0.8877719147725487 [Eh]
	 Correlation Energy        =      -1.1619801594727648 [Eh]
	 Total Energy              =    -268.8973110275928775 [Eh]

	 ================> DF-SCS-MP2 Energies <==================
	-----------------------------------------------------------
	 SCS Same-Spin Scale       =       0.3333333333333333 [-]
	 SCS Opposite-Spin Scale   =       1.2000000000000000 [-]
	 SCS Same-Spin Energy      =      -0.0914027482334054 [Eh]
	 SCS Opposite-Spin Energy  =      -1.0653262977270583 [Eh]
	 SCS Correlation Energy    =      -1.1567290459604638 [Eh]
	 SCS Total Energy          =    -268.8920599140805621 [Eh]
	-----------------------------------------------------------

  Dipole Moment: [D]
     X:    -0.2626      Y:     0.7854      Z:     0.4004     Total:     0.9199

*** Psi4 exiting successfully. Buy a developer a beer!
