                               Psi4 1.3.2 release

  ==> Input File <==

--------------------------------------------------------------------------
#psi4
#
memory 32 gb

molecule  {
0 1
  O        0.2121663    -1.3420847    -0.2905380
  C       -1.0344600    -0.8194530     0.2767900
  C       -1.2574290     0.6116450    -0.1105210
  C       -0.1783580     1.4194390    -0.0692080
  C        1.1257810     0.8237890     0.1750290
  C        1.2576400    -0.5068660    -0.0292480
  H       -0.9620370    -0.9265990     1.3719500
  H       -1.8114290    -1.4891710    -0.0946800
  H       -2.2490060     0.9624120    -0.3801030
  H       -0.2469520     2.4774150    -0.3092500
  H        2.0071080     1.4278200     0.3572680
  H        2.2048620    -1.0348020    -0.0884010
units angstrom
no_reorient  #important for SAPT in psi4, default
symmetry c1  #important for SAPT in psi4, default
}

set PROPERTIES_ORIGIN ["COM"]
properties('MP2/aug-cc-pvtz', properties = ['dipole'])
--------------------------------------------------------------------------

    Molecular point group: c1
  Charge       = 0
  Multiplicity = 1
  Basis Set: AUG-CC-PVTZ
    Blend: AUG-CC-PVTZ
  Basis Set: (AUG-CC-PVTZ AUX)
    Blend: AUG-CC-PVTZ-JKFIT

    Orbital Energies [Eh]
    ---------------------

    Doubly Occupied:

       1A    -20.588142     2A    -11.300927     3A    -11.292938
       4A    -11.242418     5A    -11.231818     6A    -11.225938
       7A     -1.402864     8A     -1.097238     9A     -1.032863
      10A     -0.899324    11A     -0.839476    12A     -0.716789
      13A     -0.702777    14A     -0.647704    15A     -0.631785
      16A     -0.606107    17A     -0.569530    18A     -0.532107
      19A     -0.510121    20A     -0.472616    21A     -0.419553
      22A     -0.302215

  @DF-RHF Final Energy:  -267.73690439476457

   => Energetics <=

    Nuclear Repulsion Energy =            223.0098279982522342
    One-Electron Energy =                -804.9629665893320407
    Two-Electron Energy =                 314.2162341963152130
    Total Energy =                       -267.7369043947645650
  Basis Set: (AUG-CC-PVTZ AUX)
    Blend: AUG-CC-PVTZ-RI
    Molecular point group: c1

    Geometry (in Angstrom), charge = 0, multiplicity = 1:

       Center              X                  Y                   Z               Mass
    ------------   -----------------  -----------------  -----------------  -----------------
         O            0.196492092143    -1.321415758173    -0.279939287461    15.994914619570
         C           -1.050134207857    -0.798784058173     0.287388712539    12.000000000000
         C           -1.273103207857     0.632313941827    -0.099922287461    12.000000000000
         C           -0.194032207857     1.440107941827    -0.058609287461    12.000000000000
         C            1.110106792143     0.844457941827     0.185627712539    12.000000000000
         C            1.241965792143    -0.486197058173    -0.018649287461    12.000000000000
         H           -0.977711207857    -0.905930058173     1.382548712539     1.007825032230
         H           -1.827103207857    -1.468502058173    -0.084081287461     1.007825032230
         H           -2.264680207857     0.983080941827    -0.369504287461     1.007825032230
         H           -0.262626207857     2.498083941827    -0.298651287461     1.007825032230
         H            1.991433792143     1.448488941827     0.367866712539     1.007825032230
         H            2.189187792143    -1.014133058173    -0.077802287461     1.007825032230

  Basis Set: AUG-CC-PVTZ
    Blend: AUG-CC-PVTZ
  Basis Set: (AUG-CC-PVTZ AUX)
    Blend: AUG-CC-PVTZ-JKFIT
	 Reference Energy          =    -267.7369043947645650 [Eh]
	 Singles Energy            =      -0.0000000000000000 [Eh]
	 Same-Spin Energy          =      -0.2742554017993225 [Eh]
	 Opposite-Spin Energy      =      -0.8873088485364371 [Eh]
	 Correlation Energy        =      -1.1615642503357595 [Eh]
	 Total Energy              =    -268.8984686451003085 [Eh]

	 ================> DF-SCS-MP2 Energies <==================
	-----------------------------------------------------------
	 SCS Same-Spin Scale       =       0.3333333333333333 [-]
	 SCS Opposite-Spin Scale   =       1.2000000000000000 [-]
	 SCS Same-Spin Energy      =      -0.0914184672664408 [Eh]
	 SCS Opposite-Spin Energy  =      -1.0647706182437244 [Eh]
	 SCS Correlation Energy    =      -1.1561890855101653 [Eh]
	 SCS Total Energy          =    -268.8930934802747288 [Eh]
	-----------------------------------------------------------

  Dipole Moment: [D]
     X:    -0.3738      Y:     0.6521      Z:     0.4331     Total:     0.8675

*** Psi4 exiting successfully. Buy a developer a beer!
