                               Psi4 1.3.2 release

  ==> Input File <==

--------------------------------------------------------------------------
#psi4
#
memory 32 gb

molecule  {
0 1
  O        0.1973020    -1.3235490    -0.2892290
  C       -1.0344600    -0.8194530     0.2767900
  C       -1.2574290     0.6116450    -0.1105210
  C       -0.1783580     1.4194390    -0.0692080
  C        1.0785099     0.7353009     0.1905364
  C        1.2576400    -0.5068660    -0.0292480
  H       -0.9620370    -0.9265990     1.3719500
  H       -1.8114290    -1.4891710    -0.0946800
  H       -2.2490060     0.9624120    -0.3801030
  H       -0.2469520     2.4774150    -0.3092500
  H        2.0071080     1.4278200     0.3572680
  H        2.2048620    -1.0348020    -0.0884010
units angstrom
no_reorient  #important for SAPT in psi4, default
symmetry c1  #important for SAPT in psi4, default
}

set PROPERTIES_ORIGIN ["COM"]
properties('MP2/aug-cc-pvtz', properties = ['dipole'])
--------------------------------------------------------------------------

    Molecular point group: c1
  Charge       = 0
  Multiplicity = 1
  Basis Set: AUG-CC-PVTZ
    Blend: AUG-CC-PVTZ
  Basis Set: (AUG-CC-PVTZ AUX)
    Blend: AUG-CC-PVTZ-JKFIT

    Orbital Energies [Eh]
    ---------------------

    Doubly Occupied:

       1A    -20.579581     2A    -11.290122     3A    -11.285080
       4A    -11.242017     5A    -11.233224     6A    -11.222218
       7A     -1.404547     8A     -1.102287     9A     -1.042965
      10A     -0.904563    11A     -0.834500    12A     -0.721254
      13A     -0.698181    14A     -0.651028    15A     -0.624542
      16A     -0.611628    17A     -0.568213    18A     -0.527093
      19A     -0.491729    20A     -0.478723    21A     -0.421904
      22A     -0.312058

  @DF-RHF Final Energy:  -267.72701209419881

   => Energetics <=

    Nuclear Repulsion Energy =            225.0762473010008762
    One-Electron Energy =                -809.1116009868590027
    Two-Electron Energy =                 316.3083415916593140
    Total Energy =                       -267.7270120941988125
  Basis Set: (AUG-CC-PVTZ AUX)
    Blend: AUG-CC-PVTZ-RI
    Molecular point group: c1

    Geometry (in Angstrom), charge = 0, multiplicity = 1:

       Center              X                  Y                   Z               Mass
    ------------   -----------------  -----------------  -----------------  -----------------
         O            0.191439933923    -1.293550915511    -0.281153708201    15.994914619570
         C           -1.040322066077    -0.789454915511     0.284865291799    12.000000000000
         C           -1.263291066077     0.641643084489    -0.102445708201    12.000000000000
         C           -0.184220066077     1.449437084489    -0.061132708201    12.000000000000
         C            1.072647833923     0.765298984489     0.198611691799    12.000000000000
         C            1.251777933923    -0.476867915511    -0.021172708201    12.000000000000
         H           -0.967899066077    -0.896600915511     1.380025291799     1.007825032230
         H           -1.817291066077    -1.459172915511    -0.086604708201     1.007825032230
         H           -2.254868066077     0.992410084489    -0.372027708201     1.007825032230
         H           -0.252814066077     2.507413084489    -0.301174708201     1.007825032230
         H            2.001245933923     1.457818084489     0.365343291799     1.007825032230
         H            2.198999933923    -1.004803915511    -0.080325708201     1.007825032230

  Basis Set: AUG-CC-PVTZ
    Blend: AUG-CC-PVTZ
  Basis Set: (AUG-CC-PVTZ AUX)
    Blend: AUG-CC-PVTZ-JKFIT
	 Reference Energy          =    -267.7270120941988125 [Eh]
	 Singles Energy            =      -0.0000000000000000 [Eh]
	 Same-Spin Energy          =      -0.2736011108029209 [Eh]
	 Opposite-Spin Energy      =      -0.8855546142230494 [Eh]
	 Correlation Energy        =      -1.1591557250259703 [Eh]
	 Total Energy              =    -268.8861678192247950 [Eh]

	 ================> DF-SCS-MP2 Energies <==================
	-----------------------------------------------------------
	 SCS Same-Spin Scale       =       0.3333333333333333 [-]
	 SCS Opposite-Spin Scale   =       1.2000000000000000 [-]
	 SCS Same-Spin Energy      =      -0.0912003702676403 [Eh]
	 SCS Opposite-Spin Energy  =      -1.0626655370676592 [Eh]
	 SCS Correlation Energy    =      -1.1538659073352995 [Eh]
	 SCS Total Energy          =    -268.8808780015340858 [Eh]
	-----------------------------------------------------------

  Dipole Moment: [D]
     X:    -0.3712      Y:     0.7221      Z:     0.3875     Total:     0.8997

*** Psi4 exiting successfully. Buy a developer a beer!
