                               Psi4 1.3.2 release

  ==> Input File <==

--------------------------------------------------------------------------
#psi4
#
memory 32 gb

molecule  {
0 1
  O        0.1973020    -1.3235490    -0.2892290
  C       -1.0344600    -0.8194530     0.2767900
  C       -1.2574290     0.6116450    -0.1105210
  C       -0.1783580     1.4194390    -0.0692080
  C        1.1257810     0.8237890     0.1750290
  C        1.1168187    -0.5111251    -0.0433347
  H       -0.9620370    -0.9265990     1.3719500
  H       -1.8114290    -1.4891710    -0.0946800
  H       -2.2490060     0.9624120    -0.3801030
  H       -0.2469520     2.4774150    -0.3092500
  H        2.0071080     1.4278200     0.3572680
  H        2.2048620    -1.0348020    -0.0884010
units angstrom
no_reorient  #important for SAPT in psi4, default
symmetry c1  #important for SAPT in psi4, default
}

set PROPERTIES_ORIGIN ["COM"]
properties('MP2/aug-cc-pvtz', properties = ['dipole'])
--------------------------------------------------------------------------

    Molecular point group: c1
  Charge       = 0
  Multiplicity = 1
  Basis Set: AUG-CC-PVTZ
    Blend: AUG-CC-PVTZ
  Basis Set: (AUG-CC-PVTZ AUX)
    Blend: AUG-CC-PVTZ-JKFIT

    Orbital Energies [Eh]
    ---------------------

    Doubly Occupied:

       1A    -20.608879     2A    -11.311829     3A    -11.298729
       4A    -11.240606     5A    -11.224566     6A    -11.216924
       7A     -1.473604     8A     -1.101660     9A     -1.036580
      10A     -0.907044    11A     -0.839477    12A     -0.725922
      13A     -0.716194    14A     -0.667365    15A     -0.642923
      16A     -0.613958    17A     -0.566539    18A     -0.537224
      19A     -0.521561    20A     -0.457245    21A     -0.418125
      22A     -0.294824

  @DF-RHF Final Energy:  -267.71591444500507

   => Energetics <=

    Nuclear Repulsion Energy =            226.0735982216575053
    One-Electron Energy =                -810.7354733523731056
    Two-Electron Energy =                 316.9459606857104745
    Total Energy =                       -267.7159144450050690
  Basis Set: (AUG-CC-PVTZ AUX)
    Blend: AUG-CC-PVTZ-RI
    Molecular point group: c1

    Geometry (in Angstrom), charge = 0, multiplicity = 1:

       Center              X                  Y                   Z               Mass
    ------------   -----------------  -----------------  -----------------  -----------------
         O            0.205123221139    -1.305870820749    -0.276825074268    15.994914619570
         C           -1.026638778861    -0.801774820749     0.289193925732    12.000000000000
         C           -1.249607778861     0.629323179251    -0.098117074268    12.000000000000
         C           -0.170536778861     1.437117179251    -0.056804074268    12.000000000000
         C            1.133602221139     0.841467179251     0.187432925732    12.000000000000
         C            1.124639921139    -0.493446920749    -0.030930774268    12.000000000000
         H           -0.954215778861    -0.908920820749     1.384353925732     1.007825032230
         H           -1.803607778861    -1.471492820749    -0.082276074268     1.007825032230
         H           -2.241184778861     0.980090179251    -0.367699074268     1.007825032230
         H           -0.239130778861     2.495093179251    -0.296846074268     1.007825032230
         H            2.014929221139     1.445498179251     0.369671925732     1.007825032230
         H            2.212683221139    -1.017123820749    -0.075997074268     1.007825032230

  Basis Set: AUG-CC-PVTZ
    Blend: AUG-CC-PVTZ
  Basis Set: (AUG-CC-PVTZ AUX)
    Blend: AUG-CC-PVTZ-JKFIT
	 Reference Energy          =    -267.7159144450050690 [Eh]
	 Singles Energy            =      -0.0000000000000000 [Eh]
	 Same-Spin Energy          =      -0.2751213726471692 [Eh]
	 Opposite-Spin Energy      =      -0.8860218830279177 [Eh]
	 Correlation Energy        =      -1.1611432556750869 [Eh]
	 Total Energy              =    -268.8770577006801545 [Eh]

	 ================> DF-SCS-MP2 Energies <==================
	-----------------------------------------------------------
	 SCS Same-Spin Scale       =       0.3333333333333333 [-]
	 SCS Opposite-Spin Scale   =       1.2000000000000000 [-]
	 SCS Same-Spin Energy      =      -0.0917071242157231 [Eh]
	 SCS Opposite-Spin Energy  =      -1.0632262596335011 [Eh]
	 SCS Correlation Energy    =      -1.1549333838492242 [Eh]
	 SCS Total Energy          =    -268.8708478288542665 [Eh]
	-----------------------------------------------------------

  Dipole Moment: [D]
     X:    -0.6502      Y:     0.3020      Z:     0.3669     Total:     0.8053

*** Psi4 exiting successfully. Buy a developer a beer!
