                               Psi4 1.4a3.dev225

  ==> Input File <==

--------------------------------------------------------------------------
#psi4
#
memory 32 gb

molecule  {
0 1
  O        0.1973020    -1.3235490    -0.2892290
  C       -1.0344600    -0.8194530     0.2767900
  C       -1.2574290     0.6116450    -0.1105210
  C       -0.1783580     1.4194390    -0.0692080
  C        1.1257810     0.8237890     0.1750290
  C        1.2576400    -0.5068660    -0.0292480
  H       -0.9587533    -0.9314570     1.4216050
  H       -1.8114290    -1.4891710    -0.0946800
  H       -2.2490060     0.9624120    -0.3801030
  H       -0.2469520     2.4774150    -0.3092500
  H        2.0071080     1.4278200     0.3572680
  H        2.2048620    -1.0348020    -0.0884010
units angstrom
no_reorient  #important for SAPT in psi4, default
symmetry c1  #important for SAPT in psi4, default
}

set PROPERTIES_ORIGIN ["COM"]
properties('MP2/aug-cc-pvtz', properties = ['dipole'])
--------------------------------------------------------------------------

    Molecular point group: c1
  Charge       = 0
  Multiplicity = 1
  Basis Set: AUG-CC-PVTZ
    Blend: AUG-CC-PVTZ
  Basis Set: (AUG-CC-PVTZ AUX)
    Blend: AUG-CC-PVTZ-JKFIT

    Orbital Energies [Eh]
    ---------------------

    Doubly Occupied:

       1A    -20.588131     2A    -11.301243     3A    -11.296954
       4A    -11.242103     5A    -11.231910     6A    -11.226631
       7A     -1.407877     8A     -1.096623     9A     -1.033625
      10A     -0.896044    11A     -0.841082    12A     -0.718292
      13A     -0.698571    14A     -0.650214    15A     -0.631988
      16A     -0.606035    17A     -0.572375    18A     -0.530233
      19A     -0.506698    20A     -0.469986    21A     -0.419139
      22A     -0.302402

  @DF-RHF Final Energy:  -267.73589602191720

   => Energetics <=

    Nuclear Repulsion Energy =            223.2687604726638142
    One-Electron Energy =                -805.4730033316893696
    Two-Electron Energy =                 314.4683468371082995
    Total Energy =                       -267.7358960219171991
  Basis Set: (AUG-CC-PVTZ AUX)
    Blend: AUG-CC-PVTZ-RI
    Molecular point group: c1

    Geometry (in Angstrom), charge = 0, multiplicity = 1:

       Center              X                  Y                   Z               Mass
    ------------   -----------------  -----------------  -----------------  -----------------
         O            0.184485404106    -1.306434108603    -0.279495466420    15.994914619570
         C           -1.047276595894    -0.802338108603     0.286523533580    12.000000000000
         C           -1.270245595894     0.628759891397    -0.100787466420    12.000000000000
         C           -0.191174595894     1.436553891397    -0.059474466420    12.000000000000
         C            1.112964404106     0.840903891397     0.184762533580    12.000000000000
         C            1.244823404106    -0.489751108603    -0.019514466420    12.000000000000
         H           -0.971569895894    -0.914342108603     1.431338533580     1.007825032230
         H           -1.824245595894    -1.472056108603    -0.084946466420     1.007825032230
         H           -2.261822595894     0.979526891397    -0.370369466420     1.007825032230
         H           -0.259768595894     2.494529891397    -0.299516466420     1.007825032230
         H            1.994291404106     1.444934891397     0.367001533580     1.007825032230
         H            2.192045404106    -1.017687108603    -0.078667466420     1.007825032230

  Basis Set: AUG-CC-PVTZ
    Blend: AUG-CC-PVTZ
  Basis Set: (AUG-CC-PVTZ AUX)
    Blend: AUG-CC-PVTZ-JKFIT
	 Reference Energy          =    -267.7358960219171991 [Eh]
	 Singles Energy            =      -0.0000000000000000 [Eh]
	 Same-Spin Energy          =      -0.2742608305267892 [Eh]
	 Opposite-Spin Energy      =      -0.8871852020636860 [Eh]
	 Correlation Energy        =      -1.1614460325904752 [Eh]
	 Total Energy              =    -268.8973420545076465 [Eh]

	 ================> DF-SCS-MP2 Energies <==================
	-----------------------------------------------------------
	 SCS Same-Spin Scale       =       0.3333333333333333 [-]
	 SCS Opposite-Spin Scale   =       1.2000000000000000 [-]
	 SCS Same-Spin Energy      =      -0.0914202768422631 [Eh]
	 SCS Opposite-Spin Energy  =      -1.0646222424764231 [Eh]
	 SCS Correlation Energy    =      -1.1560425193186861 [Eh]
	 SCS Total Energy          =    -268.8919385412359020 [Eh]
	-----------------------------------------------------------

  Dipole Moment: [D]
     X:    -0.3084      Y:     0.6466      Z:     0.3749     Total:     0.8085

*** Psi4 exiting successfully. Buy a developer a beer!
