                               Psi4 1.3.2 release

  ==> Input File <==

--------------------------------------------------------------------------
#psi4
#
memory 32 gb

molecule  {
0 1
  O        0.1398275    -1.2888935    -0.4249238
  C       -1.0344600    -0.8194530     0.2767900
  C       -1.2574290     0.6116450    -0.1105210
  C       -0.1783580     1.4194390    -0.0692080
  C        1.1257810     0.8237890     0.1750290
  C        1.2576400    -0.5068660    -0.0292480
  H       -0.9620370    -0.9265990     1.3719500
  H       -1.8114290    -1.4891710    -0.0946800
  H       -2.2490060     0.9624120    -0.3801030
  H       -0.2469520     2.4774150    -0.3092500
  H        2.0071080     1.4278200     0.3572680
  H        2.2048620    -1.0348020    -0.0884010
units angstrom
no_reorient  #important for SAPT in psi4, default
symmetry c1  #important for SAPT in psi4, default
}

set PROPERTIES_ORIGIN ["COM"]
properties('MP2/aug-cc-pvtz', properties = ['dipole'])
--------------------------------------------------------------------------

    Molecular point group: c1
  Charge       = 0
  Multiplicity = 1
  Basis Set: AUG-CC-PVTZ
    Blend: AUG-CC-PVTZ
  Basis Set: (AUG-CC-PVTZ AUX)
    Blend: AUG-CC-PVTZ-JKFIT

    Orbital Energies [Eh]
    ---------------------

    Doubly Occupied:

       1A    -20.582827     2A    -11.300030     3A    -11.288707
       4A    -11.240371     5A    -11.233639     6A    -11.233362
       7A     -1.385876     8A     -1.096470     9A     -1.031315
      10A     -0.896730    11A     -0.834731    12A     -0.714875
      13A     -0.706606    14A     -0.641675    15A     -0.621209
      16A     -0.601113    17A     -0.573764    18A     -0.537338
      19A     -0.500946    20A     -0.465387    21A     -0.416449
      22A     -0.310095

  @DF-RHF Final Energy:  -267.73006561457453

   => Energetics <=

    Nuclear Repulsion Energy =            222.8733620893270313
    One-Electron Energy =                -804.7798257129809372
    Two-Electron Energy =                 314.1763980090794348
    Total Energy =                       -267.7300656145745279
  Basis Set: (AUG-CC-PVTZ AUX)
    Blend: AUG-CC-PVTZ-RI
    Molecular point group: c1

    Geometry (in Angstrom), charge = 0, multiplicity = 1:

       Center              X                  Y                   Z               Mass
    ------------   -----------------  -----------------  -----------------  -----------------
         O            0.138256493385    -1.278594735697    -0.388125178402    15.994914619570
         C           -1.036031006615    -0.809154235697     0.313588621598    12.000000000000
         C           -1.259000006615     0.621943764303    -0.073722378402    12.000000000000
         C           -0.179929006615     1.429737764303    -0.032409378402    12.000000000000
         C            1.124209993385     0.834087764303     0.211827621598    12.000000000000
         C            1.256068993385    -0.496567235697     0.007550621598    12.000000000000
         H           -0.963608006615    -0.916300235697     1.408748621598     1.007825032230
         H           -1.813000006615    -1.478872235697    -0.057881378402     1.007825032230
         H           -2.250577006615     0.972710764303    -0.343304378402     1.007825032230
         H           -0.248523006615     2.487713764303    -0.272451378402     1.007825032230
         H            2.005536993385     1.438118764303     0.394066621598     1.007825032230
         H            2.203290993385    -1.024503235697    -0.051602378402     1.007825032230

  Basis Set: AUG-CC-PVTZ
    Blend: AUG-CC-PVTZ
  Basis Set: (AUG-CC-PVTZ AUX)
    Blend: AUG-CC-PVTZ-JKFIT
	 Reference Energy          =    -267.7300656145745279 [Eh]
	 Singles Energy            =      -0.0000000000000000 [Eh]
	 Same-Spin Energy          =      -0.2745491078615205 [Eh]
	 Opposite-Spin Energy      =      -0.8889421827334336 [Eh]
	 Correlation Energy        =      -1.1634912905949542 [Eh]
	 Total Energy              =    -268.8935569051694756 [Eh]

	 ================> DF-SCS-MP2 Energies <==================
	-----------------------------------------------------------
	 SCS Same-Spin Scale       =       0.3333333333333333 [-]
	 SCS Opposite-Spin Scale   =       1.2000000000000000 [-]
	 SCS Same-Spin Energy      =      -0.0915163692871735 [Eh]
	 SCS Opposite-Spin Energy  =      -1.0667306192801203 [Eh]
	 SCS Correlation Energy    =      -1.1582469885672937 [Eh]
	 SCS Total Energy          =    -268.8883126031417987 [Eh]
	-----------------------------------------------------------

  Dipole Moment: [D]
     X:    -0.1848      Y:     0.7682      Z:     0.6199     Total:     1.0043

*** Psi4 exiting successfully. Buy a developer a beer!
