                               Psi4 1.4a3.dev225

  ==> Input File <==

--------------------------------------------------------------------------
#psi4
#
memory 32 gb

molecule  {
0 1
  O        0.1973020    -1.3235490    -0.2892290
  C       -1.0344600    -0.8194530     0.2767900
  C       -1.2574290     0.6116450    -0.1105210
  C       -0.1783580     1.4194390    -0.0692080
  C        1.1257810     0.8237890     0.1750290
  C        1.2576400    -0.5068660    -0.0292480
  H       -0.9620370    -0.9265990     1.3719500
  H       -1.8114290    -1.4891710    -0.0946800
  H       -2.2672706     0.9688731    -0.3850686
  H       -0.2469520     2.4774150    -0.3092500
  H        2.0071080     1.4278200     0.3572680
  H        2.2048620    -1.0348020    -0.0884010
units angstrom
no_reorient  #important for SAPT in psi4, default
symmetry c1  #important for SAPT in psi4, default
}

set PROPERTIES_ORIGIN ["COM"]
properties('MP2/aug-cc-pvtz', properties = ['dipole'])
--------------------------------------------------------------------------

    Molecular point group: c1
  Charge       = 0
  Multiplicity = 1
  Basis Set: AUG-CC-PVTZ
    Blend: AUG-CC-PVTZ
  Basis Set: (AUG-CC-PVTZ AUX)
    Blend: AUG-CC-PVTZ-JKFIT

    Orbital Energies [Eh]
    ---------------------

    Doubly Occupied:

       1A    -20.587207     2A    -11.300948     3A    -11.291359
       4A    -11.241855     5A    -11.233635     6A    -11.226302
       7A     -1.407471     8A     -1.096228     9A     -1.034415
      10A     -0.898512    11A     -0.839591    12A     -0.718170
      13A     -0.701725    14A     -0.649779    15A     -0.632323
      16A     -0.604540    17A     -0.571916    18A     -0.532182
      19A     -0.508036    20A     -0.470795    21A     -0.418960
      22A     -0.302338

  @DF-RHF Final Energy:  -267.73750681857570

   => Energetics <=

    Nuclear Repulsion Energy =            223.4015707172107170
    One-Electron Energy =                -805.7415822459240644
    Two-Electron Energy =                 314.6025047101376799
    Total Energy =                       -267.7375068185756959
  Basis Set: (AUG-CC-PVTZ AUX)
    Blend: AUG-CC-PVTZ-RI
    Molecular point group: c1

    Geometry (in Angstrom), charge = 0, multiplicity = 1:

       Center              X                  Y                   Z               Mass
    ------------   -----------------  -----------------  -----------------  -----------------
         O            0.184750109402    -1.306573155568    -0.278824491814    15.994914619570
         C           -1.047011890598    -0.802477155568     0.287194508186    12.000000000000
         C           -1.269980890598     0.628620844432    -0.100116491814    12.000000000000
         C           -0.190909890598     1.436414844432    -0.058803491814    12.000000000000
         C            1.113229109402     0.840764844432     0.185433508186    12.000000000000
         C            1.245088109402    -0.489890155568    -0.018843491814    12.000000000000
         H           -0.974588890598    -0.909623155568     1.382354508186     1.007825032230
         H           -1.823980890598    -1.472195155568    -0.084275491814     1.007825032230
         H           -2.279822490598     0.985848944432    -0.374664091814     1.007825032230
         H           -0.259503890598     2.494390844432    -0.298845491814     1.007825032230
         H            1.994556109402     1.444795844432     0.367672508186     1.007825032230
         H            2.192310109402    -1.017826155568    -0.077996491814     1.007825032230

  Basis Set: AUG-CC-PVTZ
    Blend: AUG-CC-PVTZ
  Basis Set: (AUG-CC-PVTZ AUX)
    Blend: AUG-CC-PVTZ-JKFIT
	 Reference Energy          =    -267.7375068185756959 [Eh]
	 Singles Energy            =      -0.0000000000000000 [Eh]
	 Same-Spin Energy          =      -0.2741526925327965 [Eh]
	 Opposite-Spin Energy      =      -0.8868842905105851 [Eh]
	 Correlation Energy        =      -1.1610369830433815 [Eh]
	 Total Energy              =    -268.8985438016190983 [Eh]

	 ================> DF-SCS-MP2 Energies <==================
	-----------------------------------------------------------
	 SCS Same-Spin Scale       =       0.3333333333333333 [-]
	 SCS Opposite-Spin Scale   =       1.2000000000000000 [-]
	 SCS Same-Spin Energy      =      -0.0913842308442655 [Eh]
	 SCS Opposite-Spin Energy  =      -1.0642611486127020 [Eh]
	 SCS Correlation Energy    =      -1.1556453794569674 [Eh]
	 SCS Total Energy          =    -268.8931521980326806 [Eh]
	-----------------------------------------------------------

  Dipole Moment: [D]
     X:    -0.3216      Y:     0.6198      Z:     0.4202     Total:     0.8149

*** Psi4 exiting successfully. Buy a developer a beer!
