                               Psi4 1.3.2 release

  ==> Input File <==

--------------------------------------------------------------------------
#psi4
#
memory 32 gb

molecule  {
0 1
  O        0.1973020    -1.3235490    -0.2892290
  C       -1.0344600    -0.8194530     0.2767900
  C       -1.3099076     0.6880657    -0.1268327
  C       -0.1783580     1.4194390    -0.0692080
  C        1.1257810     0.8237890     0.1750290
  C        1.2576400    -0.5068660    -0.0292480
  H       -0.9620370    -0.9265990     1.3719500
  H       -1.8114290    -1.4891710    -0.0946800
  H       -2.2490060     0.9624120    -0.3801030
  H       -0.2469520     2.4774150    -0.3092500
  H        2.0071080     1.4278200     0.3572680
  H        2.2048620    -1.0348020    -0.0884010
units angstrom
no_reorient  #important for SAPT in psi4, default
symmetry c1  #important for SAPT in psi4, default
}

set PROPERTIES_ORIGIN ["COM"]
properties('MP2/aug-cc-pvtz', properties = ['dipole'])
--------------------------------------------------------------------------

    Molecular point group: c1
  Charge       = 0
  Multiplicity = 1
  Basis Set: AUG-CC-PVTZ
    Blend: AUG-CC-PVTZ
  Basis Set: (AUG-CC-PVTZ AUX)
    Blend: AUG-CC-PVTZ-JKFIT

    Orbital Energies [Eh]
    ---------------------

    Doubly Occupied:

       1A    -20.588688     2A    -11.302848     3A    -11.293364
       4A    -11.243136     5A    -11.230114     6A    -11.228006
       7A     -1.406706     8A     -1.092380     9A     -1.028519
      10A     -0.897025    11A     -0.843445    12A     -0.716692
      13A     -0.711704    14A     -0.649728    15A     -0.635604
      16A     -0.607240    17A     -0.564697    18A     -0.538774
      19A     -0.508419    20A     -0.459316    21A     -0.418896
      22A     -0.304629

  @DF-RHF Final Energy:  -267.72912347264969

   => Energetics <=

    Nuclear Repulsion Energy =            222.2122783344996435
    One-Electron Energy =                -803.3429460016412804
    Two-Electron Energy =                 313.4015441944919758
    Total Energy =                       -267.7291234726496896
  Basis Set: (AUG-CC-PVTZ AUX)
    Blend: AUG-CC-PVTZ-RI
    Molecular point group: c1

    Geometry (in Angstrom), charge = 0, multiplicity = 1:

       Center              X                  Y                   Z               Mass
    ------------   -----------------  -----------------  -----------------  -----------------
         O            0.192201618218    -1.317671595904    -0.276499630666    15.994914619570
         C           -1.039560381782    -0.813575595904     0.289519369334    12.000000000000
         C           -1.315007981782     0.693943104096    -0.114103330666    12.000000000000
         C           -0.183458381782     1.425316404096    -0.056478630666    12.000000000000
         C            1.120680618218     0.829666404096     0.187758369334    12.000000000000
         C            1.252539618218    -0.500988595904    -0.016518630666    12.000000000000
         H           -0.967137381782    -0.920721595904     1.384679369334     1.007825032230
         H           -1.816529381782    -1.483293595904    -0.081950630666     1.007825032230
         H           -2.254106381782     0.968289404096    -0.367373630666     1.007825032230
         H           -0.252052381782     2.483292404096    -0.296520630666     1.007825032230
         H            2.002007618218     1.433697404096     0.369997369334     1.007825032230
         H            2.199761618218    -1.028924595904    -0.075671630666     1.007825032230

  Basis Set: AUG-CC-PVTZ
    Blend: AUG-CC-PVTZ
  Basis Set: (AUG-CC-PVTZ AUX)
    Blend: AUG-CC-PVTZ-JKFIT
	 Reference Energy          =    -267.7291234726496896 [Eh]
	 Singles Energy            =      -0.0000000000000000 [Eh]
	 Same-Spin Energy          =      -0.2736182957521006 [Eh]
	 Opposite-Spin Energy      =      -0.8868593940991725 [Eh]
	 Correlation Energy        =      -1.1604776898512732 [Eh]
	 Total Energy              =    -268.8896011625009805 [Eh]

	 ================> DF-SCS-MP2 Energies <==================
	-----------------------------------------------------------
	 SCS Same-Spin Scale       =       0.3333333333333333 [-]
	 SCS Opposite-Spin Scale   =       1.2000000000000000 [-]
	 SCS Same-Spin Energy      =      -0.0912060985840335 [Eh]
	 SCS Opposite-Spin Energy  =      -1.0642312729190069 [Eh]
	 SCS Correlation Energy    =      -1.1554373715030404 [Eh]
	 SCS Total Energy          =    -268.8845608441527020 [Eh]
	-----------------------------------------------------------

  Dipole Moment: [D]
     X:    -0.3042      Y:     0.5899      Z:     0.4071     Total:     0.7786

*** Psi4 exiting successfully. Buy a developer a beer!
