                               Psi4 1.3.2 release

  ==> Input File <==

--------------------------------------------------------------------------
#psi4
#
memory 32 gb

molecule  {
0 1
  O        0.1973020    -1.3235490    -0.2892290
  C       -1.0344600    -0.8194530     0.2767900
  C       -1.2574290     0.6116450    -0.1105210
  C       -0.1783580     1.4194390    -0.0692080
  C        1.2154506     0.7828335     0.1918222
  C        1.2576400    -0.5068660    -0.0292480
  H       -0.9620370    -0.9265990     1.3719500
  H       -1.8114290    -1.4891710    -0.0946800
  H       -2.2490060     0.9624120    -0.3801030
  H       -0.2469520     2.4774150    -0.3092500
  H        2.0071080     1.4278200     0.3572680
  H        2.2048620    -1.0348020    -0.0884010
units angstrom
no_reorient  #important for SAPT in psi4, default
symmetry c1  #important for SAPT in psi4, default
}

set PROPERTIES_ORIGIN ["COM"]
properties('MP2/aug-cc-pvtz', properties = ['dipole'])
--------------------------------------------------------------------------

    Molecular point group: c1
  Charge       = 0
  Multiplicity = 1
  Basis Set: AUG-CC-PVTZ
    Blend: AUG-CC-PVTZ
  Basis Set: (AUG-CC-PVTZ AUX)
    Blend: AUG-CC-PVTZ-JKFIT

    Orbital Energies [Eh]
    ---------------------

    Doubly Occupied:

       1A    -20.587041     2A    -11.292831     3A    -11.290926
       4A    -11.247117     5A    -11.232376     6A    -11.223811
       7A     -1.406444     8A     -1.086955     9A     -1.041582
      10A     -0.904109    11A     -0.830464    12A     -0.717015
      13A     -0.705774    14A     -0.656989    15A     -0.634731
      16A     -0.607231    17A     -0.570286    18A     -0.520902
      19A     -0.511444    20A     -0.466710    21A     -0.411475
      22A     -0.314919

  @DF-RHF Final Energy:  -267.73116451137184

   => Energetics <=

    Nuclear Repulsion Energy =            222.7988015233953263
    One-Electron Energy =                -804.5376727293521526
    Two-Electron Energy =                 314.0077066945849538
    Total Energy =                       -267.7311645113718441
  Basis Set: (AUG-CC-PVTZ AUX)
    Blend: AUG-CC-PVTZ-RI
    Molecular point group: c1

    Geometry (in Angstrom), charge = 0, multiplicity = 1:

       Center              X                  Y                   Z               Mass
    ------------   -----------------  -----------------  -----------------  -----------------
         O            0.171410057667    -1.300503356211    -0.281341778036    15.994914619570
         C           -1.060351942333    -0.796407356211     0.284677221964    12.000000000000
         C           -1.283320942333     0.634690643789    -0.102633778036    12.000000000000
         C           -0.204249942333     1.442484643789    -0.061320778036    12.000000000000
         C            1.189558657667     0.805879143789     0.199709421964    12.000000000000
         C            1.231748057667    -0.483820356211    -0.021360778036    12.000000000000
         H           -0.987928942333    -0.903553356211     1.379837221964     1.007825032230
         H           -1.837320942333    -1.466125356211    -0.086792778036     1.007825032230
         H           -2.274897942333     0.985457643789    -0.372215778036     1.007825032230
         H           -0.272843942333     2.500460643789    -0.301362778036     1.007825032230
         H            1.981216057667     1.450865643789     0.365155221964     1.007825032230
         H            2.178970057667    -1.011756356211    -0.080513778036     1.007825032230

  Basis Set: AUG-CC-PVTZ
    Blend: AUG-CC-PVTZ
  Basis Set: (AUG-CC-PVTZ AUX)
    Blend: AUG-CC-PVTZ-JKFIT
	 Reference Energy          =    -267.7311645113718441 [Eh]
	 Singles Energy            =      -0.0000000000000000 [Eh]
	 Same-Spin Energy          =      -0.2724121793688124 [Eh]
	 Opposite-Spin Energy      =      -0.8851180315786381 [Eh]
	 Correlation Energy        =      -1.1575302109474506 [Eh]
	 Total Energy              =    -268.8886947223193147 [Eh]

	 ================> DF-SCS-MP2 Energies <==================
	-----------------------------------------------------------
	 SCS Same-Spin Scale       =       0.3333333333333333 [-]
	 SCS Opposite-Spin Scale   =       1.2000000000000000 [-]
	 SCS Same-Spin Energy      =      -0.0908040597896041 [Eh]
	 SCS Opposite-Spin Energy  =      -1.0621416378943658 [Eh]
	 SCS Correlation Energy    =      -1.1529456976839698 [Eh]
	 SCS Total Energy          =    -268.8841102090557911 [Eh]
	-----------------------------------------------------------

  Dipole Moment: [D]
     X:    -0.3895      Y:     0.7106      Z:     0.4357     Total:     0.9200

*** Psi4 exiting successfully. Buy a developer a beer!
