                               Psi4 1.3.2 release

  ==> Input File <==

--------------------------------------------------------------------------
#psi4
#
memory 32 gb

molecule  {
0 1
  O        0.2273491    -1.3603659    -0.2917674
  C       -1.0344600    -0.8194530     0.2767900
  C       -1.2574290     0.6116450    -0.1105210
  C       -0.1783580     1.4194390    -0.0692080
  C        1.1257810     0.8237890     0.1750290
  C        1.2576400    -0.5068660    -0.0292480
  H       -0.9620370    -0.9265990     1.3719500
  H       -1.8114290    -1.4891710    -0.0946800
  H       -2.2490060     0.9624120    -0.3801030
  H       -0.2469520     2.4774150    -0.3092500
  H        2.0071080     1.4278200     0.3572680
  H        2.2048620    -1.0348020    -0.0884010
units angstrom
no_reorient  #important for SAPT in psi4, default
symmetry c1  #important for SAPT in psi4, default
}

set PROPERTIES_ORIGIN ["COM"]
properties('MP2/aug-cc-pvtz', properties = ['dipole'])
--------------------------------------------------------------------------

    Molecular point group: c1
  Charge       = 0
  Multiplicity = 1
  Basis Set: AUG-CC-PVTZ
    Blend: AUG-CC-PVTZ
  Basis Set: (AUG-CC-PVTZ AUX)
    Blend: AUG-CC-PVTZ-JKFIT

    Orbital Energies [Eh]
    ---------------------

    Doubly Occupied:

       1A    -20.589125     2A    -11.301010     3A    -11.294771
       4A    -11.243132     5A    -11.232294     6A    -11.225738
       7A     -1.398585     8A     -1.098120     9A     -1.031212
      10A     -0.900158    11A     -0.838317    12A     -0.715431
      13A     -0.702318    14A     -0.645797    15A     -0.630501
      16A     -0.606512    17A     -0.567093    18A     -0.531729
      19A     -0.511939    20A     -0.473802    21A     -0.420162
      22A     -0.302211

  @DF-RHF Final Energy:  -267.73507191376859

   => Energetics <=

    Nuclear Repulsion Energy =            222.5316706338384449
    One-Electron Energy =                -804.0135723604661280
    Two-Electron Energy =                 313.7468298128591186
    Total Energy =                       -267.7350719137685928
  Basis Set: (AUG-CC-PVTZ AUX)
    Blend: AUG-CC-PVTZ-RI
    Molecular point group: c1

    Geometry (in Angstrom), charge = 0, multiplicity = 1:

       Center              X                  Y                   Z               Mass
    ------------   -----------------  -----------------  -----------------  -----------------
         O            0.208714847412    -1.336132848145    -0.280929003148    15.994914619570
         C           -1.053094252588    -0.795219948145     0.287628396852    12.000000000000
         C           -1.276063252588     0.635878051855    -0.099682603148    12.000000000000
         C           -0.196992252588     1.443672051855    -0.058369603148    12.000000000000
         C            1.107146747412     0.848022051855     0.185867396852    12.000000000000
         C            1.239005747412    -0.482632948145    -0.018409603148    12.000000000000
         H           -0.980671252588    -0.902365948145     1.382788396852     1.007825032230
         H           -1.830063252588    -1.464937948145    -0.083841603148     1.007825032230
         H           -2.267640252588     0.986645051855    -0.369264603148     1.007825032230
         H           -0.265586252588     2.501648051855    -0.298411603148     1.007825032230
         H            1.988473747412     1.452053051855     0.368106396852     1.007825032230
         H            2.186227747412    -1.010568948145    -0.077562603148     1.007825032230

  Basis Set: AUG-CC-PVTZ
    Blend: AUG-CC-PVTZ
  Basis Set: (AUG-CC-PVTZ AUX)
    Blend: AUG-CC-PVTZ-JKFIT
	 Reference Energy          =    -267.7350719137685928 [Eh]
	 Singles Energy            =      -0.0000000000000000 [Eh]
	 Same-Spin Energy          =      -0.2744201251452002 [Eh]
	 Opposite-Spin Energy      =      -0.8879189702478606 [Eh]
	 Correlation Energy        =      -1.1623390953930608 [Eh]
	 Total Energy              =    -268.8974110091616581 [Eh]

	 ================> DF-SCS-MP2 Energies <==================
	-----------------------------------------------------------
	 SCS Same-Spin Scale       =       0.3333333333333333 [-]
	 SCS Opposite-Spin Scale   =       1.2000000000000000 [-]
	 SCS Same-Spin Energy      =      -0.0914733750484001 [Eh]
	 SCS Opposite-Spin Energy  =      -1.0655027642974326 [Eh]
	 SCS Correlation Energy    =      -1.1569761393458327 [Eh]
	 SCS Total Energy          =    -268.8920480531144221 [Eh]
	-----------------------------------------------------------

  Dipole Moment: [D]
     X:    -0.4191      Y:     0.6807      Z:     0.4464     Total:     0.9155

*** Psi4 exiting successfully. Buy a developer a beer!
