                               Psi4 1.3.2 release

  ==> Input File <==

--------------------------------------------------------------------------
#psi4
#
memory 32 gb

molecule  {
0 1
  O        0.1973020    -1.3235490    -0.2892290
  C       -1.0344600    -0.8194530     0.2767900
  C       -1.1996933     0.5391598    -0.0940080
  C       -0.1783580     1.4194390    -0.0692080
  C        1.1257810     0.8237890     0.1750290
  C        1.2576400    -0.5068660    -0.0292480
  H       -0.9620370    -0.9265990     1.3719500
  H       -1.8114290    -1.4891710    -0.0946800
  H       -2.2490060     0.9624120    -0.3801030
  H       -0.2469520     2.4774150    -0.3092500
  H        2.0071080     1.4278200     0.3572680
  H        2.2048620    -1.0348020    -0.0884010
units angstrom
no_reorient  #important for SAPT in psi4, default
symmetry c1  #important for SAPT in psi4, default
}

set PROPERTIES_ORIGIN ["COM"]
properties('MP2/aug-cc-pvtz', properties = ['dipole'])
--------------------------------------------------------------------------

    Molecular point group: c1
  Charge       = 0
  Multiplicity = 1
  Basis Set: AUG-CC-PVTZ
    Blend: AUG-CC-PVTZ
  Basis Set: (AUG-CC-PVTZ AUX)
    Blend: AUG-CC-PVTZ-JKFIT

    Orbital Energies [Eh]
    ---------------------

    Doubly Occupied:

       1A    -20.585774     2A    -11.299147     3A    -11.288282
       4A    -11.241807     5A    -11.234008     6A    -11.224805
       7A     -1.408930     8A     -1.102564     9A     -1.042692
      10A     -0.901779    11A     -0.838606    12A     -0.722740
      13A     -0.697769    14A     -0.654833    15A     -0.630721
      16A     -0.599897    17A     -0.582707    18A     -0.528400
      19A     -0.508805    20A     -0.470267    21A     -0.418299
      22A     -0.300220

  @DF-RHF Final Energy:  -267.72652106495326

   => Energetics <=

    Nuclear Repulsion Energy =            224.9030209409095562
    One-Electron Energy =                -808.6929825269031653
    Two-Electron Energy =                 316.0634405210403770
    Total Energy =                       -267.7265210649532605
  Basis Set: (AUG-CC-PVTZ AUX)
    Blend: AUG-CC-PVTZ-RI
    Molecular point group: c1

    Geometry (in Angstrom), charge = 0, multiplicity = 1:

       Center              X                  Y                   Z               Mass
    ------------   -----------------  -----------------  -----------------  -----------------
         O            0.176080926630    -1.295891608284    -0.281300794083    15.994914619570
         C           -1.055681073370    -0.791795608284     0.284718205917    12.000000000000
         C           -1.220914373370     0.566817191716    -0.086079794083    12.000000000000
         C           -0.199579073370     1.447096391716    -0.061279794083    12.000000000000
         C            1.104559926630     0.851446391716     0.182957205917    12.000000000000
         C            1.236418926630    -0.479208608284    -0.021319794083    12.000000000000
         H           -0.983258073370    -0.898941608284     1.379878205917     1.007825032230
         H           -1.832650073370    -1.461513608284    -0.086751794083     1.007825032230
         H           -2.270227073370     0.990069391716    -0.372174794083     1.007825032230
         H           -0.268173073370     2.505072391716    -0.301321794083     1.007825032230
         H            1.985886926630     1.455477391716     0.365196205917     1.007825032230
         H            2.183640926630    -1.007144608284    -0.080472794083     1.007825032230

  Basis Set: AUG-CC-PVTZ
    Blend: AUG-CC-PVTZ
  Basis Set: (AUG-CC-PVTZ AUX)
    Blend: AUG-CC-PVTZ-JKFIT
	 Reference Energy          =    -267.7265210649532605 [Eh]
	 Singles Energy            =      -0.0000000000000000 [Eh]
	 Same-Spin Energy          =      -0.2752644937690850 [Eh]
	 Opposite-Spin Energy      =      -0.8879233596796274 [Eh]
	 Correlation Energy        =      -1.1631878534487123 [Eh]
	 Total Energy              =    -268.8897089184019933 [Eh]

	 ================> DF-SCS-MP2 Energies <==================
	-----------------------------------------------------------
	 SCS Same-Spin Scale       =       0.3333333333333333 [-]
	 SCS Opposite-Spin Scale   =       1.2000000000000000 [-]
	 SCS Same-Spin Energy      =      -0.0917548312563617 [Eh]
	 SCS Opposite-Spin Energy  =      -1.0655080316155530 [Eh]
	 SCS Correlation Energy    =      -1.1572628628719146 [Eh]
	 SCS Total Energy          =    -268.8837839278251636 [Eh]
	-----------------------------------------------------------

  Dipole Moment: [D]
     X:    -0.3216      Y:     0.6447      Z:     0.4329     Total:     0.8405

*** Psi4 exiting successfully. Buy a developer a beer!
