                               Psi4 1.3.2 release

  ==> Input File <==

--------------------------------------------------------------------------
#psi4
#
memory 32 gb

molecule  {
0 1
  O        0.1973020    -1.3235490    -0.2892290
  C       -1.2047951    -0.7497437     0.3550624
  C       -1.2574290     0.6116450    -0.1105210
  C       -0.1783580     1.4194390    -0.0692080
  C        1.1257810     0.8237890     0.1750290
  C        1.2576400    -0.5068660    -0.0292480
  H       -0.9620370    -0.9265990     1.3719500
  H       -1.8114290    -1.4891710    -0.0946800
  H       -2.2490060     0.9624120    -0.3801030
  H       -0.2469520     2.4774150    -0.3092500
  H        2.0071080     1.4278200     0.3572680
  H        2.2048620    -1.0348020    -0.0884010
units angstrom
no_reorient  #important for SAPT in psi4, default
symmetry c1  #important for SAPT in psi4, default
}

set PROPERTIES_ORIGIN ["COM"]
properties('MP2/aug-cc-pvtz', properties = ['dipole'])
--------------------------------------------------------------------------

    Molecular point group: c1
  Charge       = 0
  Multiplicity = 1
  Basis Set: AUG-CC-PVTZ
    Blend: AUG-CC-PVTZ
  Basis Set: (AUG-CC-PVTZ AUX)
    Blend: AUG-CC-PVTZ-JKFIT

    Orbital Energies [Eh]
    ---------------------

    Doubly Occupied:

       1A    -20.567137     2A    -11.301762     3A    -11.297296
       4A    -11.248784     5A    -11.229331     6A    -11.217166
       7A     -1.357478     8A     -1.099847     9A     -1.035373
      10A     -0.908093    11A     -0.829295    12A     -0.714652
      13A     -0.702205    14A     -0.638753    15A     -0.629070
      16A     -0.603800    17A     -0.558296    18A     -0.527773
      19A     -0.520340    20A     -0.466939    21A     -0.409730
      22A     -0.298209

  @DF-RHF Final Energy:  -267.70909911475439

   => Energetics <=

    Nuclear Repulsion Energy =            221.2459820799265628
    One-Electron Energy =                -801.5875030509342878
    Two-Electron Energy =                 312.6324218562533588
    Total Energy =                       -267.7090991147543946
  Basis Set: (AUG-CC-PVTZ AUX)
    Blend: AUG-CC-PVTZ-RI
    Molecular point group: c1

    Geometry (in Angstrom), charge = 0, multiplicity = 1:

       Center              X                  Y                   Z               Mass
    ------------   -----------------  -----------------  -----------------  -----------------
         O            0.209440109850    -1.316689940987    -0.290334143113    15.994914619570
         C           -1.192656990150    -0.742884640987     0.353957256887    12.000000000000
         C           -1.245290890150     0.618504059013    -0.111626143113    12.000000000000
         C           -0.166219890150     1.426298059013    -0.070313143113    12.000000000000
         C            1.137919109850     0.830648059013     0.173923856887    12.000000000000
         C            1.269778109850    -0.500006940987    -0.030353143113    12.000000000000
         H           -0.949898890150    -0.919739940987     1.370844856887     1.007825032230
         H           -1.799290890150    -1.482311940987    -0.095785143113     1.007825032230
         H           -2.236867890150     0.969271059013    -0.381208143113     1.007825032230
         H           -0.234813890150     2.484274059013    -0.310355143113     1.007825032230
         H            2.019246109850     1.434679059013     0.356162856887     1.007825032230
         H            2.217000109850    -1.027942940987    -0.089506143113     1.007825032230

  Basis Set: AUG-CC-PVTZ
    Blend: AUG-CC-PVTZ
  Basis Set: (AUG-CC-PVTZ AUX)
    Blend: AUG-CC-PVTZ-JKFIT
	 Reference Energy          =    -267.7090991147543946 [Eh]
	 Singles Energy            =      -0.0000000000000000 [Eh]
	 Same-Spin Energy          =      -0.2763661378003281 [Eh]
	 Opposite-Spin Energy      =      -0.8915079963195207 [Eh]
	 Correlation Energy        =      -1.1678741341198489 [Eh]
	 Total Energy              =    -268.8769732488742648 [Eh]

	 ================> DF-SCS-MP2 Energies <==================
	-----------------------------------------------------------
	 SCS Same-Spin Scale       =       0.3333333333333333 [-]
	 SCS Opposite-Spin Scale   =       1.2000000000000000 [-]
	 SCS Same-Spin Energy      =      -0.0921220459334427 [Eh]
	 SCS Opposite-Spin Energy  =      -1.0698095955834248 [Eh]
	 SCS Correlation Energy    =      -1.1619316415168675 [Eh]
	 SCS Total Energy          =    -268.8710307562712387 [Eh]
	-----------------------------------------------------------

  Dipole Moment: [D]
     X:    -0.7227      Y:     0.6186      Z:     0.6709     Total:     1.1641

*** Psi4 exiting successfully. Buy a developer a beer!
