                               Psi4 1.3.2 release

  ==> Input File <==

--------------------------------------------------------------------------
#psi4
#
memory 32 gb

molecule  {
0 1
  O        0.1973020    -1.3235490    -0.2892290
  C       -1.0344600    -0.8194530     0.2767900
  C       -1.3340946     0.7276361    -0.1348882
  C       -0.1783580     1.4194390    -0.0692080
  C        1.1257810     0.8237890     0.1750290
  C        1.2576400    -0.5068660    -0.0292480
  H       -0.9620370    -0.9265990     1.3719500
  H       -1.8114290    -1.4891710    -0.0946800
  H       -2.2490060     0.9624120    -0.3801030
  H       -0.2469520     2.4774150    -0.3092500
  H        2.0071080     1.4278200     0.3572680
  H        2.2048620    -1.0348020    -0.0884010
units angstrom
no_reorient  #important for SAPT in psi4, default
symmetry c1  #important for SAPT in psi4, default
}

set PROPERTIES_ORIGIN ["COM"]
properties('MP2/aug-cc-pvtz', properties = ['dipole'])
--------------------------------------------------------------------------

    Molecular point group: c1
  Charge       = 0
  Multiplicity = 1
  Basis Set: AUG-CC-PVTZ
    Blend: AUG-CC-PVTZ
  Basis Set: (AUG-CC-PVTZ AUX)
    Blend: AUG-CC-PVTZ-JKFIT

    Orbital Energies [Eh]
    ---------------------

    Doubly Occupied:

       1A    -20.589545     2A    -11.303926     3A    -11.294052
       4A    -11.244467     5A    -11.230146     6A    -11.229078
       7A     -1.406619     8A     -1.091075     9A     -1.026260
      10A     -0.896930    11A     -0.845423    12A     -0.721547
      13A     -0.712139    14A     -0.652176    15A     -0.635130
      16A     -0.606867    17A     -0.562799    18A     -0.541393
      19A     -0.508356    20A     -0.450881    21A     -0.418289
      22A     -0.305963

  @DF-RHF Final Energy:  -267.71721974684249

   => Energetics <=

    Nuclear Repulsion Energy =            221.6155680026731716
    One-Electron Energy =                -802.1194493157374836
    Two-Electron Energy =                 312.7866615662218237
    Total Energy =                       -267.7172197468424883
  Basis Set: (AUG-CC-PVTZ AUX)
    Blend: AUG-CC-PVTZ-RI
    Molecular point group: c1

    Geometry (in Angstrom), charge = 0, multiplicity = 1:

       Center              X                  Y                   Z               Mass
    ------------   -----------------  -----------------  -----------------  -----------------
         O            0.195739373005    -1.323459431189    -0.275321378560    15.994914619570
         C           -1.036022626995    -0.819363431189     0.290697621440    12.000000000000
         C           -1.335657226995     0.727725668811    -0.120980578560    12.000000000000
         C           -0.179920626995     1.419528568811    -0.055300378560    12.000000000000
         C            1.124218373005     0.823878568811     0.188936621440    12.000000000000
         C            1.256077373005    -0.506776431189    -0.015340378560    12.000000000000
         H           -0.963599626995    -0.926509431189     1.385857621440     1.007825032230
         H           -1.812991626995    -1.489081431189    -0.080772378560     1.007825032230
         H           -2.250568626995     0.962501568811    -0.366195378560     1.007825032230
         H           -0.248514626995     2.477504568811    -0.295342378560     1.007825032230
         H            2.005545373005     1.427909568811     0.371175621440     1.007825032230
         H            2.203299373005    -1.034712431189    -0.074493378560     1.007825032230

  Basis Set: AUG-CC-PVTZ
    Blend: AUG-CC-PVTZ
  Basis Set: (AUG-CC-PVTZ AUX)
    Blend: AUG-CC-PVTZ-JKFIT
	 Reference Energy          =    -267.7172197468424883 [Eh]
	 Singles Energy            =      -0.0000000000000000 [Eh]
	 Same-Spin Energy          =      -0.2736012018432225 [Eh]
	 Opposite-Spin Energy      =      -0.8873909918314380 [Eh]
	 Correlation Energy        =      -1.1609921936746606 [Eh]
	 Total Energy              =    -268.8782119405171329 [Eh]

	 ================> DF-SCS-MP2 Energies <==================
	-----------------------------------------------------------
	 SCS Same-Spin Scale       =       0.3333333333333333 [-]
	 SCS Opposite-Spin Scale   =       1.2000000000000000 [-]
	 SCS Same-Spin Energy      =      -0.0912004006144075 [Eh]
	 SCS Opposite-Spin Energy  =      -1.0648691901977256 [Eh]
	 SCS Correlation Energy    =      -1.1560695908121332 [Eh]
	 SCS Total Energy          =    -268.8732893376546258 [Eh]
	-----------------------------------------------------------

  Dipole Moment: [D]
     X:    -0.2833      Y:     0.5725      Z:     0.4013     Total:     0.7544

*** Psi4 exiting successfully. Buy a developer a beer!
