                               Psi4 1.3.2 release

  ==> Input File <==

--------------------------------------------------------------------------
#psi4
#
memory 32 gb

molecule  {
0 1
  O        0.1973020    -1.3235490    -0.2892290
  C       -1.0218630    -0.7995892     0.2859499
  C       -1.2574290     0.6116450    -0.1105210
  C       -0.1783580     1.4194390    -0.0692080
  C        1.1257810     0.8237890     0.1750290
  C        1.2576400    -0.5068660    -0.0292480
  H       -0.9620370    -0.9265990     1.3719500
  H       -1.8114290    -1.4891710    -0.0946800
  H       -2.2490060     0.9624120    -0.3801030
  H       -0.2469520     2.4774150    -0.3092500
  H        2.0071080     1.4278200     0.3572680
  H        2.2048620    -1.0348020    -0.0884010
units angstrom
no_reorient  #important for SAPT in psi4, default
symmetry c1  #important for SAPT in psi4, default
}

set PROPERTIES_ORIGIN ["COM"]
properties('MP2/aug-cc-pvtz', properties = ['dipole'])
--------------------------------------------------------------------------

    Molecular point group: c1
  Charge       = 0
  Multiplicity = 1
  Basis Set: AUG-CC-PVTZ
    Blend: AUG-CC-PVTZ
  Basis Set: (AUG-CC-PVTZ AUX)
    Blend: AUG-CC-PVTZ-JKFIT

    Orbital Energies [Eh]
    ---------------------

    Doubly Occupied:

       1A    -20.587882     2A    -11.301087     3A    -11.291133
       4A    -11.242036     5A    -11.230512     6A    -11.226446
       7A     -1.408435     8A     -1.098230     9A     -1.035072
      10A     -0.897649    11A     -0.841364    12A     -0.718030
      13A     -0.705060    14A     -0.650360    15A     -0.631229
      16A     -0.606645    17A     -0.571152    18A     -0.533788
      19A     -0.503722    20A     -0.474238    21A     -0.419034
      22A     -0.302873

  @DF-RHF Final Energy:  -267.73679898878078

   => Energetics <=

    Nuclear Repulsion Energy =            223.7701562888700266
    One-Electron Energy =                -806.4619594783769116
    Two-Electron Energy =                 314.9550042007261368
    Total Energy =                       -267.7367989887807767
  Basis Set: (AUG-CC-PVTZ AUX)
    Blend: AUG-CC-PVTZ-RI
    Molecular point group: c1

    Geometry (in Angstrom), charge = 0, multiplicity = 1:

       Center              X                  Y                   Z               Mass
    ------------   -----------------  -----------------  -----------------  -----------------
         O            0.182683219267    -1.309399199835    -0.280225279768    15.994914619570
         C           -1.036481780733    -0.785439399835     0.294953620232    12.000000000000
         C           -1.272047780733     0.625794800165    -0.101517279768    12.000000000000
         C           -0.192976780733     1.433588800165    -0.060204279768    12.000000000000
         C            1.111162219267     0.837938800165     0.184032720232    12.000000000000
         C            1.243021219267    -0.492716199835    -0.020244279768    12.000000000000
         H           -0.976655780733    -0.912449199835     1.380953720232     1.007825032230
         H           -1.826047780733    -1.475021199835    -0.085676279768     1.007825032230
         H           -2.263624780733     0.976561800165    -0.371099279768     1.007825032230
         H           -0.261570780733     2.491564800165    -0.300246279768     1.007825032230
         H            1.992489219267     1.441969800165     0.366271720232     1.007825032230
         H            2.190243219267    -1.020652199835    -0.079397279768     1.007825032230

  Basis Set: AUG-CC-PVTZ
    Blend: AUG-CC-PVTZ
  Basis Set: (AUG-CC-PVTZ AUX)
    Blend: AUG-CC-PVTZ-JKFIT
	 Reference Energy          =    -267.7367989887807767 [Eh]
	 Singles Energy            =      -0.0000000000000000 [Eh]
	 Same-Spin Energy          =      -0.2743889840579862 [Eh]
	 Opposite-Spin Energy      =      -0.8871101636664734 [Eh]
	 Correlation Energy        =      -1.1614991477244596 [Eh]
	 Total Energy              =    -268.8982981365052183 [Eh]

	 ================> DF-SCS-MP2 Energies <==================
	-----------------------------------------------------------
	 SCS Same-Spin Scale       =       0.3333333333333333 [-]
	 SCS Opposite-Spin Scale   =       1.2000000000000000 [-]
	 SCS Same-Spin Energy      =      -0.0914629946859954 [Eh]
	 SCS Opposite-Spin Energy  =      -1.0645321963997680 [Eh]
	 SCS Correlation Energy    =      -1.1559951910857635 [Eh]
	 SCS Total Energy          =    -268.8927941798665415 [Eh]
	-----------------------------------------------------------

  Dipole Moment: [D]
     X:    -0.2995      Y:     0.6527      Z:     0.4324     Total:     0.8383

*** Psi4 exiting successfully. Buy a developer a beer!
