                               Psi4 1.3.2 release

  ==> Input File <==

--------------------------------------------------------------------------
#psi4
#
memory 32 gb

molecule  {
0 1
  O        0.1973020    -1.3235490    -0.2892290
  C       -1.1872726    -0.8421248     0.2491983
  C       -1.2574290     0.6116450    -0.1105210
  C       -0.1783580     1.4194390    -0.0692080
  C        1.1257810     0.8237890     0.1750290
  C        1.2576400    -0.5068660    -0.0292480
  H       -0.9620370    -0.9265990     1.3719500
  H       -1.8114290    -1.4891710    -0.0946800
  H       -2.2490060     0.9624120    -0.3801030
  H       -0.2469520     2.4774150    -0.3092500
  H        2.0071080     1.4278200     0.3572680
  H        2.2048620    -1.0348020    -0.0884010
units angstrom
no_reorient  #important for SAPT in psi4, default
symmetry c1  #important for SAPT in psi4, default
}

set PROPERTIES_ORIGIN ["COM"]
properties('MP2/aug-cc-pvtz', properties = ['dipole'])
--------------------------------------------------------------------------

    Molecular point group: c1
  Charge       = 0
  Multiplicity = 1
  Basis Set: AUG-CC-PVTZ
    Blend: AUG-CC-PVTZ
  Basis Set: (AUG-CC-PVTZ AUX)
    Blend: AUG-CC-PVTZ-JKFIT

    Orbital Energies [Eh]
    ---------------------

    Doubly Occupied:

       1A    -20.574517     2A    -11.299085     3A    -11.298439
       4A    -11.245270     5A    -11.234388     6A    -11.220307
       7A     -1.373448     8A     -1.092953     9A     -1.036201
      10A     -0.909839    11A     -0.832997    12A     -0.723275
      13A     -0.691050    14A     -0.644317    15A     -0.637840
      16A     -0.600345    17A     -0.572364    18A     -0.527003
      19A     -0.515149    20A     -0.463697    21A     -0.414967
      22A     -0.297459

  @DF-RHF Final Energy:  -267.70923324841692

   => Energetics <=

    Nuclear Repulsion Energy =            221.3686622365536039
    One-Electron Energy =                -801.7459681128178772
    Two-Electron Energy =                 312.6680726278473230
    Total Energy =                       -267.7092332484169219
  Basis Set: (AUG-CC-PVTZ AUX)
    Blend: AUG-CC-PVTZ-RI
    Molecular point group: c1

    Geometry (in Angstrom), charge = 0, multiplicity = 1:

       Center              X                  Y                   Z               Mass
    ------------   -----------------  -----------------  -----------------  -----------------
         O            0.206877150067    -1.303177654272    -0.274849741303    15.994914619570
         C           -1.177697449933    -0.821753454272     0.263577558697    12.000000000000
         C           -1.247853849933     0.632016345728    -0.096141741303    12.000000000000
         C           -0.168782849933     1.439810345728    -0.054828741303    12.000000000000
         C            1.135356150067     0.844160345728     0.189408258697    12.000000000000
         C            1.267215150067    -0.486494654272    -0.014868741303    12.000000000000
         H           -0.952461849933    -0.906227654272     1.386329258697     1.007825032230
         H           -1.801853849933    -1.468799654272    -0.080300741303     1.007825032230
         H           -2.239430849933     0.982783345728    -0.365723741303     1.007825032230
         H           -0.237376849933     2.497786345728    -0.294870741303     1.007825032230
         H            2.016683150067     1.448191345728     0.371647258697     1.007825032230
         H            2.214437150067    -1.014430654272    -0.074021741303     1.007825032230

  Basis Set: AUG-CC-PVTZ
    Blend: AUG-CC-PVTZ
  Basis Set: (AUG-CC-PVTZ AUX)
    Blend: AUG-CC-PVTZ-JKFIT
	 Reference Energy          =    -267.7092332484169219 [Eh]
	 Singles Energy            =      -0.0000000000000000 [Eh]
	 Same-Spin Energy          =      -0.2746755785339959 [Eh]
	 Opposite-Spin Energy      =      -0.8889376289455155 [Eh]
	 Correlation Energy        =      -1.1636132074795116 [Eh]
	 Total Energy              =    -268.8728464558964220 [Eh]

	 ================> DF-SCS-MP2 Energies <==================
	-----------------------------------------------------------
	 SCS Same-Spin Scale       =       0.3333333333333333 [-]
	 SCS Opposite-Spin Scale   =       1.2000000000000000 [-]
	 SCS Same-Spin Energy      =      -0.0915585261779986 [Eh]
	 SCS Opposite-Spin Energy  =      -1.0667251547346186 [Eh]
	 SCS Correlation Energy    =      -1.1582836809126174 [Eh]
	 SCS Total Energy          =    -268.8675169293295539 [Eh]
	-----------------------------------------------------------

  Dipole Moment: [D]
     X:    -0.6458      Y:     0.5473      Z:     0.4539     Total:     0.9605

*** Psi4 exiting successfully. Buy a developer a beer!
