                               Psi4 1.3.2 release

  ==> Input File <==

--------------------------------------------------------------------------
#psi4
#
memory 32 gb

molecule  {
0 1
  O        0.1973020    -1.3235490    -0.2892290
  C       -1.0344600    -0.8194530     0.2767900
  C       -1.2574290     0.6116450    -0.1105210
  C       -0.1573059     1.4653734    -0.0643170
  C        1.1257810     0.8237890     0.1750290
  C        1.2576400    -0.5068660    -0.0292480
  H       -0.9620370    -0.9265990     1.3719500
  H       -1.8114290    -1.4891710    -0.0946800
  H       -2.2490060     0.9624120    -0.3801030
  H       -0.2469520     2.4774150    -0.3092500
  H        2.0071080     1.4278200     0.3572680
  H        2.2048620    -1.0348020    -0.0884010
units angstrom
no_reorient  #important for SAPT in psi4, default
symmetry c1  #important for SAPT in psi4, default
}

set PROPERTIES_ORIGIN ["COM"]
properties('MP2/aug-cc-pvtz', properties = ['dipole'])
--------------------------------------------------------------------------

    Molecular point group: c1
  Charge       = 0
  Multiplicity = 1
  Basis Set: AUG-CC-PVTZ
    Blend: AUG-CC-PVTZ
  Basis Set: (AUG-CC-PVTZ AUX)
    Blend: AUG-CC-PVTZ-JKFIT

    Orbital Energies [Eh]
    ---------------------

    Doubly Occupied:

       1A    -20.587234     2A    -11.301347     3A    -11.292433
       4A    -11.244861     5A    -11.238326     6A    -11.227081
       7A     -1.407253     8A     -1.090561     9A     -1.033411
      10A     -0.897864    11A     -0.842341    12A     -0.722134
      13A     -0.703892    14A     -0.648874    15A     -0.633151
      16A     -0.607843    17A     -0.575852    18A     -0.531238
      19A     -0.504023    20A     -0.476204    21A     -0.414723
      22A     -0.297429

  @DF-RHF Final Energy:  -267.73244948624841

   => Energetics <=

    Nuclear Repulsion Energy =            222.7408936014185201
    One-Electron Energy =                -804.3905381024295593
    Two-Electron Energy =                 313.9171950147626262
    Total Energy =                       -267.7324494862484130
  Basis Set: (AUG-CC-PVTZ AUX)
    Blend: AUG-CC-PVTZ-RI
    Molecular point group: c1

    Geometry (in Angstrom), charge = 0, multiplicity = 1:

       Center              X                  Y                   Z               Mass
    ------------   -----------------  -----------------  -----------------  -----------------
         O            0.181446518953    -1.313212462743    -0.279600881479    15.994914619570
         C           -1.050315481047    -0.809116462743     0.286418118521    12.000000000000
         C           -1.273284481047     0.621981537257    -0.100892881479    12.000000000000
         C           -0.173161381047     1.475709937257    -0.054688881479    12.000000000000
         C            1.109925518953     0.834125537257     0.184657118521    12.000000000000
         C            1.241784518953    -0.496529462743    -0.019619881479    12.000000000000
         H           -0.977892481047    -0.916262462743     1.381578118521     1.007825032230
         H           -1.827284481047    -1.478834462743    -0.085051881479     1.007825032230
         H           -2.264861481047     0.972748537257    -0.370474881479     1.007825032230
         H           -0.262807481047     2.487751537257    -0.299621881479     1.007825032230
         H            1.991252518953     1.438156537257     0.366896118521     1.007825032230
         H            2.189006518953    -1.024465462743    -0.078772881479     1.007825032230

  Basis Set: AUG-CC-PVTZ
    Blend: AUG-CC-PVTZ
  Basis Set: (AUG-CC-PVTZ AUX)
    Blend: AUG-CC-PVTZ-JKFIT
	 Reference Energy          =    -267.7324494862484130 [Eh]
	 Singles Energy            =      -0.0000000000000000 [Eh]
	 Same-Spin Energy          =      -0.2746542577033569 [Eh]
	 Opposite-Spin Energy      =      -0.8881274696764705 [Eh]
	 Correlation Energy        =      -1.1627817273798273 [Eh]
	 Total Energy              =    -268.8952312136282217 [Eh]

	 ================> DF-SCS-MP2 Energies <==================
	-----------------------------------------------------------
	 SCS Same-Spin Scale       =       0.3333333333333333 [-]
	 SCS Opposite-Spin Scale   =       1.2000000000000000 [-]
	 SCS Same-Spin Energy      =      -0.0915514192344523 [Eh]
	 SCS Opposite-Spin Energy  =      -1.0657529636117646 [Eh]
	 SCS Correlation Energy    =      -1.1573043828462168 [Eh]
	 SCS Total Energy          =    -268.8897538690946476 [Eh]
	-----------------------------------------------------------

  Dipole Moment: [D]
     X:    -0.3311      Y:     0.6242      Z:     0.4056     Total:     0.8147

*** Psi4 exiting successfully. Buy a developer a beer!
