                               Psi4 1.4a3.dev225

  ==> Input File <==

--------------------------------------------------------------------------
#psi4
#
memory 32 gb

molecule  {
0 1
  O        0.1973020    -1.3235490    -0.2892290
  C       -1.0344600    -0.8194530     0.2767900
  C       -1.2574290     0.6116450    -0.1105210
  C       -0.1783580     1.4194390    -0.0692080
  C        1.1437149     0.8155979     0.1783876
  C        1.2576400    -0.5068660    -0.0292480
  H       -0.9620370    -0.9265990     1.3719500
  H       -1.8114290    -1.4891710    -0.0946800
  H       -2.2490060     0.9624120    -0.3801030
  H       -0.2469520     2.4774150    -0.3092500
  H        2.0071080     1.4278200     0.3572680
  H        2.2048620    -1.0348020    -0.0884010
units angstrom
no_reorient  #important for SAPT in psi4, default
symmetry c1  #important for SAPT in psi4, default
}

set PROPERTIES_ORIGIN ["COM"]
properties('MP2/aug-cc-pvtz', properties = ['dipole'])
--------------------------------------------------------------------------

    Molecular point group: c1
  Charge       = 0
  Multiplicity = 1
  Basis Set: AUG-CC-PVTZ
    Blend: AUG-CC-PVTZ
  Basis Set: (AUG-CC-PVTZ AUX)
    Blend: AUG-CC-PVTZ-JKFIT

    Orbital Energies [Eh]
    ---------------------

    Doubly Occupied:

       1A    -20.586948     2A    -11.299052     3A    -11.291088
       4A    -11.242978     5A    -11.231592     6A    -11.225560
       7A     -1.407085     8A     -1.094127     9A     -1.035920
      10A     -0.899763    11A     -0.838291    12A     -0.717749
      13A     -0.703939    14A     -0.650228    15A     -0.633779
      16A     -0.605886    17A     -0.571918    18A     -0.530037
      19A     -0.509115    20A     -0.470959    21A     -0.417171
      22A     -0.304885

  @DF-RHF Final Energy:  -267.73852531481037

   => Energetics <=

    Nuclear Repulsion Energy =            223.3505395278207288
    One-Electron Energy =                -805.6419901715944434
    Two-Electron Energy =                 314.5529253289633402
    Total Energy =                       -267.7385253148103743
  Basis Set: (AUG-CC-PVTZ AUX)
    Blend: AUG-CC-PVTZ-RI
    Molecular point group: c1

    Geometry (in Angstrom), charge = 0, multiplicity = 1:

       Center              X                  Y                   Z               Mass
    ------------   -----------------  -----------------  -----------------  -----------------
         O            0.181902608049    -1.305295699741    -0.279376742254    15.994914619570
         C           -1.049859391951    -0.801199699741     0.286642257746    12.000000000000
         C           -1.272828391951     0.629898300259    -0.100668742254    12.000000000000
         C           -0.193757391951     1.437692300259    -0.059355742254    12.000000000000
         C            1.128315508049     0.833851200259     0.188239857746    12.000000000000
         C            1.242240608049    -0.488612699741    -0.019395742254    12.000000000000
         H           -0.977436391951    -0.908345699741     1.381802257746     1.007825032230
         H           -1.826828391951    -1.470917699741    -0.084827742254     1.007825032230
         H           -2.264405391951     0.980665300259    -0.370250742254     1.007825032230
         H           -0.262351391951     2.495668300259    -0.299397742254     1.007825032230
         H            1.991708608049     1.446073300259     0.367120257746     1.007825032230
         H            2.189462608049    -1.016548699741    -0.078548742254     1.007825032230

  Basis Set: AUG-CC-PVTZ
    Blend: AUG-CC-PVTZ
  Basis Set: (AUG-CC-PVTZ AUX)
    Blend: AUG-CC-PVTZ-JKFIT
	 Reference Energy          =    -267.7385253148103743 [Eh]
	 Singles Energy            =      -0.0000000000000000 [Eh]
	 Same-Spin Energy          =      -0.2736906115357197 [Eh]
	 Opposite-Spin Energy      =      -0.8862804064166769 [Eh]
	 Correlation Energy        =      -1.1599710179523965 [Eh]
	 Total Energy              =    -268.8984963327627611 [Eh]

	 ================> DF-SCS-MP2 Energies <==================
	-----------------------------------------------------------
	 SCS Same-Spin Scale       =       0.3333333333333333 [-]
	 SCS Opposite-Spin Scale   =       1.2000000000000000 [-]
	 SCS Same-Spin Energy      =      -0.0912302038452399 [Eh]
	 SCS Opposite-Spin Energy  =      -1.0635364877000122 [Eh]
	 SCS Correlation Energy    =      -1.1547666915452521 [Eh]
	 SCS Total Energy          =    -268.8932920063556367 [Eh]
	-----------------------------------------------------------

  Dipole Moment: [D]
     X:    -0.3410      Y:     0.6412      Z:     0.4227     Total:     0.8403

*** Psi4 exiting successfully. Buy a developer a beer!
