                               Psi4 1.3.2 release

  ==> Input File <==

--------------------------------------------------------------------------
#psi4
#
memory 32 gb

molecule  {
0 1
  O        0.1973020    -1.3235490    -0.2892290
  C       -0.9338397    -0.7956052     0.2928438
  C       -1.2574290     0.6116450    -0.1105210
  C       -0.1783580     1.4194390    -0.0692080
  C        1.1257810     0.8237890     0.1750290
  C        1.2576400    -0.5068660    -0.0292480
  H       -0.9620370    -0.9265990     1.3719500
  H       -1.8114290    -1.4891710    -0.0946800
  H       -2.2490060     0.9624120    -0.3801030
  H       -0.2469520     2.4774150    -0.3092500
  H        2.0071080     1.4278200     0.3572680
  H        2.2048620    -1.0348020    -0.0884010
units angstrom
no_reorient  #important for SAPT in psi4, default
symmetry c1  #important for SAPT in psi4, default
}

set PROPERTIES_ORIGIN ["COM"]
properties('MP2/aug-cc-pvtz', properties = ['dipole'])
--------------------------------------------------------------------------

    Molecular point group: c1
  Charge       = 0
  Multiplicity = 1
  Basis Set: AUG-CC-PVTZ
    Blend: AUG-CC-PVTZ
  Basis Set: (AUG-CC-PVTZ AUX)
    Blend: AUG-CC-PVTZ-JKFIT

    Orbital Energies [Eh]
    ---------------------

    Doubly Occupied:

       1A    -20.594759     2A    -11.302614     3A    -11.291560
       4A    -11.240328     5A    -11.231262     6A    -11.230521
       7A     -1.434383     8A     -1.100584     9A     -1.035118
      10A     -0.894352    11A     -0.847097    12A     -0.722046
      13A     -0.712682    14A     -0.658899    15A     -0.635095
      16A     -0.607725    17A     -0.576882    18A     -0.537901
      19A     -0.481123    20A     -0.472797    21A     -0.420572
      22A     -0.305763

  @DF-RHF Final Energy:  -267.72698565637700

   => Energetics <=

    Nuclear Repulsion Energy =            225.0171416243709075
    One-Electron Energy =                -808.8201246153919328
    Two-Electron Energy =                 316.0759973346440574
    Total Energy =                       -267.7269856563769963
  Basis Set: (AUG-CC-PVTZ AUX)
    Blend: AUG-CC-PVTZ-RI
    Molecular point group: c1

    Geometry (in Angstrom), charge = 0, multiplicity = 1:

       Center              X                  Y                   Z               Mass
    ------------   -----------------  -----------------  -----------------  -----------------
         O            0.169808333958    -1.309981926716    -0.281233628374    15.994914619570
         C           -0.961333366042    -0.782038126716     0.300839171626    12.000000000000
         C           -1.284922666042     0.625212073284    -0.102525628374    12.000000000000
         C           -0.205851666042     1.433006073284    -0.061212628374    12.000000000000
         C            1.098287333958     0.837356073284     0.183024371626    12.000000000000
         C            1.230146333958    -0.493298926716    -0.021252628374    12.000000000000
         H           -0.989530666042    -0.913031926716     1.379945371626     1.007825032230
         H           -1.838922666042    -1.475603926716    -0.086684628374     1.007825032230
         H           -2.276499666042     0.975979073284    -0.372107628374     1.007825032230
         H           -0.274445666042     2.490982073284    -0.301254628374     1.007825032230
         H            1.979614333958     1.441387073284     0.365263371626     1.007825032230
         H            2.177368333958    -1.021234926716    -0.080405628374     1.007825032230

  Basis Set: AUG-CC-PVTZ
    Blend: AUG-CC-PVTZ
  Basis Set: (AUG-CC-PVTZ AUX)
    Blend: AUG-CC-PVTZ-JKFIT
	 Reference Energy          =    -267.7269856563769963 [Eh]
	 Singles Energy            =      -0.0000000000000000 [Eh]
	 Same-Spin Energy          =      -0.2745933696442858 [Eh]
	 Opposite-Spin Energy      =      -0.8870873873171244 [Eh]
	 Correlation Energy        =      -1.1616807569614103 [Eh]
	 Total Energy              =    -268.8886664133383988 [Eh]

	 ================> DF-SCS-MP2 Energies <==================
	-----------------------------------------------------------
	 SCS Same-Spin Scale       =       0.3333333333333333 [-]
	 SCS Opposite-Spin Scale   =       1.2000000000000000 [-]
	 SCS Same-Spin Energy      =      -0.0915311232147619 [Eh]
	 SCS Opposite-Spin Energy  =      -1.0645048647805493 [Eh]
	 SCS Correlation Energy    =      -1.1560359879953113 [Eh]
	 SCS Total Energy          =    -268.8830216443723202 [Eh]
	-----------------------------------------------------------

  Dipole Moment: [D]
     X:    -0.0680      Y:     0.7127      Z:     0.3893     Total:     0.8149

*** Psi4 exiting successfully. Buy a developer a beer!
