                               Psi4 1.3.2 release

  ==> Input File <==

--------------------------------------------------------------------------
#psi4
#
memory 32 gb

molecule  {
0 1
  O        0.1973020    -1.3235490    -0.2892290
  C       -1.0344600    -0.8194530     0.2767900
  C       -1.2574290     0.6116450    -0.1105210
  C       -0.1783580     1.4194390    -0.0692080
  C        1.3051202     0.7418780     0.2086153
  C        1.2576400    -0.5068660    -0.0292480
  H       -0.9620370    -0.9265990     1.3719500
  H       -1.8114290    -1.4891710    -0.0946800
  H       -2.2490060     0.9624120    -0.3801030
  H       -0.2469520     2.4774150    -0.3092500
  H        2.0071080     1.4278200     0.3572680
  H        2.2048620    -1.0348020    -0.0884010
units angstrom
no_reorient  #important for SAPT in psi4, default
symmetry c1  #important for SAPT in psi4, default
}

set PROPERTIES_ORIGIN ["COM"]
properties('MP2/aug-cc-pvtz', properties = ['dipole'])
--------------------------------------------------------------------------

    Molecular point group: c1
  Charge       = 0
  Multiplicity = 1
  Basis Set: AUG-CC-PVTZ
    Blend: AUG-CC-PVTZ
  Basis Set: (AUG-CC-PVTZ AUX)
    Blend: AUG-CC-PVTZ-JKFIT

    Orbital Energies [Eh]
    ---------------------

    Doubly Occupied:

       1A    -20.588233     2A    -11.290816     3A    -11.287721
       4A    -11.250097     5A    -11.232780     6A    -11.223640
       7A     -1.406393     8A     -1.081611     9A     -1.048865
      10A     -0.908281    11A     -0.824272    12A     -0.720263
      13A     -0.706019    14A     -0.671148    15A     -0.633835
      16A     -0.608148    17A     -0.567322    18A     -0.519023
      19A     -0.507175    20A     -0.452399    21A     -0.406136
      22A     -0.325987

  @DF-RHF Final Energy:  -267.70537511676832

   => Energetics <=

    Nuclear Repulsion Energy =            222.1510115564045975
    One-Electron Energy =                -803.1924392470077692
    Two-Electron Energy =                 313.3360525738348770
    Total Energy =                       -267.7053751167683231
  Basis Set: (AUG-CC-PVTZ AUX)
    Blend: AUG-CC-PVTZ-RI
    Molecular point group: c1

    Geometry (in Angstrom), charge = 0, multiplicity = 1:

       Center              X                  Y                   Z               Mass
    ------------   -----------------  -----------------  -----------------  -----------------
         O            0.158294373346    -1.294512926799    -0.283798050824    15.994914619570
         C           -1.073467626654    -0.790416926799     0.282220949176    12.000000000000
         C           -1.296436626654     0.640681073201    -0.105090050824    12.000000000000
         C           -0.217365626654     1.448475073201    -0.063777050824    12.000000000000
         C            1.266112573346     0.770914073201     0.214046249176    12.000000000000
         C            1.218632373346    -0.477829926799    -0.023817050824    12.000000000000
         H           -1.001044626654    -0.897562926799     1.377380949176     1.007825032230
         H           -1.850436626654    -1.460134926799    -0.089249050824     1.007825032230
         H           -2.288013626654     0.991448073201    -0.374672050824     1.007825032230
         H           -0.285959626654     2.506451073201    -0.303819050824     1.007825032230
         H            1.968100373346     1.456856073201     0.362698949176     1.007825032230
         H            2.165854373346    -1.005765926799    -0.082970050824     1.007825032230

  Basis Set: AUG-CC-PVTZ
    Blend: AUG-CC-PVTZ
  Basis Set: (AUG-CC-PVTZ AUX)
    Blend: AUG-CC-PVTZ-JKFIT
	 Reference Energy          =    -267.7053751167683231 [Eh]
	 Singles Energy            =      -0.0000000000000000 [Eh]
	 Same-Spin Energy          =      -0.2717238935985820 [Eh]
	 Opposite-Spin Energy      =      -0.8851047030527649 [Eh]
	 Correlation Energy        =      -1.1568285966513470 [Eh]
	 Total Energy              =    -268.8622037134196603 [Eh]

	 ================> DF-SCS-MP2 Energies <==================
	-----------------------------------------------------------
	 SCS Same-Spin Scale       =       0.3333333333333333 [-]
	 SCS Opposite-Spin Scale   =       1.2000000000000000 [-]
	 SCS Same-Spin Energy      =      -0.0905746311995273 [Eh]
	 SCS Opposite-Spin Energy  =      -1.0621256436633177 [Eh]
	 SCS Correlation Energy    =      -1.1527002748628450 [Eh]
	 SCS Total Energy          =    -268.8580753916311892 [Eh]
	-----------------------------------------------------------

  Dipole Moment: [D]
     X:    -0.4339      Y:     0.7817      Z:     0.4500     Total:     1.0010

*** Psi4 exiting successfully. Buy a developer a beer!
