                               Psi4 1.3.2 release

  ==> Input File <==

--------------------------------------------------------------------------
#psi4
#
memory 32 gb

molecule  {
0 1
  O        0.1973020    -1.3235490    -0.2892290
  C       -1.0344600    -0.8194530     0.2767900
  C       -1.2574290     0.6116450    -0.1105210
  C       -0.1690016     1.4420918    -0.0626028
  C        1.1257810     0.8237890     0.1750290
  C        1.2576400    -0.5068660    -0.0292480
  H       -0.9620370    -0.9265990     1.3719500
  H       -1.8114290    -1.4891710    -0.0946800
  H       -2.2490060     0.9624120    -0.3801030
  H       -0.2469520     2.4774150    -0.3092500
  H        2.0071080     1.4278200     0.3572680
  H        2.2048620    -1.0348020    -0.0884010
units angstrom
no_reorient  #important for SAPT in psi4, default
symmetry c1  #important for SAPT in psi4, default
}

set PROPERTIES_ORIGIN ["COM"]
properties('MP2/aug-cc-pvtz', properties = ['dipole'])
--------------------------------------------------------------------------

    Molecular point group: c1
  Charge       = 0
  Multiplicity = 1
  Basis Set: AUG-CC-PVTZ
    Blend: AUG-CC-PVTZ
  Basis Set: (AUG-CC-PVTZ AUX)
    Blend: AUG-CC-PVTZ-JKFIT

    Orbital Energies [Eh]
    ---------------------

    Doubly Occupied:

       1A    -20.587114     2A    -11.301065     3A    -11.291733
       4A    -11.243236     5A    -11.234739     6A    -11.226572
       7A     -1.407259     8A     -1.093456     9A     -1.033998
      10A     -0.898004    11A     -0.841534    12A     -0.719833
      13A     -0.703736    14A     -0.649105    15A     -0.633065
      16A     -0.606660    17A     -0.573962    18A     -0.531864
      19A     -0.506312    20A     -0.473667    21A     -0.416845
      22A     -0.299980

  @DF-RHF Final Energy:  -267.73632069314772

   => Energetics <=

    Nuclear Repulsion Energy =            223.1235684422443910
    One-Electron Energy =                -805.1722987773398472
    Two-Electron Energy =                 314.3124096419477382
    Total Energy =                       -267.7363206931477180
  Basis Set: (AUG-CC-PVTZ AUX)
    Blend: AUG-CC-PVTZ-RI
    Molecular point group: c1

    Geometry (in Angstrom), charge = 0, multiplicity = 1:

       Center              X                  Y                   Z               Mass
    ------------   -----------------  -----------------  -----------------  -----------------
         O            0.183157211418    -1.309807137905    -0.279851612006    15.994914619570
         C           -1.048604788582    -0.805711137905     0.286167387994    12.000000000000
         C           -1.271573788582     0.625386862095    -0.101143612006    12.000000000000
         C           -0.183146388582     1.455833662095    -0.053225412006    12.000000000000
         C            1.111636211418     0.837530862095     0.184406387994    12.000000000000
         C            1.243495211418    -0.493124137905    -0.019870612006    12.000000000000
         H           -0.976181788582    -0.912857137905     1.381327387994     1.007825032230
         H           -1.825573788582    -1.475429137905    -0.085302612006     1.007825032230
         H           -2.263150788582     0.976153862095    -0.370725612006     1.007825032230
         H           -0.261096788582     2.491156862095    -0.299872612006     1.007825032230
         H            1.992963211418     1.441561862095     0.366645387994     1.007825032230
         H            2.190717211418    -1.021060137905    -0.079023612006     1.007825032230

  Basis Set: AUG-CC-PVTZ
    Blend: AUG-CC-PVTZ
  Basis Set: (AUG-CC-PVTZ AUX)
    Blend: AUG-CC-PVTZ-JKFIT
	 Reference Energy          =    -267.7363206931477180 [Eh]
	 Singles Energy            =      -0.0000000000000000 [Eh]
	 Same-Spin Energy          =      -0.2743504090569052 [Eh]
	 Opposite-Spin Energy      =      -0.8873600380621059 [Eh]
	 Correlation Energy        =      -1.1617104471190112 [Eh]
	 Total Energy              =    -268.8980311402667098 [Eh]

	 ================> DF-SCS-MP2 Energies <==================
	-----------------------------------------------------------
	 SCS Same-Spin Scale       =       0.3333333333333333 [-]
	 SCS Opposite-Spin Scale   =       1.2000000000000000 [-]
	 SCS Same-Spin Energy      =      -0.0914501363523017 [Eh]
	 SCS Opposite-Spin Energy  =      -1.0648320456745271 [Eh]
	 SCS Correlation Energy    =      -1.1562821820268288 [Eh]
	 SCS Total Energy          =    -268.8926028751745321 [Eh]
	-----------------------------------------------------------

  Dipole Moment: [D]
     X:    -0.3296      Y:     0.6237      Z:     0.4099     Total:     0.8159

*** Psi4 exiting successfully. Buy a developer a beer!
