                               Psi4 1.3.2 release

  ==> Input File <==

--------------------------------------------------------------------------
#psi4
#
memory 32 gb

molecule  {
0 1
  O        0.1973020    -1.3235490    -0.2892290
  C       -1.0344600    -0.8194530     0.2767900
  C       -1.2710519     0.6303954    -0.1146209
  C       -0.1783580     1.4194390    -0.0692080
  C        1.1257810     0.8237890     0.1750290
  C        1.2576400    -0.5068660    -0.0292480
  H       -0.9620370    -0.9265990     1.3719500
  H       -1.8114290    -1.4891710    -0.0946800
  H       -2.2490060     0.9624120    -0.3801030
  H       -0.2469520     2.4774150    -0.3092500
  H        2.0071080     1.4278200     0.3572680
  H        2.2048620    -1.0348020    -0.0884010
units angstrom
no_reorient  #important for SAPT in psi4, default
symmetry c1  #important for SAPT in psi4, default
}

set PROPERTIES_ORIGIN ["COM"]
properties('MP2/aug-cc-pvtz', properties = ['dipole'])
--------------------------------------------------------------------------

    Molecular point group: c1
  Charge       = 0
  Multiplicity = 1
  Basis Set: AUG-CC-PVTZ
    Blend: AUG-CC-PVTZ
  Basis Set: (AUG-CC-PVTZ AUX)
    Blend: AUG-CC-PVTZ-JKFIT

    Orbital Energies [Eh]
    ---------------------

    Doubly Occupied:

       1A    -20.587448     2A    -11.301340     3A    -11.291782
       4A    -11.241915     5A    -11.230887     6A    -11.226573
       7A     -1.407105     8A     -1.095186     9A     -1.032888
      10A     -0.897979    11A     -0.841199    12A     -0.717372
      13A     -0.705408    14A     -0.649067    15A     -0.634046
      16A     -0.606401    17A     -0.569790    18A     -0.534036
      19A     -0.508223    20A     -0.469164    21A     -0.418940
      22A     -0.302804

  @DF-RHF Final Energy:  -267.73778992658384

   => Energetics <=

    Nuclear Repulsion Energy =            223.1636155234538137
    One-Electron Energy =                -805.2636996648448076
    Two-Electron Energy =                 314.3622942148071502
    Total Energy =                       -267.7377899265838437
  Basis Set: (AUG-CC-PVTZ AUX)
    Blend: AUG-CC-PVTZ-RI
    Molecular point group: c1

    Geometry (in Angstrom), charge = 0, multiplicity = 1:

       Center              X                  Y                   Z               Mass
    ------------   -----------------  -----------------  -----------------  -----------------
         O            0.186518319806    -1.309236346394    -0.278285811420    15.994914619570
         C           -1.045243680194    -0.805140346394     0.287733188580    12.000000000000
         C           -1.281835580194     0.644708053606    -0.103677711420    12.000000000000
         C           -0.189141680194     1.433751653606    -0.058264811420    12.000000000000
         C            1.114997319806     0.838101653606     0.185972188580    12.000000000000
         C            1.246856319806    -0.492553346394    -0.018304811420    12.000000000000
         H           -0.972820680194    -0.912286346394     1.382893188580     1.007825032230
         H           -1.822212680194    -1.474858346394    -0.083736811420     1.007825032230
         H           -2.259789680194     0.976724653606    -0.369159811420     1.007825032230
         H           -0.257735680194     2.491727653606    -0.298306811420     1.007825032230
         H            1.996324319806     1.442132653606     0.368211188580     1.007825032230
         H            2.194078319806    -1.020489346394    -0.077457811420     1.007825032230

  Basis Set: AUG-CC-PVTZ
    Blend: AUG-CC-PVTZ
  Basis Set: (AUG-CC-PVTZ AUX)
    Blend: AUG-CC-PVTZ-JKFIT
	 Reference Energy          =    -267.7377899265838437 [Eh]
	 Singles Energy            =      -0.0000000000000000 [Eh]
	 Same-Spin Energy          =      -0.2739338058576081 [Eh]
	 Opposite-Spin Energy      =      -0.8866524384506851 [Eh]
	 Correlation Energy        =      -1.1605862443082933 [Eh]
	 Total Energy              =    -268.8983761708921634 [Eh]

	 ================> DF-SCS-MP2 Energies <==================
	-----------------------------------------------------------
	 SCS Same-Spin Scale       =       0.3333333333333333 [-]
	 SCS Opposite-Spin Scale   =       1.2000000000000000 [-]
	 SCS Same-Spin Energy      =      -0.0913112686192027 [Eh]
	 SCS Opposite-Spin Energy  =      -1.0639829261408220 [Eh]
	 SCS Correlation Energy    =      -1.1552941947600248 [Eh]
	 SCS Total Energy          =    -268.8930841213438612 [Eh]
	-----------------------------------------------------------

  Dipole Moment: [D]
     X:    -0.3246      Y:     0.6152      Z:     0.4160     Total:     0.8105

*** Psi4 exiting successfully. Buy a developer a beer!
