                               Psi4 1.4a3.dev225

  ==> Input File <==

--------------------------------------------------------------------------
#psi4
#
memory 32 gb

molecule  {
0 1
  O        0.1973020    -1.3235490    -0.2892290
  C       -0.9918762    -0.8368803     0.2572219
  C       -1.2574290     0.6116450    -0.1105210
  C       -0.1783580     1.4194390    -0.0692080
  C        1.1257810     0.8237890     0.1750290
  C        1.2576400    -0.5068660    -0.0292480
  H       -0.9620370    -0.9265990     1.3719500
  H       -1.8114290    -1.4891710    -0.0946800
  H       -2.2490060     0.9624120    -0.3801030
  H       -0.2469520     2.4774150    -0.3092500
  H        2.0071080     1.4278200     0.3572680
  H        2.2048620    -1.0348020    -0.0884010
units angstrom
no_reorient  #important for SAPT in psi4, default
symmetry c1  #important for SAPT in psi4, default
}

set PROPERTIES_ORIGIN ["COM"]
properties('MP2/aug-cc-pvtz', properties = ['dipole'])
--------------------------------------------------------------------------

    Molecular point group: c1
  Charge       = 0
  Multiplicity = 1
  Basis Set: AUG-CC-PVTZ
    Blend: AUG-CC-PVTZ
  Basis Set: (AUG-CC-PVTZ AUX)
    Blend: AUG-CC-PVTZ-JKFIT

    Orbital Energies [Eh]
    ---------------------

    Doubly Occupied:

       1A    -20.590914     2A    -11.301898     3A    -11.290901
       4A    -11.240261     5A    -11.232011     6A    -11.228630
       7A     -1.423914     8A     -1.096415     9A     -1.034756
      10A     -0.896367    11A     -0.844452    12A     -0.720861
      13A     -0.704754    14A     -0.655959    15A     -0.636471
      16A     -0.605749    17A     -0.576850    18A     -0.532941
      19A     -0.500388    20A     -0.466900    21A     -0.420569
      22A     -0.302921

  @DF-RHF Final Energy:  -267.73728991817620

   => Energetics <=

    Nuclear Repulsion Energy =            224.1045673911016536
    One-Electron Energy =                -807.0739512058055425
    Two-Electron Energy =                 315.2320938965276582
    Total Energy =                       -267.7372899181762023
  Basis Set: (AUG-CC-PVTZ AUX)
    Blend: AUG-CC-PVTZ-RI
    Molecular point group: c1

    Geometry (in Angstrom), charge = 0, multiplicity = 1:

       Center              X                  Y                   Z               Mass
    ------------   -----------------  -----------------  -----------------  -----------------
         O            0.178297146366    -1.303944750439    -0.276023327499    15.994914619570
         C           -1.010881053634    -0.817276050439     0.270427572501    12.000000000000
         C           -1.276433853634     0.631249249561    -0.097315327499    12.000000000000
         C           -0.197362853634     1.439043249561    -0.056002327499    12.000000000000
         C            1.106776146366     0.843393249561     0.188234672501    12.000000000000
         C            1.238635146366    -0.487261750439    -0.016042327499    12.000000000000
         H           -0.981041853634    -0.906994750439     1.385155672501     1.007825032230
         H           -1.830433853634    -1.469566750439    -0.081474327499     1.007825032230
         H           -2.268010853634     0.982016249561    -0.366897327499     1.007825032230
         H           -0.265956853634     2.497019249561    -0.296044327499     1.007825032230
         H            1.988103146366     1.447424249561     0.370473672501     1.007825032230
         H            2.185857146366    -1.015197750439    -0.075195327499     1.007825032230

  Basis Set: AUG-CC-PVTZ
    Blend: AUG-CC-PVTZ
  Basis Set: (AUG-CC-PVTZ AUX)
    Blend: AUG-CC-PVTZ-JKFIT
	 Reference Energy          =    -267.7372899181762023 [Eh]
	 Singles Energy            =      -0.0000000000000000 [Eh]
	 Same-Spin Energy          =      -0.2739147784412989 [Eh]
	 Opposite-Spin Energy      =      -0.8860393552494519 [Eh]
	 Correlation Energy        =      -1.1599541336907508 [Eh]
	 Total Energy              =    -268.8972440518669487 [Eh]

	 ================> DF-SCS-MP2 Energies <==================
	-----------------------------------------------------------
	 SCS Same-Spin Scale       =       0.3333333333333333 [-]
	 SCS Opposite-Spin Scale   =       1.2000000000000000 [-]
	 SCS Same-Spin Energy      =      -0.0913049261470996 [Eh]
	 SCS Opposite-Spin Energy  =      -1.0632472262993422 [Eh]
	 SCS Correlation Energy    =      -1.1545521524464417 [Eh]
	 SCS Total Energy          =    -268.8918420706226584 [Eh]
	-----------------------------------------------------------

  Dipole Moment: [D]
     X:    -0.2049      Y:     0.6294      Z:     0.3408     Total:     0.7445

*** Psi4 exiting successfully. Buy a developer a beer!
