                               Psi4 1.3.2 release

  ==> Input File <==

--------------------------------------------------------------------------
#psi4
#
memory 32 gb

molecule  {
0 1
  O        0.1973020    -1.3235490    -0.2892290
  C       -1.0344600    -0.8194530     0.2767900
  C       -1.2574290     0.6116450    -0.1105210
  C       -0.1958763     1.3735961    -0.0821932
  C        1.1257810     0.8237890     0.1750290
  C        1.2576400    -0.5068660    -0.0292480
  H       -0.9620370    -0.9265990     1.3719500
  H       -1.8114290    -1.4891710    -0.0946800
  H       -2.2490060     0.9624120    -0.3801030
  H       -0.2469520     2.4774150    -0.3092500
  H        2.0071080     1.4278200     0.3572680
  H        2.2048620    -1.0348020    -0.0884010
units angstrom
no_reorient  #important for SAPT in psi4, default
symmetry c1  #important for SAPT in psi4, default
}

set PROPERTIES_ORIGIN ["COM"]
properties('MP2/aug-cc-pvtz', properties = ['dipole'])
--------------------------------------------------------------------------

    Molecular point group: c1
  Charge       = 0
  Multiplicity = 1
  Basis Set: AUG-CC-PVTZ
    Blend: AUG-CC-PVTZ
  Basis Set: (AUG-CC-PVTZ AUX)
    Blend: AUG-CC-PVTZ-JKFIT

    Orbital Energies [Eh]
    ---------------------

    Doubly Occupied:

       1A    -20.587065     2A    -11.300545     3A    -11.290111
       4A    -11.238824     5A    -11.225593     6A    -11.224666
       7A     -1.407641     8A     -1.102910     9A     -1.036009
      10A     -0.900327    11A     -0.838339    12A     -0.716374
      13A     -0.701879    14A     -0.651796    15A     -0.633560
      16A     -0.604139    17A     -0.567406    18A     -0.534427
      19A     -0.510449    20A     -0.465337    21A     -0.423216
      22A     -0.306720

  @DF-RHF Final Energy:  -267.73640180390117

   => Energetics <=

    Nuclear Repulsion Energy =            224.2660908114056042
    One-Electron Energy =                -807.4703140660922145
    Two-Electron Energy =                 315.4678214507854932
    Total Energy =                       -267.7364018039011739
  Basis Set: (AUG-CC-PVTZ AUX)
    Blend: AUG-CC-PVTZ-RI
    Molecular point group: c1

    Geometry (in Angstrom), charge = 0, multiplicity = 1:

       Center              X                  Y                   Z               Mass
    ------------   -----------------  -----------------  -----------------  -----------------
         O            0.187088087450    -1.299788491914    -0.276986187134    15.994914619570
         C           -1.044673912550    -0.795692491914     0.289032812866    12.000000000000
         C           -1.267642912550     0.635405508086    -0.098278187134    12.000000000000
         C           -0.206090212550     1.397356608086    -0.069950387134    12.000000000000
         C            1.115567087450     0.847549508086     0.187271812866    12.000000000000
         C            1.247426087450    -0.483105491914    -0.017005187134    12.000000000000
         H           -0.972250912550    -0.902838491914     1.384192812866     1.007825032230
         H           -1.821642912550    -1.465410491914    -0.082437187134     1.007825032230
         H           -2.259219912550     0.986172508086    -0.367860187134     1.007825032230
         H           -0.257165912550     2.501175508086    -0.297007187134     1.007825032230
         H            1.996894087450     1.451580508086     0.369510812866     1.007825032230
         H            2.194648087450    -1.011041491914    -0.076158187134     1.007825032230

  Basis Set: AUG-CC-PVTZ
    Blend: AUG-CC-PVTZ
  Basis Set: (AUG-CC-PVTZ AUX)
    Blend: AUG-CC-PVTZ-JKFIT
	 Reference Energy          =    -267.7364018039011739 [Eh]
	 Singles Energy            =      -0.0000000000000000 [Eh]
	 Same-Spin Energy          =      -0.2738013417059235 [Eh]
	 Opposite-Spin Energy      =      -0.8858393919868846 [Eh]
	 Correlation Energy        =      -1.1596407336928081 [Eh]
	 Total Energy              =    -268.8960425375939849 [Eh]

	 ================> DF-SCS-MP2 Energies <==================
	-----------------------------------------------------------
	 SCS Same-Spin Scale       =       0.3333333333333333 [-]
	 SCS Opposite-Spin Scale   =       1.2000000000000000 [-]
	 SCS Same-Spin Energy      =      -0.0912671139019745 [Eh]
	 SCS Opposite-Spin Energy  =      -1.0630072703842615 [Eh]
	 SCS Correlation Energy    =      -1.1542743842862360 [Eh]
	 SCS Total Energy          =    -268.8906761881873990 [Eh]
	-----------------------------------------------------------

  Dipole Moment: [D]
     X:    -0.3254      Y:     0.6115      Z:     0.4387     Total:     0.8199

*** Psi4 exiting successfully. Buy a developer a beer!
