                               Psi4 1.3.2 release

  ==> Input File <==

--------------------------------------------------------------------------
#psi4
#
memory 32 gb

molecule  {
0 1
  O        0.1973020    -1.3235490    -0.2892290
  C       -1.0344600    -0.8194530     0.2767900
  C       -1.2574290     0.6116450    -0.1105210
  C       -0.2318879     1.2775097    -0.0820736
  C        1.1257810     0.8237890     0.1750290
  C        1.2576400    -0.5068660    -0.0292480
  H       -0.9620370    -0.9265990     1.3719500
  H       -1.8114290    -1.4891710    -0.0946800
  H       -2.2490060     0.9624120    -0.3801030
  H       -0.2469520     2.4774150    -0.3092500
  H        2.0071080     1.4278200     0.3572680
  H        2.2048620    -1.0348020    -0.0884010
units angstrom
no_reorient  #important for SAPT in psi4, default
symmetry c1  #important for SAPT in psi4, default
}

set PROPERTIES_ORIGIN ["COM"]
properties('MP2/aug-cc-pvtz', properties = ['dipole'])
--------------------------------------------------------------------------

    Molecular point group: c1
  Charge       = 0
  Multiplicity = 1
  Basis Set: AUG-CC-PVTZ
    Blend: AUG-CC-PVTZ
  Basis Set: (AUG-CC-PVTZ AUX)
    Blend: AUG-CC-PVTZ-JKFIT

    Orbital Energies [Eh]
    ---------------------

    Doubly Occupied:

       1A    -20.587577     2A    -11.300251     3A    -11.288736
       4A    -11.233890     5A    -11.225975     6A    -11.211485
       7A     -1.409044     8A     -1.120086     9A     -1.039825
      10A     -0.906261    11A     -0.832967    12A     -0.717528
      13A     -0.696460    14A     -0.658285    15A     -0.635198
      16A     -0.605309    17A     -0.557289    18A     -0.540465
      19A     -0.511176    20A     -0.449881    21A     -0.431265
      22A     -0.316258

  @DF-RHF Final Energy:  -267.70812331088410

   => Energetics <=

    Nuclear Repulsion Energy =            225.9940796937331982
    One-Electron Energy =                -810.8539791080431769
    Two-Electron Energy =                 317.1517761034259024
    Total Energy =                       -267.7081233108841047
  Basis Set: (AUG-CC-PVTZ AUX)
    Blend: AUG-CC-PVTZ-RI
    Molecular point group: c1

    Geometry (in Angstrom), charge = 0, multiplicity = 1:

       Center              X                  Y                   Z               Mass
    ------------   -----------------  -----------------  -----------------  -----------------
         O            0.192355388492    -1.285734242872    -0.277003680642    15.994914619570
         C           -1.039406611508    -0.781638242872     0.289015319358    12.000000000000
         C           -1.262375611508     0.649459757128    -0.098295680642    12.000000000000
         C           -0.236834511508     1.315324457128    -0.069848280642    12.000000000000
         C            1.120834388492     0.861603757128     0.187254319358    12.000000000000
         C            1.252693388492    -0.469051242872    -0.017022680642    12.000000000000
         H           -0.966983611508    -0.888784242872     1.384175319358     1.007825032230
         H           -1.816375611508    -1.451356242872    -0.082454680642     1.007825032230
         H           -2.253952611508     1.000226757128    -0.367877680642     1.007825032230
         H           -0.251898611508     2.515229757128    -0.297024680642     1.007825032230
         H            2.002161388492     1.465634757128     0.369493319358     1.007825032230
         H            2.199915388492    -0.996987242872    -0.076175680642     1.007825032230

  Basis Set: AUG-CC-PVTZ
    Blend: AUG-CC-PVTZ
  Basis Set: (AUG-CC-PVTZ AUX)
    Blend: AUG-CC-PVTZ-JKFIT
	 Reference Energy          =    -267.7081233108841047 [Eh]
	 Singles Energy            =      -0.0000000000000000 [Eh]
	 Same-Spin Energy          =      -0.2737122115384459 [Eh]
	 Opposite-Spin Energy      =      -0.8851740524575424 [Eh]
	 Correlation Energy        =      -1.1588862639959885 [Eh]
	 Total Energy              =    -268.8670095748801145 [Eh]

	 ================> DF-SCS-MP2 Energies <==================
	-----------------------------------------------------------
	 SCS Same-Spin Scale       =       0.3333333333333333 [-]
	 SCS Opposite-Spin Scale   =       1.2000000000000000 [-]
	 SCS Same-Spin Energy      =      -0.0912374038461486 [Eh]
	 SCS Opposite-Spin Energy  =      -1.0622088629490509 [Eh]
	 SCS Correlation Energy    =      -1.1534462667951995 [Eh]
	 SCS Total Energy          =    -268.8615695776792904 [Eh]
	-----------------------------------------------------------

  Dipole Moment: [D]
     X:    -0.3239      Y:     0.5292      Z:     0.4731     Total:     0.7803

*** Psi4 exiting successfully. Buy a developer a beer!
