                               Psi4 1.3.2 release

  ==> Input File <==

--------------------------------------------------------------------------
#psi4
#
memory 32 gb

molecule  {
0 1
  O        0.2013428    -1.3010416    -0.2999177
  C       -1.0344600    -0.8194530     0.2767900
  C       -1.2574290     0.6116450    -0.1105210
  C       -0.1783580     1.4194390    -0.0692080
  C        1.1257810     0.8237890     0.1750290
  C        1.2576400    -0.5068660    -0.0292480
  H       -0.9620370    -0.9265990     1.3719500
  H       -1.8114290    -1.4891710    -0.0946800
  H       -2.2490060     0.9624120    -0.3801030
  H       -0.2469520     2.4774150    -0.3092500
  H        2.0071080     1.4278200     0.3572680
  H        2.2048620    -1.0348020    -0.0884010
units angstrom
no_reorient  #important for SAPT in psi4, default
symmetry c1  #important for SAPT in psi4, default
}

set PROPERTIES_ORIGIN ["COM"]
properties('MP2/aug-cc-pvtz', properties = ['dipole'])
--------------------------------------------------------------------------

    Molecular point group: c1
  Charge       = 0
  Multiplicity = 1
  Basis Set: AUG-CC-PVTZ
    Blend: AUG-CC-PVTZ
  Basis Set: (AUG-CC-PVTZ AUX)
    Blend: AUG-CC-PVTZ-JKFIT

    Orbital Energies [Eh]
    ---------------------

    Doubly Occupied:

       1A    -20.586859     2A    -11.299816     3A    -11.292266
       4A    -11.241097     5A    -11.230614     6A    -11.224185
       7A     -1.412863     8A     -1.095337     9A     -1.035762
      10A     -0.898769    11A     -0.840485    12A     -0.720157
      13A     -0.704365    14A     -0.651053    15A     -0.633412
      16A     -0.606456    17A     -0.571833    18A     -0.534244
      19A     -0.509525    20A     -0.469971    21A     -0.417158
      22A     -0.301177

  @DF-RHF Final Energy:  -267.73865432684107

   => Energetics <=

    Nuclear Repulsion Energy =            223.9270430850419586
    One-Electron Energy =                -806.7765843801377059
    Two-Electron Energy =                 315.1108869682546469
    Total Energy =                       -267.7386543268410719
  Basis Set: (AUG-CC-PVTZ AUX)
    Blend: AUG-CC-PVTZ-RI
    Molecular point group: c1

    Geometry (in Angstrom), charge = 0, multiplicity = 1:

       Center              X                  Y                   Z               Mass
    ------------   -----------------  -----------------  -----------------  -----------------
         O            0.187778746012    -1.288374437286    -0.287490317415    15.994914619570
         C           -1.048024053988    -0.806785837286     0.289217382585    12.000000000000
         C           -1.270993053988     0.624312162714    -0.098093617415    12.000000000000
         C           -0.191922053988     1.432106162714    -0.056780617415    12.000000000000
         C            1.112216946012     0.836456162714     0.187456382585    12.000000000000
         C            1.244075946012    -0.494198837286    -0.016820617415    12.000000000000
         H           -0.975601053988    -0.913931837286     1.384377382585     1.007825032230
         H           -1.824993053988    -1.476503837286    -0.082252617415     1.007825032230
         H           -2.262570053988     0.975079162714    -0.367675617415     1.007825032230
         H           -0.260516053988     2.490082162714    -0.296822617415     1.007825032230
         H            1.993543946012     1.440487162714     0.369695382585     1.007825032230
         H            2.191297946012    -1.022134837286    -0.075973617415     1.007825032230

  Basis Set: AUG-CC-PVTZ
    Blend: AUG-CC-PVTZ
  Basis Set: (AUG-CC-PVTZ AUX)
    Blend: AUG-CC-PVTZ-JKFIT
	 Reference Energy          =    -267.7386543268410719 [Eh]
	 Singles Energy            =      -0.0000000000000000 [Eh]
	 Same-Spin Energy          =      -0.2740987617183600 [Eh]
	 Opposite-Spin Energy      =      -0.8862955145224589 [Eh]
	 Correlation Energy        =      -1.1603942762408188 [Eh]
	 Total Energy              =    -268.8990486030818943 [Eh]

	 ================> DF-SCS-MP2 Energies <==================
	-----------------------------------------------------------
	 SCS Same-Spin Scale       =       0.3333333333333333 [-]
	 SCS Opposite-Spin Scale   =       1.2000000000000000 [-]
	 SCS Same-Spin Energy      =      -0.0913662539061200 [Eh]
	 SCS Opposite-Spin Energy  =      -1.0635546174269506 [Eh]
	 SCS Correlation Energy    =      -1.1549208713330705 [Eh]
	 SCS Total Energy          =    -268.8935751981741191 [Eh]
	-----------------------------------------------------------

  Dipole Moment: [D]
     X:    -0.3608      Y:     0.5420      Z:     0.4276     Total:     0.7790

*** Psi4 exiting successfully. Buy a developer a beer!
