                               Psi4 1.3.2 release

  ==> Input File <==

--------------------------------------------------------------------------
#psi4
#
memory 32 gb

molecule  {
0 1
  O        0.1973020    -1.3235490    -0.2892290
  C       -1.0344600    -0.8194530     0.2767900
  C       -1.2574290     0.6116450    -0.1105210
  C       -0.1783580     1.4194390    -0.0692080
  C        1.1257810     0.8237890     0.1750290
  C        1.2576400    -0.5068660    -0.0292480
  H       -0.9620370    -0.9265990     1.3719500
  H       -1.8114290    -1.4891710    -0.0946800
  H       -2.2490060     0.9624120    -0.3801030
  H       -0.2469520     2.4774150    -0.3092500
  H        2.0884200     1.4835484     0.3740815
  H        2.2048620    -1.0348020    -0.0884010
units angstrom
no_reorient  #important for SAPT in psi4, default
symmetry c1  #important for SAPT in psi4, default
}

set PROPERTIES_ORIGIN ["COM"]
properties('MP2/aug-cc-pvtz', properties = ['dipole'])
--------------------------------------------------------------------------

    Molecular point group: c1
  Charge       = 0
  Multiplicity = 1
  Basis Set: AUG-CC-PVTZ
    Blend: AUG-CC-PVTZ
  Basis Set: (AUG-CC-PVTZ AUX)
    Blend: AUG-CC-PVTZ-JKFIT

    Orbital Energies [Eh]
    ---------------------

    Doubly Occupied:

       1A    -20.587780     2A    -11.301583     3A    -11.291657
       4A    -11.242904     5A    -11.237227     6A    -11.232103
       7A     -1.408001     8A     -1.096004     9A     -1.033397
      10A     -0.897431    11A     -0.838784    12A     -0.717276
      13A     -0.698664    14A     -0.648618    15A     -0.627294
      16A     -0.604537    17A     -0.568987    18A     -0.530205
      19A     -0.503647    20A     -0.471777    21A     -0.419515
      22A     -0.302822

  @DF-RHF Final Energy:  -267.73075929960794

   => Energetics <=

    Nuclear Repulsion Energy =            223.0426578601807819
    One-Electron Energy =                -805.0264104570774180
    Two-Electron Energy =                 314.2529932972887536
    Total Energy =                       -267.7307592996079393
  Basis Set: (AUG-CC-PVTZ AUX)
    Blend: AUG-CC-PVTZ-RI
    Molecular point group: c1

    Geometry (in Angstrom), charge = 0, multiplicity = 1:

       Center              X                  Y                   Z               Mass
    ------------   -----------------  -----------------  -----------------  -----------------
         O            0.183526882818    -1.307178368752    -0.279092032321    15.994914619570
         C           -1.048235117182    -0.803082368752     0.286926967679    12.000000000000
         C           -1.271204117182     0.628015631248    -0.100384032321    12.000000000000
         C           -0.192133117182     1.435809631248    -0.059071032321    12.000000000000
         C            1.112005882818     0.840159631248     0.185165967679    12.000000000000
         C            1.243864882818    -0.490495368752    -0.019111032321    12.000000000000
         H           -0.975812117182    -0.910228368752     1.382086967679     1.007825032230
         H           -1.825204117182    -1.472800368752    -0.084543032321     1.007825032230
         H           -2.262781117182     0.978782631248    -0.369966032321     1.007825032230
         H           -0.260727117182     2.493785631248    -0.299113032321     1.007825032230
         H            2.074644882818     1.499919031248     0.384218467679     1.007825032230
         H            2.191086882818    -1.018431368752    -0.078264032321     1.007825032230

  Basis Set: AUG-CC-PVTZ
    Blend: AUG-CC-PVTZ
  Basis Set: (AUG-CC-PVTZ AUX)
    Blend: AUG-CC-PVTZ-JKFIT
	 Reference Energy          =    -267.7307592996079393 [Eh]
	 Singles Energy            =      -0.0000000000000000 [Eh]
	 Same-Spin Energy          =      -0.2742745883484474 [Eh]
	 Opposite-Spin Energy      =      -0.8875197701721509 [Eh]
	 Correlation Energy        =      -1.1617943585205983 [Eh]
	 Total Energy              =    -268.8925536581285201 [Eh]

	 ================> DF-SCS-MP2 Energies <==================
	-----------------------------------------------------------
	 SCS Same-Spin Scale       =       0.3333333333333333 [-]
	 SCS Opposite-Spin Scale   =       1.2000000000000000 [-]
	 SCS Same-Spin Energy      =      -0.0914248627828158 [Eh]
	 SCS Opposite-Spin Energy  =      -1.0650237242065810 [Eh]
	 SCS Correlation Energy    =      -1.1564485869893968 [Eh]
	 SCS Total Energy          =    -268.8872078865973094 [Eh]
	-----------------------------------------------------------

  Dipole Moment: [D]
     X:    -0.3626      Y:     0.6163      Z:     0.4147     Total:     0.8265

*** Psi4 exiting successfully. Buy a developer a beer!
