                               Psi4 1.3.2 release

  ==> Input File <==

--------------------------------------------------------------------------
#psi4
#
memory 32 gb

molecule  {
0 1
  O        0.1973020    -1.3235490    -0.2892290
  C       -1.0344600    -0.8194530     0.2767900
  C       -1.2541466     0.6450412     0.0427791
  C       -0.1783580     1.4194390    -0.0692080
  C        1.1257810     0.8237890     0.1750290
  C        1.2576400    -0.5068660    -0.0292480
  H       -0.9620370    -0.9265990     1.3719500
  H       -1.8114290    -1.4891710    -0.0946800
  H       -2.2490060     0.9624120    -0.3801030
  H       -0.2469520     2.4774150    -0.3092500
  H        2.0071080     1.4278200     0.3572680
  H        2.2048620    -1.0348020    -0.0884010
units angstrom
no_reorient  #important for SAPT in psi4, default
symmetry c1  #important for SAPT in psi4, default
}

set PROPERTIES_ORIGIN ["COM"]
properties('MP2/aug-cc-pvtz', properties = ['dipole'])
--------------------------------------------------------------------------

    Molecular point group: c1
  Charge       = 0
  Multiplicity = 1
  Basis Set: AUG-CC-PVTZ
    Blend: AUG-CC-PVTZ
  Basis Set: (AUG-CC-PVTZ AUX)
    Blend: AUG-CC-PVTZ-JKFIT

    Orbital Energies [Eh]
    ---------------------

    Doubly Occupied:

       1A    -20.587922     2A    -11.301979     3A    -11.290816
       4A    -11.240874     5A    -11.232303     6A    -11.226214
       7A     -1.407673     8A     -1.100771     9A     -1.034588
      10A     -0.901290    11A     -0.839977    12A     -0.718093
      13A     -0.697590    14A     -0.652706    15A     -0.631505
      16A     -0.605608    17A     -0.569272    18A     -0.530123
      19A     -0.513699    20A     -0.464663    21A     -0.421010
      22A     -0.304731

  @DF-RHF Final Energy:  -267.73133312880793

   => Energetics <=

    Nuclear Repulsion Energy =            223.4928049083141275
    One-Electron Energy =                -805.9014606677799293
    Two-Electron Energy =                 314.6773226306578408
    Total Energy =                       -267.7313331288079326
  Basis Set: (AUG-CC-PVTZ AUX)
    Blend: AUG-CC-PVTZ-RI
    Molecular point group: c1

    Geometry (in Angstrom), charge = 0, multiplicity = 1:

       Center              X                  Y                   Z               Mass
    ------------   -----------------  -----------------  -----------------  -----------------
         O            0.184045635885    -1.311378540509    -0.301308203760    15.994914619570
         C           -1.047716364115    -0.807282540509     0.264710796240    12.000000000000
         C           -1.267402964115     0.657211659491     0.030699896240    12.000000000000
         C           -0.191614364115     1.431609459491    -0.081287203760    12.000000000000
         C            1.112524635885     0.835959459491     0.162949796240    12.000000000000
         C            1.244383635885    -0.494695540509    -0.041327203760    12.000000000000
         H           -0.975293364115    -0.914428540509     1.359870796240     1.007825032230
         H           -1.824685364115    -1.477000540509    -0.106759203760     1.007825032230
         H           -2.262262364115     0.974582459491    -0.392182203760     1.007825032230
         H           -0.260208364115     2.489585459491    -0.321329203760     1.007825032230
         H            1.993851635885     1.439990459491     0.345188796240     1.007825032230
         H            2.191605635885    -1.022631540509    -0.100480203760     1.007825032230

  Basis Set: AUG-CC-PVTZ
    Blend: AUG-CC-PVTZ
  Basis Set: (AUG-CC-PVTZ AUX)
    Blend: AUG-CC-PVTZ-JKFIT
	 Reference Energy          =    -267.7313331288079326 [Eh]
	 Singles Energy            =      -0.0000000000000000 [Eh]
	 Same-Spin Energy          =      -0.2740867240388135 [Eh]
	 Opposite-Spin Energy      =      -0.8869270576163137 [Eh]
	 Correlation Energy        =      -1.1610137816551274 [Eh]
	 Total Energy              =    -268.8923469104630612 [Eh]

	 ================> DF-SCS-MP2 Energies <==================
	-----------------------------------------------------------
	 SCS Same-Spin Scale       =       0.3333333333333333 [-]
	 SCS Opposite-Spin Scale   =       1.2000000000000000 [-]
	 SCS Same-Spin Energy      =      -0.0913622413462712 [Eh]
	 SCS Opposite-Spin Energy  =      -1.0643124691395764 [Eh]
	 SCS Correlation Energy    =      -1.1556747104858476 [Eh]
	 SCS Total Energy          =    -268.8870078392938012 [Eh]
	-----------------------------------------------------------

  Dipole Moment: [D]
     X:    -0.2456      Y:     0.5967      Z:     0.2575     Total:     0.6947

*** Psi4 exiting successfully. Buy a developer a beer!
