                               Psi4 1.3.2 release

  ==> Input File <==

--------------------------------------------------------------------------
#psi4
#
memory 32 gb

molecule  {
0 1
  O        0.1973020    -1.3235490    -0.2892290
  C       -1.0344600    -0.8194530     0.2767900
  C       -1.2574290     0.6116450    -0.1105210
  C       -0.1783580     1.4194390    -0.0692080
  C        1.1728307     0.8273517     0.1767356
  C        1.2576400    -0.5068660    -0.0292480
  H       -0.9620370    -0.9265990     1.3719500
  H       -1.8114290    -1.4891710    -0.0946800
  H       -2.2490060     0.9624120    -0.3801030
  H       -0.2469520     2.4774150    -0.3092500
  H        2.0071080     1.4278200     0.3572680
  H        2.2048620    -1.0348020    -0.0884010
units angstrom
no_reorient  #important for SAPT in psi4, default
symmetry c1  #important for SAPT in psi4, default
}

set PROPERTIES_ORIGIN ["COM"]
properties('MP2/aug-cc-pvtz', properties = ['dipole'])
--------------------------------------------------------------------------

    Molecular point group: c1
  Charge       = 0
  Multiplicity = 1
  Basis Set: AUG-CC-PVTZ
    Blend: AUG-CC-PVTZ
  Basis Set: (AUG-CC-PVTZ AUX)
    Blend: AUG-CC-PVTZ-JKFIT

    Orbital Energies [Eh]
    ---------------------

    Doubly Occupied:

       1A    -20.588664     2A    -11.301025     3A    -11.291362
       4A    -11.244384     5A    -11.231537     6A    -11.226058
       7A     -1.407739     8A     -1.090812     9A     -1.035580
      10A     -0.900041    11A     -0.837484    12A     -0.717159
      13A     -0.706172    14A     -0.651894    15A     -0.636025
      16A     -0.605102    17A     -0.572515    18A     -0.528868
      19A     -0.512099    20A     -0.468598    21A     -0.414809
      22A     -0.305432

  @DF-RHF Final Energy:  -267.73638677886589

   => Energetics <=

    Nuclear Repulsion Energy =            222.8600055625859397
    One-Electron Energy =                -804.6460643950148324
    Two-Electron Energy =                 314.0496720535630288
    Total Energy =                       -267.7363867788658922
  Basis Set: (AUG-CC-PVTZ AUX)
    Blend: AUG-CC-PVTZ-RI
    Molecular point group: c1

    Geometry (in Angstrom), charge = 0, multiplicity = 1:

       Center              X                  Y                   Z               Mass
    ------------   -----------------  -----------------  -----------------  -----------------
         O            0.177643933520    -1.307014890307    -0.279135109521    15.994914619570
         C           -1.054118066480    -0.802918890307     0.286883890479    12.000000000000
         C           -1.277087066480     0.628179109693    -0.100427109521    12.000000000000
         C           -0.198016066480     1.435973109693    -0.059114109521    12.000000000000
         C            1.153172633520     0.843885809693     0.186829490479    12.000000000000
         C            1.237981933520    -0.490331890307    -0.019154109521    12.000000000000
         H           -0.981695066480    -0.910064890307     1.382043890479     1.007825032230
         H           -1.831087066480    -1.472636890307    -0.084586109521     1.007825032230
         H           -2.268664066480     0.978946109693    -0.370009109521     1.007825032230
         H           -0.266610066480     2.493949109693    -0.299156109521     1.007825032230
         H            1.987449933520     1.444354109693     0.367361890479     1.007825032230
         H            2.185203933520    -1.018267890307    -0.078307109521     1.007825032230

  Basis Set: AUG-CC-PVTZ
    Blend: AUG-CC-PVTZ
  Basis Set: (AUG-CC-PVTZ AUX)
    Blend: AUG-CC-PVTZ-JKFIT
	 Reference Energy          =    -267.7363867788658922 [Eh]
	 Singles Energy            =      -0.0000000000000000 [Eh]
	 Same-Spin Energy          =      -0.2734762908721429 [Eh]
	 Opposite-Spin Energy      =      -0.8863559368169631 [Eh]
	 Correlation Energy        =      -1.1598322276891060 [Eh]
	 Total Energy              =    -268.8962190065549862 [Eh]

	 ================> DF-SCS-MP2 Energies <==================
	-----------------------------------------------------------
	 SCS Same-Spin Scale       =       0.3333333333333333 [-]
	 SCS Opposite-Spin Scale   =       1.2000000000000000 [-]
	 SCS Same-Spin Energy      =      -0.0911587636240476 [Eh]
	 SCS Opposite-Spin Energy  =      -1.0636271241803557 [Eh]
	 SCS Correlation Energy    =      -1.1547858878044033 [Eh]
	 SCS Total Energy          =    -268.8911726666702862 [Eh]
	-----------------------------------------------------------

  Dipole Moment: [D]
     X:    -0.3535      Y:     0.6335      Z:     0.4340     Total:     0.8454

*** Psi4 exiting successfully. Buy a developer a beer!
