                               Psi4 1.3.2 release

  ==> Input File <==

--------------------------------------------------------------------------
#psi4
#
memory 32 gb

molecule  {
0 1
  O        0.1973020    -1.3235490    -0.2892290
  C       -1.0344600    -0.8194530     0.2767900
  C       -1.2579813     0.5970056    -0.1607598
  C       -0.1783580     1.4194390    -0.0692080
  C        1.1257810     0.8237890     0.1750290
  C        1.2576400    -0.5068660    -0.0292480
  H       -0.9620370    -0.9265990     1.3719500
  H       -1.8114290    -1.4891710    -0.0946800
  H       -2.2490060     0.9624120    -0.3801030
  H       -0.2469520     2.4774150    -0.3092500
  H        2.0071080     1.4278200     0.3572680
  H        2.2048620    -1.0348020    -0.0884010
units angstrom
no_reorient  #important for SAPT in psi4, default
symmetry c1  #important for SAPT in psi4, default
}

set PROPERTIES_ORIGIN ["COM"]
properties('MP2/aug-cc-pvtz', properties = ['dipole'])
--------------------------------------------------------------------------

    Molecular point group: c1
  Charge       = 0
  Multiplicity = 1
  Basis Set: AUG-CC-PVTZ
    Blend: AUG-CC-PVTZ
  Basis Set: (AUG-CC-PVTZ AUX)
    Blend: AUG-CC-PVTZ-JKFIT

    Orbital Energies [Eh]
    ---------------------

    Doubly Occupied:

       1A    -20.587025     2A    -11.301249     3A    -11.291193
       4A    -11.243867     5A    -11.231730     6A    -11.226443
       7A     -1.407488     8A     -1.094551     9A     -1.034748
      10A     -0.897172    11A     -0.840955    12A     -0.718556
      13A     -0.704628    14A     -0.648265    15A     -0.634118
      16A     -0.604358    17A     -0.572949    18A     -0.532850
      19A     -0.505965    20A     -0.472646    21A     -0.417509
      22A     -0.301395

  @DF-RHF Final Energy:  -267.73633914646791

   => Energetics <=

    Nuclear Repulsion Energy =            223.4219577030416133
    One-Electron Energy =                -805.7772722182439793
    Two-Electron Energy =                 314.6189753687344819
    Total Energy =                       -267.7363391464679125
  Basis Set: (AUG-CC-PVTZ AUX)
    Blend: AUG-CC-PVTZ-RI
    Molecular point group: c1

    Geometry (in Angstrom), charge = 0, multiplicity = 1:

       Center              X                  Y                   Z               Mass
    ------------   -----------------  -----------------  -----------------  -----------------
         O            0.184606525135    -1.304352527615    -0.271537222742    15.994914619570
         C           -1.047155474865    -0.800256527615     0.294481777258    12.000000000000
         C           -1.270676774865     0.616202072385    -0.143068022742    12.000000000000
         C           -0.191053474865     1.438635472385    -0.051516222742    12.000000000000
         C            1.113085525135     0.842985472385     0.192720777258    12.000000000000
         C            1.244944525135    -0.487669527615    -0.011556222742    12.000000000000
         H           -0.974732474865    -0.907402527615     1.389641777258     1.007825032230
         H           -1.824124474865    -1.469974527615    -0.076988222742     1.007825032230
         H           -2.261701474865     0.981608472385    -0.362411222742     1.007825032230
         H           -0.259647474865     2.496611472385    -0.291558222742     1.007825032230
         H            1.994412525135     1.447016472385     0.374959777258     1.007825032230
         H            2.192166525135    -1.015605527615    -0.070709222742     1.007825032230

  Basis Set: AUG-CC-PVTZ
    Blend: AUG-CC-PVTZ
  Basis Set: (AUG-CC-PVTZ AUX)
    Blend: AUG-CC-PVTZ-JKFIT
	 Reference Energy          =    -267.7363391464679125 [Eh]
	 Singles Energy            =      -0.0000000000000000 [Eh]
	 Same-Spin Energy          =      -0.2743982937852514 [Eh]
	 Opposite-Spin Energy      =      -0.8873010767087832 [Eh]
	 Correlation Energy        =      -1.1616993704940346 [Eh]
	 Total Energy              =    -268.8980385169619467 [Eh]

	 ================> DF-SCS-MP2 Energies <==================
	-----------------------------------------------------------
	 SCS Same-Spin Scale       =       0.3333333333333333 [-]
	 SCS Opposite-Spin Scale   =       1.2000000000000000 [-]
	 SCS Same-Spin Energy      =      -0.0914660979284171 [Eh]
	 SCS Opposite-Spin Energy  =      -1.0647612920505398 [Eh]
	 SCS Correlation Energy    =      -1.1562273899789570 [Eh]
	 SCS Total Energy          =    -268.8925665364468500 [Eh]
	-----------------------------------------------------------

  Dipole Moment: [D]
     X:    -0.3201      Y:     0.6325      Z:     0.4781     Total:     0.8551

*** Psi4 exiting successfully. Buy a developer a beer!
