                               Psi4 1.3.2 release

  ==> Input File <==

--------------------------------------------------------------------------
#psi4
#
memory 32 gb

molecule  {
0 1
  O        0.1928860    -1.3459029    -0.2783679
  C       -1.0344600    -0.8194530     0.2767900
  C       -1.2574290     0.6116450    -0.1105210
  C       -0.1783580     1.4194390    -0.0692080
  C        1.1257810     0.8237890     0.1750290
  C        1.2576400    -0.5068660    -0.0292480
  H       -0.9620370    -0.9265990     1.3719500
  H       -1.8114290    -1.4891710    -0.0946800
  H       -2.2490060     0.9624120    -0.3801030
  H       -0.2469520     2.4774150    -0.3092500
  H        2.0071080     1.4278200     0.3572680
  H        2.2048620    -1.0348020    -0.0884010
units angstrom
no_reorient  #important for SAPT in psi4, default
symmetry c1  #important for SAPT in psi4, default
}

set PROPERTIES_ORIGIN ["COM"]
properties('MP2/aug-cc-pvtz', properties = ['dipole'])
--------------------------------------------------------------------------

    Molecular point group: c1
  Charge       = 0
  Multiplicity = 1
  Basis Set: AUG-CC-PVTZ
    Blend: AUG-CC-PVTZ
  Basis Set: (AUG-CC-PVTZ AUX)
    Blend: AUG-CC-PVTZ-JKFIT

    Orbital Energies [Eh]
    ---------------------

    Doubly Occupied:

       1A    -20.587207     2A    -11.301914     3A    -11.290040
       4A    -11.242302     5A    -11.232092     6A    -11.228134
       7A     -1.401839     8A     -1.097438     9A     -1.033485
      10A     -0.898259    11A     -0.840634    12A     -0.716466
      13A     -0.702423    14A     -0.648463    15A     -0.632838
      16A     -0.604688    17A     -0.572153    18A     -0.530759
      19A     -0.506613    20A     -0.472279    21A     -0.420540
      22A     -0.303317

  @DF-RHF Final Energy:  -267.73702629353761

   => Energetics <=

    Nuclear Repulsion Energy =            223.0670884100421461
    One-Electron Energy =                -805.0804623918058951
    Two-Electron Energy =                 314.2763476882261102
    Total Energy =                       -267.7370262935376104
  Basis Set: (AUG-CC-PVTZ AUX)
    Blend: AUG-CC-PVTZ-RI
    Molecular point group: c1

    Geometry (in Angstrom), charge = 0, multiplicity = 1:

       Center              X                  Y                   Z               Mass
    ------------   -----------------  -----------------  -----------------  -----------------
         O            0.180970687106    -1.324489560381    -0.270141875001    15.994914619570
         C           -1.046375312894    -0.798039660381     0.285016024999    12.000000000000
         C           -1.269344312894     0.633058339619    -0.102294975001    12.000000000000
         C           -0.190273312894     1.440852339619    -0.060981975001    12.000000000000
         C            1.113865687106     0.845202339619     0.183255024999    12.000000000000
         C            1.245724687106    -0.485452660381    -0.021021975001    12.000000000000
         H           -0.973952312894    -0.905185660381     1.380176024999     1.007825032230
         H           -1.823344312894    -1.467757660381    -0.086453975001     1.007825032230
         H           -2.260921312894     0.983825339619    -0.371876975001     1.007825032230
         H           -0.258867312894     2.498828339619    -0.301023975001     1.007825032230
         H            1.995192687106     1.449233339619     0.365494024999     1.007825032230
         H            2.192946687106    -1.013388660381    -0.080174975001     1.007825032230

  Basis Set: AUG-CC-PVTZ
    Blend: AUG-CC-PVTZ
  Basis Set: (AUG-CC-PVTZ AUX)
    Blend: AUG-CC-PVTZ-JKFIT
	 Reference Energy          =    -267.7370262935376104 [Eh]
	 Singles Energy            =      -0.0000000000000000 [Eh]
	 Same-Spin Energy          =      -0.2741549103484864 [Eh]
	 Opposite-Spin Energy      =      -0.8872370752117105 [Eh]
	 Correlation Energy        =      -1.1613919855601968 [Eh]
	 Total Energy              =    -268.8984182790978252 [Eh]

	 ================> DF-SCS-MP2 Energies <==================
	-----------------------------------------------------------
	 SCS Same-Spin Scale       =       0.3333333333333333 [-]
	 SCS Opposite-Spin Scale   =       1.2000000000000000 [-]
	 SCS Same-Spin Energy      =      -0.0913849701161621 [Eh]
	 SCS Opposite-Spin Energy  =      -1.0646844902540524 [Eh]
	 SCS Correlation Energy    =      -1.1560694603702146 [Eh]
	 SCS Total Energy          =    -268.8930957539078008 [Eh]
	-----------------------------------------------------------

  Dipole Moment: [D]
     X:    -0.2953      Y:     0.7040      Z:     0.4100     Total:     0.8666

*** Psi4 exiting successfully. Buy a developer a beer!
