                               Psi4 1.3.2 release

  ==> Input File <==

--------------------------------------------------------------------------
#psi4
#
memory 32 gb

molecule  {
0 1
  O        0.2586514    -1.3961430    -0.2939859
  C       -1.0344600    -0.8194530     0.2767900
  C       -1.2574290     0.6116450    -0.1105210
  C       -0.1783580     1.4194390    -0.0692080
  C        1.1257810     0.8237890     0.1750290
  C        1.2576400    -0.5068660    -0.0292480
  H       -0.9620370    -0.9265990     1.3719500
  H       -1.8114290    -1.4891710    -0.0946800
  H       -2.2490060     0.9624120    -0.3801030
  H       -0.2469520     2.4774150    -0.3092500
  H        2.0071080     1.4278200     0.3572680
  H        2.2048620    -1.0348020    -0.0884010
units angstrom
no_reorient  #important for SAPT in psi4, default
symmetry c1  #important for SAPT in psi4, default
}

set PROPERTIES_ORIGIN ["COM"]
properties('MP2/aug-cc-pvtz', properties = ['dipole'])
--------------------------------------------------------------------------

    Molecular point group: c1
  Charge       = 0
  Multiplicity = 1
  Basis Set: AUG-CC-PVTZ
    Blend: AUG-CC-PVTZ
  Basis Set: (AUG-CC-PVTZ AUX)
    Blend: AUG-CC-PVTZ-JKFIT

    Orbital Energies [Eh]
    ---------------------

    Doubly Occupied:

       1A    -20.590776     2A    -11.301237     3A    -11.298537
       4A    -11.244575     5A    -11.233234     6A    -11.225376
       7A     -1.390585     8A     -1.099920     9A     -1.028194
      10A     -0.901917    11A     -0.835908    12A     -0.713028
      13A     -0.701726    14A     -0.642329    15A     -0.628185
      16A     -0.606995    17A     -0.562504    18A     -0.531154
      19A     -0.515013    20A     -0.475338    21A     -0.421153
      22A     -0.302263

  @DF-RHF Final Energy:  -267.72977460739224

   => Energetics <=

    Nuclear Repulsion Energy =            221.6003006174748577
    One-Electron Energy =                -802.1602543511498880
    Two-Electron Energy =                 312.8301791262827578
    Total Energy =                       -267.7297746073922440
  Basis Set: (AUG-CC-PVTZ AUX)
    Blend: AUG-CC-PVTZ-RI
    Molecular point group: c1

    Geometry (in Angstrom), charge = 0, multiplicity = 1:

       Center              X                  Y                   Z               Mass
    ------------   -----------------  -----------------  -----------------  -----------------
         O            0.233914438545    -1.364934830488    -0.282714983504    15.994914619570
         C           -1.059196961455    -0.788244830488     0.288060916496    12.000000000000
         C           -1.282165961455     0.642853169512    -0.099250083504    12.000000000000
         C           -0.203094961455     1.450647169512    -0.057937083504    12.000000000000
         C            1.101044038545     0.854997169512     0.186299916496    12.000000000000
         C            1.232903038545    -0.475657830488    -0.017977083504    12.000000000000
         H           -0.986773961455    -0.895390830488     1.383220916496     1.007825032230
         H           -1.836165961455    -1.457962830488    -0.083409083504     1.007825032230
         H           -2.273742961455     0.993620169512    -0.368832083504     1.007825032230
         H           -0.271688961455     2.508623169512    -0.297979083504     1.007825032230
         H            1.982371038545     1.459028169512     0.368538916496     1.007825032230
         H            2.180125038545    -1.003593830488    -0.077130083504     1.007825032230

  Basis Set: AUG-CC-PVTZ
    Blend: AUG-CC-PVTZ
  Basis Set: (AUG-CC-PVTZ AUX)
    Blend: AUG-CC-PVTZ-JKFIT
	 Reference Energy          =    -267.7297746073922440 [Eh]
	 Singles Energy            =      -0.0000000000000000 [Eh]
	 Same-Spin Energy          =      -0.2748296331148076 [Eh]
	 Opposite-Spin Energy      =      -0.8892682040838604 [Eh]
	 Correlation Energy        =      -1.1640978371986681 [Eh]
	 Total Energy              =    -268.8938724445908974 [Eh]

	 ================> DF-SCS-MP2 Energies <==================
	-----------------------------------------------------------
	 SCS Same-Spin Scale       =       0.3333333333333333 [-]
	 SCS Opposite-Spin Scale   =       1.2000000000000000 [-]
	 SCS Same-Spin Energy      =      -0.0916098777049359 [Eh]
	 SCS Opposite-Spin Energy  =      -1.0671218449006326 [Eh]
	 SCS Correlation Energy    =      -1.1587317226055684 [Eh]
	 SCS Total Energy          =    -268.8885063299978242 [Eh]
	-----------------------------------------------------------

  Dipole Moment: [D]
     X:    -0.5078      Y:     0.7361      Z:     0.4707     Total:     1.0106

*** Psi4 exiting successfully. Buy a developer a beer!
