                               Psi4 1.4a3.dev225

  ==> Input File <==

--------------------------------------------------------------------------
#psi4
#
memory 32 gb

molecule  {
0 1
  O        0.1973020    -1.3235490    -0.2892290
  C       -1.0344600    -0.8194530     0.2767900
  C       -1.2574290     0.6116450    -0.1105210
  C       -0.1783580     1.4194390    -0.0692080
  C        1.1257810     0.8237890     0.1750290
  C        1.2420858    -0.5188460    -0.0330617
  H       -0.9620370    -0.9265990     1.3719500
  H       -1.8114290    -1.4891710    -0.0946800
  H       -2.2490060     0.9624120    -0.3801030
  H       -0.2469520     2.4774150    -0.3092500
  H        2.0071080     1.4278200     0.3572680
  H        2.2048620    -1.0348020    -0.0884010
units angstrom
no_reorient  #important for SAPT in psi4, default
symmetry c1  #important for SAPT in psi4, default
}

set PROPERTIES_ORIGIN ["COM"]
properties('MP2/aug-cc-pvtz', properties = ['dipole'])
--------------------------------------------------------------------------

    Molecular point group: c1
  Charge       = 0
  Multiplicity = 1
  Basis Set: AUG-CC-PVTZ
    Blend: AUG-CC-PVTZ
  Basis Set: (AUG-CC-PVTZ AUX)
    Blend: AUG-CC-PVTZ-JKFIT

    Orbital Energies [Eh]
    ---------------------

    Doubly Occupied:

       1A    -20.590557     2A    -11.303228     3A    -11.292555
       4A    -11.241367     5A    -11.230055     6A    -11.225427
       7A     -1.417336     8A     -1.095686     9A     -1.033890
      10A     -0.898608    11A     -0.841196    12A     -0.719131
      13A     -0.704593    14A     -0.652761    15A     -0.635044
      16A     -0.606438    17A     -0.571647    18A     -0.533494
      19A     -0.511221    20A     -0.470363    21A     -0.417893
      22A     -0.299328

  @DF-RHF Final Energy:  -267.73778567999392

   => Energetics <=

    Nuclear Repulsion Energy =            223.7205913943985820
    One-Electron Energy =                -806.3331194104064252
    Two-Electron Energy =                 314.8747423360139805
    Total Energy =                       -267.7377856799939195
  Basis Set: (AUG-CC-PVTZ AUX)
    Blend: AUG-CC-PVTZ-RI
    Molecular point group: c1

    Geometry (in Angstrom), charge = 0, multiplicity = 1:

       Center              X                  Y                   Z               Mass
    ------------   -----------------  -----------------  -----------------  -----------------
         O            0.186800804853    -1.304741509510    -0.278327672975    15.994914619570
         C           -1.044961195147    -0.800645509510     0.287691327025    12.000000000000
         C           -1.267930195147     0.630452490490    -0.099619672975    12.000000000000
         C           -0.188859195147     1.438246490490    -0.058306672975    12.000000000000
         C            1.115279804853     0.842596490490     0.185930327025    12.000000000000
         C            1.231584604853    -0.500038509510    -0.022160372975    12.000000000000
         H           -0.972538195147    -0.907791509510     1.382851327025     1.007825032230
         H           -1.821930195147    -1.470363509510    -0.083778672975     1.007825032230
         H           -2.259507195147     0.981219490490    -0.369201672975     1.007825032230
         H           -0.257453195147     2.496222490490    -0.298348672975     1.007825032230
         H            1.996606804853     1.446627490490     0.368169327025     1.007825032230
         H            2.194360804853    -1.015994509510    -0.077499672975     1.007825032230

  Basis Set: AUG-CC-PVTZ
    Blend: AUG-CC-PVTZ
  Basis Set: (AUG-CC-PVTZ AUX)
    Blend: AUG-CC-PVTZ-JKFIT
	 Reference Energy          =    -267.7377856799939195 [Eh]
	 Singles Energy            =      -0.0000000000000000 [Eh]
	 Same-Spin Energy          =      -0.2743027639155611 [Eh]
	 Opposite-Spin Energy      =      -0.8866439918995048 [Eh]
	 Correlation Energy        =      -1.1609467558150659 [Eh]
	 Total Energy              =    -268.8987324358089950 [Eh]

	 ================> DF-SCS-MP2 Energies <==================
	-----------------------------------------------------------
	 SCS Same-Spin Scale       =       0.3333333333333333 [-]
	 SCS Opposite-Spin Scale   =       1.2000000000000000 [-]
	 SCS Same-Spin Energy      =      -0.0914342546385204 [Eh]
	 SCS Opposite-Spin Energy  =      -1.0639727902794058 [Eh]
	 SCS Correlation Energy    =      -1.1554070449179261 [Eh]
	 SCS Total Energy          =    -268.8931927249118417 [Eh]
	-----------------------------------------------------------

  Dipole Moment: [D]
     X:    -0.3687      Y:     0.5433      Z:     0.4050     Total:     0.7714

*** Psi4 exiting successfully. Buy a developer a beer!
