                               Psi4 1.3.2 release

  ==> Input File <==

--------------------------------------------------------------------------
#psi4
#
memory 32 gb

molecule  {
0 1
  O        0.1796152    -1.3125933    -0.3352246
  C       -1.0344600    -0.8194530     0.2767900
  C       -1.2574290     0.6116450    -0.1105210
  C       -0.1783580     1.4194390    -0.0692080
  C        1.1257810     0.8237890     0.1750290
  C        1.2576400    -0.5068660    -0.0292480
  H       -0.9620370    -0.9265990     1.3719500
  H       -1.8114290    -1.4891710    -0.0946800
  H       -2.2490060     0.9624120    -0.3801030
  H       -0.2469520     2.4774150    -0.3092500
  H        2.0071080     1.4278200     0.3572680
  H        2.2048620    -1.0348020    -0.0884010
units angstrom
no_reorient  #important for SAPT in psi4, default
symmetry c1  #important for SAPT in psi4, default
}

set PROPERTIES_ORIGIN ["COM"]
properties('MP2/aug-cc-pvtz', properties = ['dipole'])
--------------------------------------------------------------------------

    Molecular point group: c1
  Charge       = 0
  Multiplicity = 1
  Basis Set: AUG-CC-PVTZ
    Blend: AUG-CC-PVTZ
  Basis Set: (AUG-CC-PVTZ AUX)
    Blend: AUG-CC-PVTZ-JKFIT

    Orbital Energies [Eh]
    ---------------------

    Doubly Occupied:

       1A    -20.585578     2A    -11.300478     3A    -11.290436
       4A    -11.241300     5A    -11.232068     6A    -11.228466
       7A     -1.400476     8A     -1.096379     9A     -1.033575
      10A     -0.897863    11A     -0.838758    12A     -0.717095
      13A     -0.704630    14A     -0.646978    15A     -0.629494
      16A     -0.604065    17A     -0.572608    18A     -0.534358
      19A     -0.506058    20A     -0.469245    21A     -0.418128
      22A     -0.304858

  @DF-RHF Final Energy:  -267.73665054859282

   => Energetics <=

    Nuclear Repulsion Energy =            223.3119213426127487
    One-Electron Energy =                -805.5913575038791805
    Two-Electron Energy =                 314.5427856126735833
    Total Energy =                       -267.7366505485928201
  Basis Set: (AUG-CC-PVTZ AUX)
    Blend: AUG-CC-PVTZ-RI
    Molecular point group: c1

    Geometry (in Angstrom), charge = 0, multiplicity = 1:

       Center              X                  Y                   Z               Mass
    ------------   -----------------  -----------------  -----------------  -----------------
         O            0.170287167556    -1.297674013256    -0.315913770138    15.994914619570
         C           -1.043788032444    -0.804533713256     0.296100829862    12.000000000000
         C           -1.266757032444     0.626564286744    -0.091210170138    12.000000000000
         C           -0.187686032444     1.434358286744    -0.049897170138    12.000000000000
         C            1.116452967556     0.838708286744     0.194339829862    12.000000000000
         C            1.248311967556    -0.491946713256    -0.009937170138    12.000000000000
         H           -0.971365032444    -0.911679713256     1.391260829862     1.007825032230
         H           -1.820757032444    -1.474251713256    -0.075369170138     1.007825032230
         H           -2.258334032444     0.977331286744    -0.360792170138     1.007825032230
         H           -0.256280032444     2.492334286744    -0.289939170138     1.007825032230
         H            1.997779967556     1.442739286744     0.376578829862     1.007825032230
         H            2.195533967556    -1.019882713256    -0.069090170138     1.007825032230

  Basis Set: AUG-CC-PVTZ
    Blend: AUG-CC-PVTZ
  Basis Set: (AUG-CC-PVTZ AUX)
    Blend: AUG-CC-PVTZ-JKFIT
	 Reference Energy          =    -267.7366505485928201 [Eh]
	 Singles Energy            =      -0.0000000000000000 [Eh]
	 Same-Spin Energy          =      -0.2742175912088120 [Eh]
	 Opposite-Spin Energy      =      -0.8873422688824035 [Eh]
	 Correlation Energy        =      -1.1615598600912156 [Eh]
	 Total Energy              =    -268.8982104086840081 [Eh]

	 ================> DF-SCS-MP2 Energies <==================
	-----------------------------------------------------------
	 SCS Same-Spin Scale       =       0.3333333333333333 [-]
	 SCS Opposite-Spin Scale   =       1.2000000000000000 [-]
	 SCS Same-Spin Energy      =      -0.0914058637362706 [Eh]
	 SCS Opposite-Spin Energy  =      -1.0648107226588841 [Eh]
	 SCS Correlation Energy    =      -1.1562165863951548 [Eh]
	 SCS Total Energy          =    -268.8928671349879664 [Eh]
	-----------------------------------------------------------

  Dipole Moment: [D]
     X:    -0.2855      Y:     0.6724      Z:     0.4853     Total:     0.8770

*** Psi4 exiting successfully. Buy a developer a beer!
