                               Psi4 1.3.2 release

  ==> Input File <==

--------------------------------------------------------------------------
#psi4
#
memory 32 gb

molecule  {
0 1
  O        0.1973020    -1.3235490    -0.2892290
  C       -1.0344600    -0.8194530     0.2767900
  C       -1.2574290     0.6116450    -0.1105210
  C       -0.1783580     1.4194390    -0.0692080
  C        1.1257810     0.8237890     0.1750290
  C        1.3043353    -0.5021996    -0.0240467
  H       -0.9620370    -0.9265990     1.3719500
  H       -1.8114290    -1.4891710    -0.0946800
  H       -2.2490060     0.9624120    -0.3801030
  H       -0.2469520     2.4774150    -0.3092500
  H        2.0071080     1.4278200     0.3572680
  H        2.2048620    -1.0348020    -0.0884010
units angstrom
no_reorient  #important for SAPT in psi4, default
symmetry c1  #important for SAPT in psi4, default
}

set PROPERTIES_ORIGIN ["COM"]
properties('MP2/aug-cc-pvtz', properties = ['dipole'])
--------------------------------------------------------------------------

    Molecular point group: c1
  Charge       = 0
  Multiplicity = 1
  Basis Set: AUG-CC-PVTZ
    Blend: AUG-CC-PVTZ
  Basis Set: (AUG-CC-PVTZ AUX)
    Blend: AUG-CC-PVTZ-JKFIT

    Orbital Energies [Eh]
    ---------------------

    Doubly Occupied:

       1A    -20.580170     2A    -11.298471     3A    -11.288944
       4A    -11.242454     5A    -11.233802     6A    -11.230217
       7A     -1.388299     8A     -1.095573     9A     -1.034681
      10A     -0.896639    11A     -0.842516    12A     -0.719850
      13A     -0.700958    14A     -0.643692    15A     -0.630122
      16A     -0.606768    17A     -0.570814    18A     -0.532701
      19A     -0.500898    20A     -0.470945    21A     -0.419132
      22A     -0.305142

  @DF-RHF Final Energy:  -267.73474214892872

   => Energetics <=

    Nuclear Repulsion Energy =            222.6985098971167929
    One-Electron Energy =                -804.4009291340636310
    Two-Electron Energy =                 313.9676770880181493
    Total Energy =                       -267.7347421489287171
  Basis Set: (AUG-CC-PVTZ AUX)
    Blend: AUG-CC-PVTZ-RI
    Molecular point group: c1

    Geometry (in Angstrom), charge = 0, multiplicity = 1:

       Center              X                  Y                   Z               Mass
    ------------   -----------------  -----------------  -----------------  -----------------
         O            0.177695770469    -1.307176324960    -0.279646268063    15.994914619570
         C           -1.054066229531    -0.803080324960     0.286372731937    12.000000000000
         C           -1.277035229531     0.628017675040    -0.100938268063    12.000000000000
         C           -0.197964229531     1.435811675040    -0.059625268063    12.000000000000
         C            1.106174770469     0.840161675040     0.184611731937    12.000000000000
         C            1.284729070469    -0.485826924960    -0.014463968063    12.000000000000
         H           -0.981643229531    -0.910226324960     1.381532731937     1.007825032230
         H           -1.831035229531    -1.472798324960    -0.085097268063     1.007825032230
         H           -2.268612229531     0.978784675040    -0.370520268063     1.007825032230
         H           -0.266558229531     2.493787675040    -0.299667268063     1.007825032230
         H            1.987501770469     1.444192675040     0.366850731937     1.007825032230
         H            2.185255770469    -1.018429324960    -0.078818268063     1.007825032230

  Basis Set: AUG-CC-PVTZ
    Blend: AUG-CC-PVTZ
  Basis Set: (AUG-CC-PVTZ AUX)
    Blend: AUG-CC-PVTZ-JKFIT
	 Reference Energy          =    -267.7347421489287171 [Eh]
	 Singles Energy            =      -0.0000000000000000 [Eh]
	 Same-Spin Energy          =      -0.2739750852321060 [Eh]
	 Opposite-Spin Energy      =      -0.8874641490938973 [Eh]
	 Correlation Energy        =      -1.1614392343260032 [Eh]
	 Total Energy              =    -268.8961813832547136 [Eh]

	 ================> DF-SCS-MP2 Energies <==================
	-----------------------------------------------------------
	 SCS Same-Spin Scale       =       0.3333333333333333 [-]
	 SCS Opposite-Spin Scale   =       1.2000000000000000 [-]
	 SCS Same-Spin Energy      =      -0.0913250284107020 [Eh]
	 SCS Opposite-Spin Energy  =      -1.0649569789126767 [Eh]
	 SCS Correlation Energy    =      -1.1562820073233786 [Eh]
	 SCS Total Energy          =    -268.8910241562521151 [Eh]
	-----------------------------------------------------------

  Dipole Moment: [D]
     X:    -0.2444      Y:     0.7417      Z:     0.4382     Total:     0.8955

*** Psi4 exiting successfully. Buy a developer a beer!
