                               Psi4 1.3.2 release

  ==> Input File <==

--------------------------------------------------------------------------
#psi4
#
memory 32 gb

molecule  {
0 1
  O        0.1825854    -1.3051406    -0.2859449
  C       -1.0344600    -0.8194530     0.2767900
  C       -1.2574290     0.6116450    -0.1105210
  C       -0.1783580     1.4194390    -0.0692080
  C        1.1257810     0.8237890     0.1750290
  C        1.2576400    -0.5068660    -0.0292480
  H       -0.9620370    -0.9265990     1.3719500
  H       -1.8114290    -1.4891710    -0.0946800
  H       -2.2490060     0.9624120    -0.3801030
  H       -0.2469520     2.4774150    -0.3092500
  H        2.0071080     1.4278200     0.3572680
  H        2.2048620    -1.0348020    -0.0884010
units angstrom
no_reorient  #important for SAPT in psi4, default
symmetry c1  #important for SAPT in psi4, default
}

set PROPERTIES_ORIGIN ["COM"]
properties('MP2/aug-cc-pvtz', properties = ['dipole'])
--------------------------------------------------------------------------

    Molecular point group: c1
  Charge       = 0
  Multiplicity = 1
  Basis Set: AUG-CC-PVTZ
    Blend: AUG-CC-PVTZ
  Basis Set: (AUG-CC-PVTZ AUX)
    Blend: AUG-CC-PVTZ-JKFIT

    Orbital Energies [Eh]
    ---------------------

    Doubly Occupied:

       1A    -20.585897     2A    -11.300884     3A    -11.289304
       4A    -11.241003     5A    -11.230836     6A    -11.226382
       7A     -1.412215     8A     -1.095535     9A     -1.036503
      10A     -0.897746    11A     -0.841760    12A     -0.719855
      13A     -0.704027    14A     -0.651990    15A     -0.634675
      16A     -0.605050    17A     -0.574588    18A     -0.532798
      19A     -0.505949    20A     -0.469632    21A     -0.418117
      22A     -0.302242

  @DF-RHF Final Energy:  -267.73875472145744

   => Energetics <=

    Nuclear Repulsion Energy =            224.0006594447425528
    One-Electron Energy =                -806.9248519714246868
    Two-Electron Energy =                 315.1854378052247512
    Total Energy =                       -267.7387547214574397
  Basis Set: (AUG-CC-PVTZ AUX)
    Blend: AUG-CC-PVTZ-RI
    Molecular point group: c1

    Geometry (in Angstrom), charge = 0, multiplicity = 1:

       Center              X                  Y                   Z               Mass
    ------------   -----------------  -----------------  -----------------  -----------------
         O            0.172678296182    -1.291674294614    -0.276241660065    15.994914619570
         C           -1.044367103818    -0.805986694614     0.286493239935    12.000000000000
         C           -1.267336103818     0.625111305386    -0.100817760065    12.000000000000
         C           -0.188265103818     1.432905305386    -0.059504760065    12.000000000000
         C            1.115873896182     0.837255305386     0.184732239935    12.000000000000
         C            1.247732896182    -0.493399694614    -0.019544760065    12.000000000000
         H           -0.971944103818    -0.913132694614     1.381653239935     1.007825032230
         H           -1.821336103818    -1.475704694614    -0.084976760065     1.007825032230
         H           -2.258913103818     0.975878305386    -0.370399760065     1.007825032230
         H           -0.256859103818     2.490881305386    -0.299546760065     1.007825032230
         H            1.997200896182     1.441286305386     0.366971239935     1.007825032230
         H            2.194954896182    -1.021335694614    -0.078697760065     1.007825032230

  Basis Set: AUG-CC-PVTZ
    Blend: AUG-CC-PVTZ
  Basis Set: (AUG-CC-PVTZ AUX)
    Blend: AUG-CC-PVTZ-JKFIT
	 Reference Energy          =    -267.7387547214574397 [Eh]
	 Singles Energy            =      -0.0000000000000000 [Eh]
	 Same-Spin Energy          =      -0.2740038039618139 [Eh]
	 Opposite-Spin Energy      =      -0.8862068641650551 [Eh]
	 Correlation Energy        =      -1.1602106681268691 [Eh]
	 Total Energy              =    -268.8989653895843048 [Eh]

	 ================> DF-SCS-MP2 Energies <==================
	-----------------------------------------------------------
	 SCS Same-Spin Scale       =       0.3333333333333333 [-]
	 SCS Opposite-Spin Scale   =       1.2000000000000000 [-]
	 SCS Same-Spin Energy      =      -0.0913346013206046 [Eh]
	 SCS Opposite-Spin Energy  =      -1.0634482369980660 [Eh]
	 SCS Correlation Energy    =      -1.1547828383186707 [Eh]
	 SCS Total Energy          =    -268.8935375597761208 [Eh]
	-----------------------------------------------------------

  Dipole Moment: [D]
     X:    -0.2799      Y:     0.5929      Z:     0.4012     Total:     0.7687

*** Psi4 exiting successfully. Buy a developer a beer!
