                               Psi4 1.3.2 release

  ==> Input File <==

--------------------------------------------------------------------------
#psi4
#
memory 32 gb

molecule  {
0 1
  O        0.1973020    -1.3235490    -0.2892290
  C       -1.0344600    -0.8194530     0.2767900
  C       -1.2425570     0.5161911    -0.0846874
  C       -0.1783580     1.4194390    -0.0692080
  C        1.1257810     0.8237890     0.1750290
  C        1.2576400    -0.5068660    -0.0292480
  H       -0.9620370    -0.9265990     1.3719500
  H       -1.8114290    -1.4891710    -0.0946800
  H       -2.2490060     0.9624120    -0.3801030
  H       -0.2469520     2.4774150    -0.3092500
  H        2.0071080     1.4278200     0.3572680
  H        2.2048620    -1.0348020    -0.0884010
units angstrom
no_reorient  #important for SAPT in psi4, default
symmetry c1  #important for SAPT in psi4, default
}

set PROPERTIES_ORIGIN ["COM"]
properties('MP2/aug-cc-pvtz', properties = ['dipole'])
--------------------------------------------------------------------------

    Molecular point group: c1
  Charge       = 0
  Multiplicity = 1
  Basis Set: AUG-CC-PVTZ
    Blend: AUG-CC-PVTZ
  Basis Set: (AUG-CC-PVTZ AUX)
    Blend: AUG-CC-PVTZ-JKFIT

    Orbital Energies [Eh]
    ---------------------

    Doubly Occupied:

       1A    -20.587111     2A    -11.300879     3A    -11.286884
       4A    -11.248862     5A    -11.236205     6A    -11.225979
       7A     -1.409561     8A     -1.096927     9A     -1.046387
      10A     -0.897299    11A     -0.841764    12A     -0.722030
      13A     -0.700797    14A     -0.654371    15A     -0.632639
      16A     -0.600559    17A     -0.583006    18A     -0.529844
      19A     -0.504219    20A     -0.477278    21A     -0.413486
      22A     -0.295510

  @DF-RHF Final Energy:  -267.72205663799434

   => Energetics <=

    Nuclear Repulsion Energy =            224.3907724866998876
    One-Electron Energy =                -807.6424663363160334
    Two-Electron Energy =                 315.5296372116217754
    Total Energy =                       -267.7220566379943421
  Basis Set: (AUG-CC-PVTZ AUX)
    Blend: AUG-CC-PVTZ-RI
    Molecular point group: c1

    Geometry (in Angstrom), charge = 0, multiplicity = 1:

       Center              X                  Y                   Z               Mass
    ------------   -----------------  -----------------  -----------------  -----------------
         O            0.182350462325    -1.292532050323    -0.282664088301    15.994914619570
         C           -1.049411537675    -0.788436050323     0.283354911699    12.000000000000
         C           -1.257508537675     0.547208049677    -0.078122488301    12.000000000000
         C           -0.193309537675     1.450455949677    -0.062643088301    12.000000000000
         C            1.110829462325     0.854805949677     0.181593911699    12.000000000000
         C            1.242688462325    -0.475849050323    -0.022683088301    12.000000000000
         H           -0.976988537675    -0.895582050323     1.378514911699     1.007825032230
         H           -1.826380537675    -1.458154050323    -0.088115088301     1.007825032230
         H           -2.263957537675     0.993428949677    -0.373538088301     1.007825032230
         H           -0.261903537675     2.508431949677    -0.302685088301     1.007825032230
         H            1.992156462325     1.458836949677     0.363832911699     1.007825032230
         H            2.189910462325    -1.003785050323    -0.081836088301     1.007825032230

  Basis Set: AUG-CC-PVTZ
    Blend: AUG-CC-PVTZ
  Basis Set: (AUG-CC-PVTZ AUX)
    Blend: AUG-CC-PVTZ-JKFIT
	 Reference Energy          =    -267.7220566379943421 [Eh]
	 Singles Energy            =      -0.0000000000000000 [Eh]
	 Same-Spin Energy          =      -0.2762071535844014 [Eh]
	 Opposite-Spin Energy      =      -0.8894551169818279 [Eh]
	 Correlation Energy        =      -1.1656622705662292 [Eh]
	 Total Energy              =    -268.8877189085605437 [Eh]

	 ================> DF-SCS-MP2 Energies <==================
	-----------------------------------------------------------
	 SCS Same-Spin Scale       =       0.3333333333333333 [-]
	 SCS Opposite-Spin Scale   =       1.2000000000000000 [-]
	 SCS Same-Spin Energy      =      -0.0920690511948005 [Eh]
	 SCS Opposite-Spin Energy  =      -1.0673461403781934 [Eh]
	 SCS Correlation Energy    =      -1.1594151915729940 [Eh]
	 SCS Total Energy          =    -268.8814718295673174 [Eh]
	-----------------------------------------------------------

  Dipole Moment: [D]
     X:    -0.2880      Y:     0.6564      Z:     0.4101     Total:     0.8258

*** Psi4 exiting successfully. Buy a developer a beer!
