                               Psi4 1.3.2 release

  ==> Input File <==

--------------------------------------------------------------------------
#psi4
#
memory 32 gb

molecule  {
0 1
  O        0.1973020    -1.3235490    -0.2892290
  C       -1.0344600    -0.8194530     0.2767900
  C       -1.2574290     0.6116450    -0.1105210
  C       -0.1783580     1.4194390    -0.0692080
  C        0.9464418     0.9057000     0.1414427
  C        1.2576400    -0.5068660    -0.0292480
  H       -0.9620370    -0.9265990     1.3719500
  H       -1.8114290    -1.4891710    -0.0946800
  H       -2.2490060     0.9624120    -0.3801030
  H       -0.2469520     2.4774150    -0.3092500
  H        2.0071080     1.4278200     0.3572680
  H        2.2048620    -1.0348020    -0.0884010
units angstrom
no_reorient  #important for SAPT in psi4, default
symmetry c1  #important for SAPT in psi4, default
}

set PROPERTIES_ORIGIN ["COM"]
properties('MP2/aug-cc-pvtz', properties = ['dipole'])
--------------------------------------------------------------------------

    Molecular point group: c1
  Charge       = 0
  Multiplicity = 1
  Basis Set: AUG-CC-PVTZ
    Blend: AUG-CC-PVTZ
  Basis Set: (AUG-CC-PVTZ AUX)
    Blend: AUG-CC-PVTZ-JKFIT

    Orbital Energies [Eh]
    ---------------------

    Doubly Occupied:

       1A    -20.591956     2A    -11.323436     3A    -11.292115
       4A    -11.233178     5A    -11.227811     6A    -11.223404
       7A     -1.412154     8A     -1.131232     9A     -1.025104
      10A     -0.883448    11A     -0.867152    12A     -0.727250
      13A     -0.697067    14A     -0.657741    15A     -0.631096
      16A     -0.609409    17A     -0.567026    18A     -0.547666
      19A     -0.498269    20A     -0.456557    21A     -0.442732
      22A     -0.273770

  @DF-RHF Final Energy:  -267.67046686071183

   => Energetics <=

    Nuclear Repulsion Energy =            225.2259019576129049
    One-Electron Energy =                -809.1535917043279369
    Two-Electron Energy =                 316.2572228860032055
    Total Energy =                       -267.6704668607118265
  Basis Set: (AUG-CC-PVTZ AUX)
    Blend: AUG-CC-PVTZ-RI
    Molecular point group: c1

    Geometry (in Angstrom), charge = 0, multiplicity = 1:

       Center              X                  Y                   Z               Mass
    ------------   -----------------  -----------------  -----------------  -----------------
         O            0.210757110630    -1.318474644447    -0.273972930420    15.994914619570
         C           -1.021004889370    -0.814378644447     0.292046069580    12.000000000000
         C           -1.243973889370     0.616719355553    -0.095264930420    12.000000000000
         C           -0.164902889370     1.424513355553    -0.053951930420    12.000000000000
         C            0.959896910630     0.910774355553     0.156698769580    12.000000000000
         C            1.271095110630    -0.501791644447    -0.013991930420    12.000000000000
         H           -0.948581889370    -0.921524644447     1.387206069580     1.007825032230
         H           -1.797973889370    -1.484096644447    -0.079423930420     1.007825032230
         H           -2.235550889370     0.967486355553    -0.364846930420     1.007825032230
         H           -0.233496889370     2.482489355553    -0.293993930420     1.007825032230
         H            2.020563110630     1.432894355553     0.372524069580     1.007825032230
         H            2.218317110630    -1.029727644447    -0.073144930420     1.007825032230

  Basis Set: AUG-CC-PVTZ
    Blend: AUG-CC-PVTZ
  Basis Set: (AUG-CC-PVTZ AUX)
    Blend: AUG-CC-PVTZ-JKFIT
	 Reference Energy          =    -267.6704668607118265 [Eh]
	 Singles Energy            =      -0.0000000000000000 [Eh]
	 Same-Spin Energy          =      -0.2808466871676262 [Eh]
	 Opposite-Spin Energy      =      -0.8956151523250386 [Eh]
	 Correlation Energy        =      -1.1764618394926649 [Eh]
	 Total Energy              =    -268.8469287002045007 [Eh]

	 ================> DF-SCS-MP2 Energies <==================
	-----------------------------------------------------------
	 SCS Same-Spin Scale       =       0.3333333333333333 [-]
	 SCS Opposite-Spin Scale   =       1.2000000000000000 [-]
	 SCS Same-Spin Energy      =      -0.0936155623892087 [Eh]
	 SCS Opposite-Spin Energy  =      -1.0747381827900464 [Eh]
	 SCS Correlation Energy    =      -1.1683537451792552 [Eh]
	 SCS Total Energy          =    -268.8388206058911010 [Eh]
	-----------------------------------------------------------

  Dipole Moment: [D]
     X:    -0.2506      Y:     0.4621      Z:     0.3709     Total:     0.6434

*** Psi4 exiting successfully. Buy a developer a beer!
