                               Psi4 1.4a3.dev225

  ==> Input File <==

--------------------------------------------------------------------------
#psi4
#
memory 32 gb

molecule  {
0 1
  O        0.1973020    -1.3235490    -0.2892290
  C       -1.0344600    -0.8194530     0.2767900
  C       -1.2574290     0.6116450    -0.1105210
  C       -0.1783580     1.4194390    -0.0692080
  C        1.1257810     0.8237890     0.1750290
  C        1.2576400    -0.5068660    -0.0292480
  H       -0.9653207    -0.9217410     1.3222950
  H       -1.8114290    -1.4891710    -0.0946800
  H       -2.2490060     0.9624120    -0.3801030
  H       -0.2469520     2.4774150    -0.3092500
  H        2.0071080     1.4278200     0.3572680
  H        2.2048620    -1.0348020    -0.0884010
units angstrom
no_reorient  #important for SAPT in psi4, default
symmetry c1  #important for SAPT in psi4, default
}

set PROPERTIES_ORIGIN ["COM"]
properties('MP2/aug-cc-pvtz', properties = ['dipole'])
--------------------------------------------------------------------------

    Molecular point group: c1
  Charge       = 0
  Multiplicity = 1
  Basis Set: AUG-CC-PVTZ
    Blend: AUG-CC-PVTZ
  Basis Set: (AUG-CC-PVTZ AUX)
    Blend: AUG-CC-PVTZ-JKFIT

    Orbital Energies [Eh]
    ---------------------

    Doubly Occupied:

       1A    -20.586138     2A    -11.300557     3A    -11.285155
       4A    -11.241401     5A    -11.230833     6A    -11.225728
       7A     -1.406924     8A     -1.096229     9A     -1.035984
      10A     -0.901584    11A     -0.840175    12A     -0.718870
      13A     -0.708307    14A     -0.649327    15A     -0.634213
      16A     -0.605267    17A     -0.571757    18A     -0.535093
      19A     -0.509258    20A     -0.472129    21A     -0.418608
      22A     -0.302119

  @DF-RHF Final Energy:  -267.73750406526966

   => Energetics <=

    Nuclear Repulsion Energy =            223.7366403760989897
    One-Electron Energy =                -806.3969772803104661
    Two-Electron Energy =                 314.9228328389418152
    Total Energy =                       -267.7375040652696612
  Basis Set: (AUG-CC-PVTZ AUX)
    Blend: AUG-CC-PVTZ-RI
    Molecular point group: c1

    Geometry (in Angstrom), charge = 0, multiplicity = 1:

       Center              X                  Y                   Z               Mass
    ------------   -----------------  -----------------  -----------------  -----------------
         O            0.184566079870    -1.306553462643    -0.278275514824    15.994914619570
         C           -1.047195920130    -0.802457462643     0.287743485176    12.000000000000
         C           -1.270164920130     0.628640537357    -0.099567514824    12.000000000000
         C           -0.191093920130     1.436434537357    -0.058254514824    12.000000000000
         C            1.113045079870     0.840784537357     0.185982485176    12.000000000000
         C            1.244904079870    -0.489870462643    -0.018294514824    12.000000000000
         H           -0.978056620130    -0.904745462643     1.333248485176     1.007825032230
         H           -1.824164920130    -1.472175462643    -0.083726514824     1.007825032230
         H           -2.261741920130     0.979407537357    -0.369149514824     1.007825032230
         H           -0.259687920130     2.494410537357    -0.298296514824     1.007825032230
         H            1.994372079870     1.444815537357     0.368221485176     1.007825032230
         H            2.192126079870    -1.017806462643    -0.077447514824     1.007825032230

  Basis Set: AUG-CC-PVTZ
    Blend: AUG-CC-PVTZ
  Basis Set: (AUG-CC-PVTZ AUX)
    Blend: AUG-CC-PVTZ-JKFIT
	 Reference Energy          =    -267.7375040652696612 [Eh]
	 Singles Energy            =      -0.0000000000000000 [Eh]
	 Same-Spin Energy          =      -0.2739935539815869 [Eh]
	 Opposite-Spin Energy      =      -0.8863698361632787 [Eh]
	 Correlation Energy        =      -1.1603633901448656 [Eh]
	 Total Energy              =    -268.8978674554145414 [Eh]

	 ================> DF-SCS-MP2 Energies <==================
	-----------------------------------------------------------
	 SCS Same-Spin Scale       =       0.3333333333333333 [-]
	 SCS Opposite-Spin Scale   =       1.2000000000000000 [-]
	 SCS Same-Spin Energy      =      -0.0913311846605289 [Eh]
	 SCS Opposite-Spin Energy  =      -1.0636438033959343 [Eh]
	 SCS Correlation Energy    =      -1.1549749880564633 [Eh]
	 SCS Total Energy          =    -268.8924790533260989 [Eh]
	-----------------------------------------------------------

  Dipole Moment: [D]
     X:    -0.3451      Y:     0.6020      Z:     0.4563     Total:     0.8305

*** Psi4 exiting successfully. Buy a developer a beer!
