                               Psi4 1.4a3.dev225

  ==> Input File <==

--------------------------------------------------------------------------
#psi4
#
memory 32 gb

molecule  {
0 1
  O        0.1973020    -1.3235490    -0.2892290
  C       -1.0344600    -0.8194530     0.2767900
  C       -1.2574290     0.6116450    -0.1105210
  C       -0.1783580     1.4194390    -0.0692080
  C        1.1257810     0.8237890     0.1750290
  C        1.2576400    -0.5068660    -0.0292480
  H       -0.9633505    -0.9246558     1.3520880
  H       -1.8114290    -1.4891710    -0.0946800
  H       -2.2490060     0.9624120    -0.3801030
  H       -0.2469520     2.4774150    -0.3092500
  H        2.0071080     1.4278200     0.3572680
  H        2.2048620    -1.0348020    -0.0884010
units angstrom
no_reorient  #important for SAPT in psi4, default
symmetry c1  #important for SAPT in psi4, default
}

set PROPERTIES_ORIGIN ["COM"]
properties('MP2/aug-cc-pvtz', properties = ['dipole'])
--------------------------------------------------------------------------

    Molecular point group: c1
  Charge       = 0
  Multiplicity = 1
  Basis Set: AUG-CC-PVTZ
    Blend: AUG-CC-PVTZ
  Basis Set: (AUG-CC-PVTZ AUX)
    Blend: AUG-CC-PVTZ-JKFIT

    Orbital Energies [Eh]
    ---------------------

    Doubly Occupied:

       1A    -20.586675     2A    -11.300735     3A    -11.288767
       4A    -11.241574     5A    -11.231128     6A    -11.225975
       7A     -1.407155     8A     -1.096302     9A     -1.035105
      10A     -0.899676    11A     -0.840417    12A     -0.718380
      13A     -0.705364    14A     -0.649556    15A     -0.633572
      16A     -0.605468    17A     -0.571897    18A     -0.533510
      19A     -0.508627    20A     -0.471602    21A     -0.418753
      22A     -0.302187

  @DF-RHF Final Energy:  -267.73827821676986

   => Energetics <=

    Nuclear Repulsion Energy =            223.5906611229324881
    One-Electron Energy =                -806.1130289316090511
    Two-Electron Energy =                 314.7840895919067066
    Total Energy =                       -267.7382782167698565
  Basis Set: (AUG-CC-PVTZ AUX)
    Blend: AUG-CC-PVTZ-RI
    Molecular point group: c1

    Geometry (in Angstrom), charge = 0, multiplicity = 1:

       Center              X                  Y                   Z               Mass
    ------------   -----------------  -----------------  -----------------  -----------------
         O            0.184541877386    -1.306517656431    -0.278641500303    15.994914619570
         C           -1.047220122614    -0.802421656431     0.287377499697    12.000000000000
         C           -1.270189122614     0.628676343569    -0.099933500303    12.000000000000
         C           -0.191118122614     1.436470343569    -0.058620500303    12.000000000000
         C            1.113020877386     0.840820343569     0.185616499697    12.000000000000
         C            1.244879877386    -0.489834656431    -0.018660500303    12.000000000000
         H           -0.976110622614    -0.907624456431     1.362675499697     1.007825032230
         H           -1.824189122614    -1.472139656431    -0.084092500303     1.007825032230
         H           -2.261766122614     0.979443343569    -0.369515500303     1.007825032230
         H           -0.259712122614     2.494446343569    -0.298662500303     1.007825032230
         H            1.994347877386     1.444851343569     0.367855499697     1.007825032230
         H            2.192101877386    -1.017770656431    -0.077813500303     1.007825032230

  Basis Set: AUG-CC-PVTZ
    Blend: AUG-CC-PVTZ
  Basis Set: (AUG-CC-PVTZ AUX)
    Blend: AUG-CC-PVTZ-JKFIT
	 Reference Energy          =    -267.7382782167698565 [Eh]
	 Singles Energy            =      -0.0000000000000000 [Eh]
	 Same-Spin Energy          =      -0.2740661201738712 [Eh]
	 Opposite-Spin Energy      =      -0.8865860550040394 [Eh]
	 Correlation Energy        =      -1.1606521751779106 [Eh]
	 Total Energy              =    -268.8989303919477720 [Eh]

	 ================> DF-SCS-MP2 Energies <==================
	-----------------------------------------------------------
	 SCS Same-Spin Scale       =       0.3333333333333333 [-]
	 SCS Opposite-Spin Scale   =       1.2000000000000000 [-]
	 SCS Same-Spin Energy      =      -0.0913553733912904 [Eh]
	 SCS Opposite-Spin Energy  =      -1.0639032660048473 [Eh]
	 SCS Correlation Energy    =      -1.1552586393961377 [Eh]
	 SCS Total Energy          =    -268.8935368561660084 [Eh]
	-----------------------------------------------------------

  Dipole Moment: [D]
     X:    -0.3351      Y:     0.6142      Z:     0.4348     Total:     0.8237

*** Psi4 exiting successfully. Buy a developer a beer!
