                               Psi4 1.4a3.dev225

  ==> Input File <==

--------------------------------------------------------------------------
#psi4
#
memory 32 gb

molecule  {
0 1
  O        0.1973020    -1.3235490    -0.2892290
  C       -1.0344600    -0.8194530     0.2767900
  C       -1.2574290     0.6116450    -0.1105210
  C       -0.1783580     1.4194390    -0.0692080
  C        1.1257810     0.8237890     0.1750290
  C        1.2965256    -0.4769159    -0.0197138
  H       -0.9620370    -0.9265990     1.3719500
  H       -1.8114290    -1.4891710    -0.0946800
  H       -2.2490060     0.9624120    -0.3801030
  H       -0.2469520     2.4774150    -0.3092500
  H        2.0071080     1.4278200     0.3572680
  H        2.2048620    -1.0348020    -0.0884010
units angstrom
no_reorient  #important for SAPT in psi4, default
symmetry c1  #important for SAPT in psi4, default
}

set PROPERTIES_ORIGIN ["COM"]
properties('MP2/aug-cc-pvtz', properties = ['dipole'])
--------------------------------------------------------------------------

    Molecular point group: c1
  Charge       = 0
  Multiplicity = 1
  Basis Set: AUG-CC-PVTZ
    Blend: AUG-CC-PVTZ
  Basis Set: (AUG-CC-PVTZ AUX)
    Blend: AUG-CC-PVTZ-JKFIT

    Orbital Energies [Eh]
    ---------------------

    Doubly Occupied:

       1A    -20.578776     2A    -11.295740     3A    -11.287809
       4A    -11.242540     5A    -11.234255     6A    -11.227698
       7A     -1.384711     8A     -1.098463     9A     -1.036843
      10A     -0.898417    11A     -0.839168    12A     -0.717362
      13A     -0.701231    14A     -0.642776    15A     -0.628677
      16A     -0.605312    17A     -0.570964    18A     -0.530577
      19A     -0.499533    20A     -0.472103    21A     -0.421075
      22A     -0.309224

  @DF-RHF Final Energy:  -267.73525109025098

   => Energetics <=

    Nuclear Repulsion Energy =            222.9654766670479944
    One-Electron Energy =                -804.9549538553029606
    Two-Electron Energy =                 314.2542260980040396
    Total Energy =                       -267.7352510902509835
  Basis Set: (AUG-CC-PVTZ AUX)
    Blend: AUG-CC-PVTZ-RI
    Molecular point group: c1

    Geometry (in Angstrom), charge = 0, multiplicity = 1:

       Center              X                  Y                   Z               Mass
    ------------   -----------------  -----------------  -----------------  -----------------
         O            0.178838070199    -1.310874490533    -0.280280027427    15.994914619570
         C           -1.052923929801    -0.806778490533     0.285738972573    12.000000000000
         C           -1.275892929801     0.624319509467    -0.101572027427    12.000000000000
         C           -0.196821929801     1.432113509467    -0.060259027427    12.000000000000
         C            1.107317070199     0.836463509467     0.183977972573    12.000000000000
         C            1.278061670199    -0.464241390533    -0.010764827427    12.000000000000
         H           -0.980500929801    -0.913924490533     1.380898972573     1.007825032230
         H           -1.829892929801    -1.476496490533    -0.085731027427     1.007825032230
         H           -2.267469929801     0.975086509467    -0.371154027427     1.007825032230
         H           -0.265415929801     2.490089509467    -0.300301027427     1.007825032230
         H            1.988644070199     1.440494509467     0.366216972573     1.007825032230
         H            2.186398070199    -1.022127490533    -0.079452027427     1.007825032230

  Basis Set: AUG-CC-PVTZ
    Blend: AUG-CC-PVTZ
  Basis Set: (AUG-CC-PVTZ AUX)
    Blend: AUG-CC-PVTZ-JKFIT
	 Reference Energy          =    -267.7352510902509835 [Eh]
	 Singles Energy            =      -0.0000000000000000 [Eh]
	 Same-Spin Energy          =      -0.2737557907164659 [Eh]
	 Opposite-Spin Energy      =      -0.8870997557741720 [Eh]
	 Correlation Energy        =      -1.1608555464906378 [Eh]
	 Total Energy              =    -268.8961066367416493 [Eh]

	 ================> DF-SCS-MP2 Energies <==================
	-----------------------------------------------------------
	 SCS Same-Spin Scale       =       0.3333333333333333 [-]
	 SCS Opposite-Spin Scale   =       1.2000000000000000 [-]
	 SCS Same-Spin Energy      =      -0.0912519302388220 [Eh]
	 SCS Opposite-Spin Energy  =      -1.0645197069290064 [Eh]
	 SCS Correlation Energy    =      -1.1557716371678284 [Eh]
	 SCS Total Energy          =    -268.8910227274188287 [Eh]
	-----------------------------------------------------------

  Dipole Moment: [D]
     X:    -0.2294      Y:     0.8113      Z:     0.4524     Total:     0.9568

*** Psi4 exiting successfully. Buy a developer a beer!
