                               Psi4 1.3.2 release

  ==> Input File <==

--------------------------------------------------------------------------
#psi4
#
memory 32 gb

molecule  {
0 1
  O        0.1973020    -1.3235490    -0.2892290
  C       -1.0344600    -0.8194530     0.2767900
  C       -1.2574290     0.6116450    -0.1105210
  C       -0.1783580     1.4194390    -0.0692080
  C        1.1257810     0.8237890     0.1750290
  C        1.2107841    -0.5099112    -0.0342004
  H       -0.9620370    -0.9265990     1.3719500
  H       -1.8114290    -1.4891710    -0.0946800
  H       -2.2490060     0.9624120    -0.3801030
  H       -0.2469520     2.4774150    -0.3092500
  H        2.0071080     1.4278200     0.3572680
  H        2.2048620    -1.0348020    -0.0884010
units angstrom
no_reorient  #important for SAPT in psi4, default
symmetry c1  #important for SAPT in psi4, default
}

set PROPERTIES_ORIGIN ["COM"]
properties('MP2/aug-cc-pvtz', properties = ['dipole'])
--------------------------------------------------------------------------

    Molecular point group: c1
  Charge       = 0
  Multiplicity = 1
  Basis Set: AUG-CC-PVTZ
    Blend: AUG-CC-PVTZ
  Basis Set: (AUG-CC-PVTZ AUX)
    Blend: AUG-CC-PVTZ-JKFIT

    Orbital Energies [Eh]
    ---------------------

    Doubly Occupied:

       1A    -20.594111     2A    -11.303900     3A    -11.293474
       4A    -11.241124     5A    -11.228939     6A    -11.222532
       7A     -1.427961     8A     -1.097608     9A     -1.034888
      10A     -0.900919    11A     -0.839448    12A     -0.718867
      13A     -0.706580    14A     -0.655363    15A     -0.636603
      16A     -0.606388    17A     -0.571346    18A     -0.532930
      19A     -0.514151    20A     -0.469272    21A     -0.418592
      22A     -0.299515

  @DF-RHF Final Energy:  -267.73623793475701

   => Energetics <=

    Nuclear Repulsion Energy =            224.3261720925511895
    One-Electron Energy =                -807.4957967525175491
    Two-Electron Energy =                 315.4333867252092887
    Total Energy =                       -267.7362379347570140
  Basis Set: (AUG-CC-PVTZ AUX)
    Blend: AUG-CC-PVTZ-RI
    Molecular point group: c1

    Geometry (in Angstrom), charge = 0, multiplicity = 1:

       Center              X                  Y                   Z               Mass
    ------------   -----------------  -----------------  -----------------  -----------------
         O            0.191379203953    -1.306048374002    -0.278161118984    15.994914619570
         C           -1.040382796047    -0.801952374002     0.287857881016    12.000000000000
         C           -1.263351796047     0.629145625998    -0.099453118984    12.000000000000
         C           -0.184280796047     1.436939625998    -0.058140118984    12.000000000000
         C            1.119858203953     0.841289625998     0.186096881016    12.000000000000
         C            1.204861303953    -0.492410574002    -0.023132518984    12.000000000000
         H           -0.967959796047    -0.909098374002     1.383017881016     1.007825032230
         H           -1.817351796047    -1.471670374002    -0.083612118984     1.007825032230
         H           -2.254928796047     0.979912625998    -0.369035118984     1.007825032230
         H           -0.252874796047     2.494915625998    -0.298182118984     1.007825032230
         H            2.001185203953     1.445320625998     0.368335881016     1.007825032230
         H            2.198939203953    -1.017301374002    -0.077333118984     1.007825032230

  Basis Set: AUG-CC-PVTZ
    Blend: AUG-CC-PVTZ
  Basis Set: (AUG-CC-PVTZ AUX)
    Blend: AUG-CC-PVTZ-JKFIT
	 Reference Energy          =    -267.7362379347570140 [Eh]
	 Singles Energy            =      -0.0000000000000000 [Eh]
	 Same-Spin Energy          =      -0.2743628810342934 [Eh]
	 Opposite-Spin Energy      =      -0.8862701044008425 [Eh]
	 Correlation Energy        =      -1.1606329854351358 [Eh]
	 Total Energy              =    -268.8968709201921570 [Eh]

	 ================> DF-SCS-MP2 Energies <==================
	-----------------------------------------------------------
	 SCS Same-Spin Scale       =       0.3333333333333333 [-]
	 SCS Opposite-Spin Scale   =       1.2000000000000000 [-]
	 SCS Same-Spin Energy      =      -0.0914542936780978 [Eh]
	 SCS Opposite-Spin Energy  =      -1.0635241252810110 [Eh]
	 SCS Correlation Energy    =      -1.1549784189591088 [Eh]
	 SCS Total Energy          =    -268.8912163537161177 [Eh]
	-----------------------------------------------------------

  Dipole Moment: [D]
     X:    -0.4217      Y:     0.5082      Z:     0.4006     Total:     0.7724

*** Psi4 exiting successfully. Buy a developer a beer!
