                               Psi4 1.3.2 release

  ==> Input File <==

--------------------------------------------------------------------------
#psi4
#
memory 32 gb

molecule  {
0 1
  O        0.1973020    -1.3235490    -0.2892290
  C       -0.9818596    -0.7409793     0.3123676
  C       -1.2574290     0.6116450    -0.1105210
  C       -0.1783580     1.4194390    -0.0692080
  C        1.1257810     0.8237890     0.1750290
  C        1.2576400    -0.5068660    -0.0292480
  H       -0.9620370    -0.9265990     1.3719500
  H       -1.8114290    -1.4891710    -0.0946800
  H       -2.2490060     0.9624120    -0.3801030
  H       -0.2469520     2.4774150    -0.3092500
  H        2.0071080     1.4278200     0.3572680
  H        2.2048620    -1.0348020    -0.0884010
units angstrom
no_reorient  #important for SAPT in psi4, default
symmetry c1  #important for SAPT in psi4, default
}

set PROPERTIES_ORIGIN ["COM"]
properties('MP2/aug-cc-pvtz', properties = ['dipole'])
--------------------------------------------------------------------------

    Molecular point group: c1
  Charge       = 0
  Multiplicity = 1
  Basis Set: AUG-CC-PVTZ
    Blend: AUG-CC-PVTZ
  Basis Set: (AUG-CC-PVTZ AUX)
    Blend: AUG-CC-PVTZ-JKFIT

    Orbital Energies [Eh]
    ---------------------

    Doubly Occupied:

       1A    -20.590690     2A    -11.302139     3A    -11.292253
       4A    -11.243196     5A    -11.228422     6A    -11.227591
       7A     -1.412148     8A     -1.104786     9A     -1.036697
      10A     -0.895976    11A     -0.843533    12A     -0.719060
      13A     -0.709916    14A     -0.652906    15A     -0.628843
      16A     -0.608798    17A     -0.570048    18A     -0.537369
      19A     -0.488623    20A     -0.479971    21A     -0.419142
      22A     -0.304883

  @DF-RHF Final Energy:  -267.72436894877916

   => Energetics <=

    Nuclear Repulsion Energy =            224.6071438947884360
    One-Electron Energy =                -808.0690457434270684
    Two-Electron Energy =                 315.7375328998594455
    Total Energy =                       -267.7243689487791585
  Basis Set: (AUG-CC-PVTZ AUX)
    Blend: AUG-CC-PVTZ-RI
    Molecular point group: c1

    Geometry (in Angstrom), charge = 0, multiplicity = 1:

       Center              X                  Y                   Z               Mass
    ------------   -----------------  -----------------  -----------------  -----------------
         O            0.176832050463    -1.317971881619    -0.284089311878    15.994914619570
         C           -1.002329549537    -0.735402181619     0.317507288122    12.000000000000
         C           -1.277898949537     0.617222118381    -0.105381311878    12.000000000000
         C           -0.198827949537     1.425016118381    -0.064068311878    12.000000000000
         C            1.105311050463     0.829366118381     0.180168688122    12.000000000000
         C            1.237170050463    -0.501288881619    -0.024108311878    12.000000000000
         H           -0.982506949537    -0.921021881619     1.377089688122     1.007825032230
         H           -1.831898949537    -1.483593881619    -0.089540311878     1.007825032230
         H           -2.269475949537     0.967989118381    -0.374963311878     1.007825032230
         H           -0.267421949537     2.482992118381    -0.304110311878     1.007825032230
         H            1.986638050463     1.433397118381     0.362407688122     1.007825032230
         H            2.184392050463    -1.029224881619    -0.083261311878     1.007825032230

  Basis Set: AUG-CC-PVTZ
    Blend: AUG-CC-PVTZ
  Basis Set: (AUG-CC-PVTZ AUX)
    Blend: AUG-CC-PVTZ-JKFIT
	 Reference Energy          =    -267.7243689487791585 [Eh]
	 Singles Energy            =      -0.0000000000000000 [Eh]
	 Same-Spin Energy          =      -0.2754318193910540 [Eh]
	 Opposite-Spin Energy      =      -0.8887269733919771 [Eh]
	 Correlation Energy        =      -1.1641587927830312 [Eh]
	 Total Energy              =    -268.8885277415621999 [Eh]

	 ================> DF-SCS-MP2 Energies <==================
	-----------------------------------------------------------
	 SCS Same-Spin Scale       =       0.3333333333333333 [-]
	 SCS Opposite-Spin Scale   =       1.2000000000000000 [-]
	 SCS Same-Spin Energy      =      -0.0918106064636847 [Eh]
	 SCS Opposite-Spin Energy  =      -1.0664723680703725 [Eh]
	 SCS Correlation Energy    =      -1.1582829745340573 [Eh]
	 SCS Total Energy          =    -268.8826519233132331 [Eh]
	-----------------------------------------------------------

  Dipole Moment: [D]
     X:    -0.1958      Y:     0.7512      Z:     0.4674     Total:     0.9061

*** Psi4 exiting successfully. Buy a developer a beer!
