                               Psi4 1.4a3.dev225

  ==> Input File <==

--------------------------------------------------------------------------
#psi4
#
memory 32 gb

molecule  {
0 1
  O        0.1973020    -1.3235490    -0.2892290
  C       -1.0770438    -0.8020257     0.2963581
  C       -1.2574290     0.6116450    -0.1105210
  C       -0.1783580     1.4194390    -0.0692080
  C        1.1257810     0.8237890     0.1750290
  C        1.2576400    -0.5068660    -0.0292480
  H       -0.9620370    -0.9265990     1.3719500
  H       -1.8114290    -1.4891710    -0.0946800
  H       -2.2490060     0.9624120    -0.3801030
  H       -0.2469520     2.4774150    -0.3092500
  H        2.0071080     1.4278200     0.3572680
  H        2.2048620    -1.0348020    -0.0884010
units angstrom
no_reorient  #important for SAPT in psi4, default
symmetry c1  #important for SAPT in psi4, default
}

set PROPERTIES_ORIGIN ["COM"]
properties('MP2/aug-cc-pvtz', properties = ['dipole'])
--------------------------------------------------------------------------

    Molecular point group: c1
  Charge       = 0
  Multiplicity = 1
  Basis Set: AUG-CC-PVTZ
    Blend: AUG-CC-PVTZ
  Basis Set: (AUG-CC-PVTZ AUX)
    Blend: AUG-CC-PVTZ-JKFIT

    Orbital Energies [Eh]
    ---------------------

    Doubly Occupied:

       1A    -20.582847     2A    -11.299915     3A    -11.292389
       4A    -11.243275     5A    -11.230711     6A    -11.223807
       7A     -1.392758     8A     -1.096771     9A     -1.034649
      10A     -0.900971    11A     -0.837030    12A     -0.716424
      13A     -0.702550    14A     -0.644606    15A     -0.631084
      16A     -0.605649    17A     -0.567388    18A     -0.532057
      19A     -0.513896    20A     -0.473213    21A     -0.416975
      22A     -0.301427

  @DF-RHF Final Energy:  -267.73497901321866

   => Energetics <=

    Nuclear Repulsion Energy =            222.9121534935021316
    One-Electron Energy =                -804.8134827755492324
    Two-Electron Energy =                 314.1663502688284098
    Total Energy =                       -267.7349790132186627
  Basis Set: (AUG-CC-PVTZ AUX)
    Blend: AUG-CC-PVTZ-RI
    Molecular point group: c1

    Geometry (in Angstrom), charge = 0, multiplicity = 1:

       Center              X                  Y                   Z               Mass
    ------------   -----------------  -----------------  -----------------  -----------------
         O            0.190754337610    -1.309042820807    -0.281747653745    15.994914619570
         C           -1.083591462390    -0.787519520807     0.303839446255    12.000000000000
         C           -1.263976662390     0.626151179193    -0.103039653745    12.000000000000
         C           -0.184905662390     1.433945179193    -0.061726653745    12.000000000000
         C            1.119233337610     0.838295179193     0.182510346255    12.000000000000
         C            1.251092337610    -0.492359820807    -0.021766653745    12.000000000000
         H           -0.968584662390    -0.912092820807     1.379431346255     1.007825032230
         H           -1.817976662390    -1.474664820807    -0.087198653745     1.007825032230
         H           -2.255553662390     0.976918179193    -0.372621653745     1.007825032230
         H           -0.253499662390     2.491921179193    -0.301768653745     1.007825032230
         H            2.000560337610     1.442326179193     0.364749346255     1.007825032230
         H            2.198314337610    -1.020295820807    -0.080919653745     1.007825032230

  Basis Set: AUG-CC-PVTZ
    Blend: AUG-CC-PVTZ
  Basis Set: (AUG-CC-PVTZ AUX)
    Blend: AUG-CC-PVTZ-JKFIT
	 Reference Energy          =    -267.7349790132186627 [Eh]
	 Singles Energy            =      -0.0000000000000000 [Eh]
	 Same-Spin Energy          =      -0.2744889876161570 [Eh]
	 Opposite-Spin Energy      =      -0.8877000963300381 [Eh]
	 Correlation Energy        =      -1.1621890839461950 [Eh]
	 Total Energy              =    -268.8971680971648652 [Eh]

	 ================> DF-SCS-MP2 Energies <==================
	-----------------------------------------------------------
	 SCS Same-Spin Scale       =       0.3333333333333333 [-]
	 SCS Opposite-Spin Scale   =       1.2000000000000000 [-]
	 SCS Same-Spin Energy      =      -0.0914963292053857 [Eh]
	 SCS Opposite-Spin Energy  =      -1.0652401155960456 [Eh]
	 SCS Correlation Energy    =      -1.1567364448014312 [Eh]
	 SCS Total Energy          =    -268.8917154580200872 [Eh]
	-----------------------------------------------------------

  Dipole Moment: [D]
     X:    -0.4400      Y:     0.6186      Z:     0.4904     Total:     0.9038

*** Psi4 exiting successfully. Buy a developer a beer!
