                               Psi4 1.3.2 release

  ==> Input File <==

--------------------------------------------------------------------------
#psi4
#
memory 32 gb

molecule  {
0 1
  O        0.1973020    -1.3235490    -0.2892290
  C       -1.0344600    -0.8194530     0.2767900
  C       -1.2574290     0.6116450    -0.1105210
  C       -0.1040362     1.3058455    -0.0305027
  C        1.1257810     0.8237890     0.1750290
  C        1.2576400    -0.5068660    -0.0292480
  H       -0.9620370    -0.9265990     1.3719500
  H       -1.8114290    -1.4891710    -0.0946800
  H       -2.2490060     0.9624120    -0.3801030
  H       -0.2469520     2.4774150    -0.3092500
  H        2.0071080     1.4278200     0.3572680
  H        2.2048620    -1.0348020    -0.0884010
units angstrom
no_reorient  #important for SAPT in psi4, default
symmetry c1  #important for SAPT in psi4, default
}

set PROPERTIES_ORIGIN ["COM"]
properties('MP2/aug-cc-pvtz', properties = ['dipole'])
--------------------------------------------------------------------------

    Molecular point group: c1
  Charge       = 0
  Multiplicity = 1
  Basis Set: AUG-CC-PVTZ
    Blend: AUG-CC-PVTZ
  Basis Set: (AUG-CC-PVTZ AUX)
    Blend: AUG-CC-PVTZ-JKFIT

    Orbital Energies [Eh]
    ---------------------

    Doubly Occupied:

       1A    -20.591700     2A    -11.308037     3A    -11.287495
       4A    -11.243210     5A    -11.226821     6A    -11.220385
       7A     -1.412098     8A     -1.117013     9A     -1.040155
      10A     -0.889359    11A     -0.855248    12A     -0.719983
      13A     -0.700673    14A     -0.659394    15A     -0.636131
      16A     -0.595679    17A     -0.568067    18A     -0.547823
      19A     -0.506806    20A     -0.453051    21A     -0.433571
      22A     -0.295451

  @DF-RHF Final Energy:  -267.71065093280231

   => Energetics <=

    Nuclear Repulsion Energy =            225.6038915058627765
    One-Electron Energy =                -810.0127875431152233
    Two-Electron Energy =                 316.6982451044501659
    Total Energy =                       -267.7106509328023094
  Basis Set: (AUG-CC-PVTZ AUX)
    Blend: AUG-CC-PVTZ-RI
    Molecular point group: c1

    Geometry (in Angstrom), charge = 0, multiplicity = 1:

       Center              X                  Y                   Z               Mass
    ------------   -----------------  -----------------  -----------------  -----------------
         O            0.173654931067    -1.289878829306    -0.284546790509    15.994914619570
         C           -1.058107068933    -0.785782829306     0.281472209491    12.000000000000
         C           -1.281076068933     0.645315170694    -0.105838790509    12.000000000000
         C           -0.127683268933     1.339515670694    -0.025820490509    12.000000000000
         C            1.102133931067     0.857459170694     0.179711209491    12.000000000000
         C            1.233992931067    -0.473195829306    -0.024565790509    12.000000000000
         H           -0.985684068933    -0.892928829306     1.376632209491     1.007825032230
         H           -1.835076068933    -1.455500829306    -0.089997790509     1.007825032230
         H           -2.272653068933     0.996082170694    -0.375420790509     1.007825032230
         H           -0.270599068933     2.511085170694    -0.304567790509     1.007825032230
         H            1.983460931067     1.461490170694     0.361950209491     1.007825032230
         H            2.181214931067    -1.001131829306    -0.083718790509     1.007825032230

  Basis Set: AUG-CC-PVTZ
    Blend: AUG-CC-PVTZ
  Basis Set: (AUG-CC-PVTZ AUX)
    Blend: AUG-CC-PVTZ-JKFIT
	 Reference Energy          =    -267.7106509328023094 [Eh]
	 Singles Energy            =      -0.0000000000000000 [Eh]
	 Same-Spin Energy          =      -0.2769583165348472 [Eh]
	 Opposite-Spin Energy      =      -0.8896943705445306 [Eh]
	 Correlation Energy        =      -1.1666526870793779 [Eh]
	 Total Energy              =    -268.8773036198816726 [Eh]

	 ================> DF-SCS-MP2 Energies <==================
	-----------------------------------------------------------
	 SCS Same-Spin Scale       =       0.3333333333333333 [-]
	 SCS Opposite-Spin Scale   =       1.2000000000000000 [-]
	 SCS Same-Spin Energy      =      -0.0923194388449491 [Eh]
	 SCS Opposite-Spin Energy  =      -1.0676332446534367 [Eh]
	 SCS Correlation Energy    =      -1.1599526834983858 [Eh]
	 SCS Total Energy          =    -268.8706036163006843 [Eh]
	-----------------------------------------------------------

  Dipole Moment: [D]
     X:    -0.1447      Y:     0.4722      Z:     0.4473     Total:     0.6663

*** Psi4 exiting successfully. Buy a developer a beer!
