                               Psi4 1.4a3.dev225

  ==> Input File <==

--------------------------------------------------------------------------
#psi4
#
memory 32 gb

molecule  {
0 1
  O        0.1973020    -1.3235490    -0.2892290
  C       -1.0344600    -0.8194530     0.2767900
  C       -1.2574290     0.6116450    -0.1105210
  C       -0.1783580     1.4194390    -0.0692080
  C        1.1257810     0.8237890     0.1750290
  C        1.2576400    -0.5068660    -0.0292480
  H       -0.9620370    -0.9265990     1.3719500
  H       -1.8114290    -1.4891710    -0.0946800
  H       -2.2490060     0.9624120    -0.3801030
  H       -0.2469520     2.4774150    -0.3092500
  H        2.0233704     1.4389657     0.3606307
  H        2.2048620    -1.0348020    -0.0884010
units angstrom
no_reorient  #important for SAPT in psi4, default
symmetry c1  #important for SAPT in psi4, default
}

set PROPERTIES_ORIGIN ["COM"]
properties('MP2/aug-cc-pvtz', properties = ['dipole'])
--------------------------------------------------------------------------

    Molecular point group: c1
  Charge       = 0
  Multiplicity = 1
  Basis Set: AUG-CC-PVTZ
    Blend: AUG-CC-PVTZ
  Basis Set: (AUG-CC-PVTZ AUX)
    Blend: AUG-CC-PVTZ-JKFIT

    Orbital Energies [Eh]
    ---------------------

    Doubly Occupied:

       1A    -20.587187     2A    -11.300985     3A    -11.291235
       4A    -11.241926     5A    -11.231479     6A    -11.228437
       7A     -1.407451     8A     -1.096241     9A     -1.034298
      10A     -0.898231    11A     -0.840151    12A     -0.717914
      13A     -0.702293    14A     -0.649366    15A     -0.631932
      16A     -0.605428    17A     -0.571447    18A     -0.532043
      19A     -0.507440    20A     -0.471309    21A     -0.418972
      22A     -0.302339

  @DF-RHF Final Energy:  -267.73750957770289

   => Energetics <=

    Nuclear Repulsion Energy =            223.4009697495303044
    One-Electron Energy =                -805.7407539829773668
    Two-Electron Energy =                 314.6022746557441678
    Total Energy =                       -267.7375095777028946
  Basis Set: (AUG-CC-PVTZ AUX)
    Blend: AUG-CC-PVTZ-RI
    Molecular point group: c1

    Geometry (in Angstrom), charge = 0, multiplicity = 1:

       Center              X                  Y                   Z               Mass
    ------------   -----------------  -----------------  -----------------  -----------------
         O            0.184325970154    -1.306630702495    -0.278926798962    15.994914619570
         C           -1.047436029846    -0.802534702495     0.287092201038    12.000000000000
         C           -1.270405029846     0.628563297505    -0.100218798962    12.000000000000
         C           -0.191334029846     1.436357297505    -0.058905798962    12.000000000000
         C            1.112804970154     0.840707297505     0.185331201038    12.000000000000
         C            1.244663970154    -0.489947702495    -0.018945798962    12.000000000000
         H           -0.975013029846    -0.909680702495     1.382252201038     1.007825032230
         H           -1.824405029846    -1.472252702495    -0.084377798962     1.007825032230
         H           -2.261982029846     0.979330297505    -0.369800798962     1.007825032230
         H           -0.259928029846     2.494333297505    -0.298947798962     1.007825032230
         H            2.010394370154     1.455883997505     0.370932901038     1.007825032230
         H            2.191885970154    -1.017883702495    -0.078098798962     1.007825032230

  Basis Set: AUG-CC-PVTZ
    Blend: AUG-CC-PVTZ
  Basis Set: (AUG-CC-PVTZ AUX)
    Blend: AUG-CC-PVTZ-JKFIT
	 Reference Energy          =    -267.7375095777028946 [Eh]
	 Singles Energy            =      -0.0000000000000000 [Eh]
	 Same-Spin Energy          =      -0.2741458077814439 [Eh]
	 Opposite-Spin Energy      =      -0.8868681262363574 [Eh]
	 Correlation Energy        =      -1.1610139340178012 [Eh]
	 Total Energy              =    -268.8985235117206685 [Eh]

	 ================> DF-SCS-MP2 Energies <==================
	-----------------------------------------------------------
	 SCS Same-Spin Scale       =       0.3333333333333333 [-]
	 SCS Opposite-Spin Scale   =       1.2000000000000000 [-]
	 SCS Same-Spin Energy      =      -0.0913819359271480 [Eh]
	 SCS Opposite-Spin Energy  =      -1.0642417514836289 [Eh]
	 SCS Correlation Energy    =      -1.1556236874107768 [Eh]
	 SCS Total Energy          =    -268.8931332651136472 [Eh]
	-----------------------------------------------------------

  Dipole Moment: [D]
     X:    -0.3340      Y:     0.6221      Z:     0.4184     Total:     0.8208

*** Psi4 exiting successfully. Buy a developer a beer!
