                               Psi4 1.3.2 release

  ==> Input File <==

--------------------------------------------------------------------------
#psi4
#
memory 32 gb

molecule  {
0 1
  O        0.1973020    -1.3235490    -0.2892290
  C       -1.1196276    -0.7845984     0.3159262
  C       -1.2574290     0.6116450    -0.1105210
  C       -0.1783580     1.4194390    -0.0692080
  C        1.1257810     0.8237890     0.1750290
  C        1.2576400    -0.5068660    -0.0292480
  H       -0.9620370    -0.9265990     1.3719500
  H       -1.8114290    -1.4891710    -0.0946800
  H       -2.2490060     0.9624120    -0.3801030
  H       -0.2469520     2.4774150    -0.3092500
  H        2.0071080     1.4278200     0.3572680
  H        2.2048620    -1.0348020    -0.0884010
units angstrom
no_reorient  #important for SAPT in psi4, default
symmetry c1  #important for SAPT in psi4, default
}

set PROPERTIES_ORIGIN ["COM"]
properties('MP2/aug-cc-pvtz', properties = ['dipole'])
--------------------------------------------------------------------------

    Molecular point group: c1
  Charge       = 0
  Multiplicity = 1
  Basis Set: AUG-CC-PVTZ
    Blend: AUG-CC-PVTZ
  Basis Set: (AUG-CC-PVTZ AUX)
    Blend: AUG-CC-PVTZ-JKFIT

    Orbital Energies [Eh]
    ---------------------

    Doubly Occupied:

       1A    -20.578157     2A    -11.299013     3A    -11.294613
       4A    -11.244975     5A    -11.230158     6A    -11.221549
       7A     -1.379800     8A     -1.097529     9A     -1.034828
      10A     -0.903462    11A     -0.833938    12A     -0.715271
      13A     -0.702186    14A     -0.640789    15A     -0.630259
      16A     -0.605435    17A     -0.563437    18A     -0.531290
      19A     -0.517694    20A     -0.472942    21A     -0.414878
      22A     -0.300480

  @DF-RHF Final Energy:  -267.72862716830525

   => Energetics <=

    Nuclear Repulsion Energy =            222.3462340068970207
    One-Electron Energy =                -803.7243573898019804
    Two-Electron Energy =                 313.6494962145997079
    Total Energy =                       -267.7286271683052519
  Basis Set: (AUG-CC-PVTZ AUX)
    Blend: AUG-CC-PVTZ-RI
    Molecular point group: c1

    Geometry (in Angstrom), charge = 0, multiplicity = 1:

       Center              X                  Y                   Z               Mass
    ------------   -----------------  -----------------  -----------------  -----------------
         O            0.196982933232    -1.311591855992    -0.284609816868    15.994914619570
         C           -1.119946666768    -0.772641255992     0.320545383132    12.000000000000
         C           -1.257748066768     0.623602144008    -0.105901816868    12.000000000000
         C           -0.178677066768     1.431396144008    -0.064588816868    12.000000000000
         C            1.125461933232     0.835746144008     0.179648183132    12.000000000000
         C            1.257320933232    -0.494908855992    -0.024628816868    12.000000000000
         H           -0.962356066768    -0.914641855992     1.376569183132     1.007825032230
         H           -1.811748066768    -1.477213855992    -0.090060816868     1.007825032230
         H           -2.249325066768     0.974369144008    -0.375483816868     1.007825032230
         H           -0.247271066768     2.489372144008    -0.304630816868     1.007825032230
         H            2.006788933232     1.439777144008     0.361887183132     1.007825032230
         H            2.204542933232    -1.022844855992    -0.083781816868     1.007825032230

  Basis Set: AUG-CC-PVTZ
    Blend: AUG-CC-PVTZ
  Basis Set: (AUG-CC-PVTZ AUX)
    Blend: AUG-CC-PVTZ-JKFIT
	 Reference Energy          =    -267.7286271683052519 [Eh]
	 Singles Energy            =      -0.0000000000000000 [Eh]
	 Same-Spin Energy          =      -0.2750045297240856 [Eh]
	 Opposite-Spin Energy      =      -0.8888537944414578 [Eh]
	 Correlation Energy        =      -1.1638583241655436 [Eh]
	 Total Energy              =    -268.8924854924707688 [Eh]

	 ================> DF-SCS-MP2 Energies <==================
	-----------------------------------------------------------
	 SCS Same-Spin Scale       =       0.3333333333333333 [-]
	 SCS Opposite-Spin Scale   =       1.2000000000000000 [-]
	 SCS Same-Spin Energy      =      -0.0916681765746952 [Eh]
	 SCS Opposite-Spin Energy  =      -1.0666245533297494 [Eh]
	 SCS Correlation Energy    =      -1.1582927299044445 [Eh]
	 SCS Total Energy          =    -268.8869198982096691 [Eh]
	-----------------------------------------------------------

  Dipole Moment: [D]
     X:    -0.5428      Y:     0.6167      Z:     0.5559     Total:     0.9919

*** Psi4 exiting successfully. Buy a developer a beer!
