                               Psi4 1.3.2 release

  ==> Input File <==

--------------------------------------------------------------------------
#psi4
#
memory 32 gb

molecule  {
0 1
  O        0.1973020    -1.3235490    -0.2892290
  C       -1.0344600    -0.8194530     0.2767900
  C       -1.2574290     0.6116450    -0.1105210
  C       -0.1783580     1.4194390    -0.0692080
  C        1.1492893     0.8257733     0.1759136
  C        1.2576400    -0.5068660    -0.0292480
  H       -0.9620370    -0.9265990     1.3719500
  H       -1.8114290    -1.4891710    -0.0946800
  H       -2.2490060     0.9624120    -0.3801030
  H       -0.2469520     2.4774150    -0.3092500
  H        2.0071080     1.4278200     0.3572680
  H        2.2048620    -1.0348020    -0.0884010
units angstrom
no_reorient  #important for SAPT in psi4, default
symmetry c1  #important for SAPT in psi4, default
}

set PROPERTIES_ORIGIN ["COM"]
properties('MP2/aug-cc-pvtz', properties = ['dipole'])
--------------------------------------------------------------------------

    Molecular point group: c1
  Charge       = 0
  Multiplicity = 1
  Basis Set: AUG-CC-PVTZ
    Blend: AUG-CC-PVTZ
  Basis Set: (AUG-CC-PVTZ AUX)
    Blend: AUG-CC-PVTZ-JKFIT

    Orbital Energies [Eh]
    ---------------------

    Doubly Occupied:

       1A    -20.587847     2A    -11.300896     3A    -11.291241
       4A    -11.243070     5A    -11.231423     6A    -11.226065
       7A     -1.407512     8A     -1.093493     9A     -1.035080
      10A     -0.899248    11A     -0.838962    12A     -0.717545
      13A     -0.704790    14A     -0.650378    15A     -0.634797
      16A     -0.605261    17A     -0.572378    18A     -0.530800
      19A     -0.510237    20A     -0.470041    21A     -0.416794
      22A     -0.303832

  @DF-RHF Final Energy:  -267.73796051519275

   => Energetics <=

    Nuclear Repulsion Energy =            223.1741119003445419
    One-Electron Energy =                -805.2807677602733065
    Two-Electron Energy =                 314.3686953447360111
    Total Energy =                       -267.7379605151927535
  Basis Set: (AUG-CC-PVTZ AUX)
    Blend: AUG-CC-PVTZ-RI
    Molecular point group: c1

    Geometry (in Angstrom), charge = 0, multiplicity = 1:

       Center              X                  Y                   Z               Mass
    ------------   -----------------  -----------------  -----------------  -----------------
         O            0.181087258469    -1.306784022809    -0.279014878222    15.994914619570
         C           -1.050674741531    -0.802688022809     0.287004121778    12.000000000000
         C           -1.273643741531     0.628409977191    -0.100306878222    12.000000000000
         C           -0.194572741531     1.436203977191    -0.058993878222    12.000000000000
         C            1.133074558469     0.842538277191     0.186127721778    12.000000000000
         C            1.241425258469    -0.490101022809    -0.019033878222    12.000000000000
         H           -0.978251741531    -0.909834022809     1.382164121778     1.007825032230
         H           -1.827643741531    -1.472406022809    -0.084465878222     1.007825032230
         H           -2.265220741531     0.979176977191    -0.369888878222     1.007825032230
         H           -0.263166741531     2.494179977191    -0.299035878222     1.007825032230
         H            1.990893258469     1.444584977191     0.367482121778     1.007825032230
         H            2.188647258469    -1.018037022809    -0.078186878222     1.007825032230

  Basis Set: AUG-CC-PVTZ
    Blend: AUG-CC-PVTZ
  Basis Set: (AUG-CC-PVTZ AUX)
    Blend: AUG-CC-PVTZ-JKFIT
	 Reference Energy          =    -267.7379605151927535 [Eh]
	 Singles Energy            =      -0.0000000000000000 [Eh]
	 Same-Spin Energy          =      -0.2737775047592647 [Eh]
	 Opposite-Spin Energy      =      -0.8865049077365121 [Eh]
	 Correlation Energy        =      -1.1602824124957767 [Eh]
	 Total Energy              =    -268.8982429276885568 [Eh]

	 ================> DF-SCS-MP2 Energies <==================
	-----------------------------------------------------------
	 SCS Same-Spin Scale       =       0.3333333333333333 [-]
	 SCS Opposite-Spin Scale   =       1.2000000000000000 [-]
	 SCS Same-Spin Energy      =      -0.0912591682530882 [Eh]
	 SCS Opposite-Spin Energy  =      -1.0638058892838145 [Eh]
	 SCS Correlation Energy    =      -1.1550650575369028 [Eh]
	 SCS Total Energy          =    -268.8930255727296412 [Eh]
	-----------------------------------------------------------

  Dipole Moment: [D]
     X:    -0.3398      Y:     0.6287      Z:     0.4267     Total:     0.8323

*** Psi4 exiting successfully. Buy a developer a beer!
