                               Psi4 1.3.2 release

  ==> Input File <==

--------------------------------------------------------------------------
#psi4
#
memory 32 gb

molecule  {
0 1
  O        0.1973020    -1.3235490    -0.2892290
  C       -1.0854893    -0.8284339     0.2694475
  C       -1.2574290     0.6116450    -0.1105210
  C       -0.1783580     1.4194390    -0.0692080
  C        1.1257810     0.8237890     0.1750290
  C        1.2576400    -0.5068660    -0.0292480
  H       -0.9620370    -0.9265990     1.3719500
  H       -1.8114290    -1.4891710    -0.0946800
  H       -2.2490060     0.9624120    -0.3801030
  H       -0.2469520     2.4774150    -0.3092500
  H        2.0071080     1.4278200     0.3572680
  H        2.2048620    -1.0348020    -0.0884010
units angstrom
no_reorient  #important for SAPT in psi4, default
symmetry c1  #important for SAPT in psi4, default
}

set PROPERTIES_ORIGIN ["COM"]
properties('MP2/aug-cc-pvtz', properties = ['dipole'])
--------------------------------------------------------------------------

    Molecular point group: c1
  Charge       = 0
  Multiplicity = 1
  Basis Set: AUG-CC-PVTZ
    Blend: AUG-CC-PVTZ
  Basis Set: (AUG-CC-PVTZ AUX)
    Blend: AUG-CC-PVTZ-JKFIT

    Orbital Energies [Eh]
    ---------------------

    Doubly Occupied:

       1A    -20.582998     2A    -11.300174     3A    -11.292574
       4A    -11.242718     5A    -11.231965     6A    -11.224093
       7A     -1.394937     8A     -1.094863     9A     -1.034730
      10A     -0.901646    11A     -0.837537    12A     -0.718206
      13A     -0.699039    14A     -0.645602    15A     -0.634974
      16A     -0.604397    17A     -0.571110    18A     -0.529349
      19A     -0.516163    20A     -0.469448    21A     -0.417587
      22A     -0.300619

  @DF-RHF Final Energy:  -267.73485581313503

   => Energetics <=

    Nuclear Repulsion Energy =            222.7538487869118171
    One-Electron Energy =                -804.4879577787016842
    Two-Electron Energy =                 313.9992531786548398
    Total Energy =                       -267.7348558131350273
  Basis Set: (AUG-CC-PVTZ AUX)
    Blend: AUG-CC-PVTZ-RI
    Molecular point group: c1

    Geometry (in Angstrom), charge = 0, multiplicity = 1:

       Center              X                  Y                   Z               Mass
    ------------   -----------------  -----------------  -----------------  -----------------
         O            0.191989633763    -1.305180178232    -0.277811526735    15.994914619570
         C           -1.090801666237    -0.810065078232     0.280864973265    12.000000000000
         C           -1.262741366237     0.630013821768    -0.099103526735    12.000000000000
         C           -0.183670366237     1.437807821768    -0.057790526735    12.000000000000
         C            1.120468633763     0.842157821768     0.186446473265    12.000000000000
         C            1.252327633763    -0.488497178232    -0.017830526735    12.000000000000
         H           -0.967349366237    -0.908230178232     1.383367473265     1.007825032230
         H           -1.816741366237    -1.470802178232    -0.083262526735     1.007825032230
         H           -2.254318366237     0.980780821768    -0.368685526735     1.007825032230
         H           -0.252264366237     2.495783821768    -0.297832526735     1.007825032230
         H            2.001795633763     1.446188821768     0.368685473265     1.007825032230
         H            2.199549633763    -1.016433178232    -0.076983526735     1.007825032230

  Basis Set: AUG-CC-PVTZ
    Blend: AUG-CC-PVTZ
  Basis Set: (AUG-CC-PVTZ AUX)
    Blend: AUG-CC-PVTZ-JKFIT
	 Reference Energy          =    -267.7348558131350273 [Eh]
	 Singles Energy            =      -0.0000000000000000 [Eh]
	 Same-Spin Energy          =      -0.2741469559865922 [Eh]
	 Opposite-Spin Energy      =      -0.8871427003886669 [Eh]
	 Correlation Energy        =      -1.1612896563752590 [Eh]
	 Total Energy              =    -268.8961454695102589 [Eh]

	 ================> DF-SCS-MP2 Energies <==================
	-----------------------------------------------------------
	 SCS Same-Spin Scale       =       0.3333333333333333 [-]
	 SCS Opposite-Spin Scale   =       1.2000000000000000 [-]
	 SCS Same-Spin Energy      =      -0.0913823186621974 [Eh]
	 SCS Opposite-Spin Energy  =      -1.0645712404664003 [Eh]
	 SCS Correlation Energy    =      -1.1559535591285977 [Eh]
	 SCS Total Energy          =    -268.8908093722636181 [Eh]
	-----------------------------------------------------------

  Dipole Moment: [D]
     X:    -0.4445      Y:     0.5898      Z:     0.4358     Total:     0.8575

*** Psi4 exiting successfully. Buy a developer a beer!
