                               Psi4 1.3.2 release

  ==> Input File <==

--------------------------------------------------------------------------
#psi4
#
memory 32 gb

molecule  {
0 1
  O        0.1886449    -1.3181471    -0.3123165
  C       -1.0344600    -0.8194530     0.2767900
  C       -1.2574290     0.6116450    -0.1105210
  C       -0.1783580     1.4194390    -0.0692080
  C        1.1257810     0.8237890     0.1750290
  C        1.2576400    -0.5068660    -0.0292480
  H       -0.9620370    -0.9265990     1.3719500
  H       -1.8114290    -1.4891710    -0.0946800
  H       -2.2490060     0.9624120    -0.3801030
  H       -0.2469520     2.4774150    -0.3092500
  H        2.0071080     1.4278200     0.3572680
  H        2.2048620    -1.0348020    -0.0884010
units angstrom
no_reorient  #important for SAPT in psi4, default
symmetry c1  #important for SAPT in psi4, default
}

set PROPERTIES_ORIGIN ["COM"]
properties('MP2/aug-cc-pvtz', properties = ['dipole'])
--------------------------------------------------------------------------

    Molecular point group: c1
  Charge       = 0
  Multiplicity = 1
  Basis Set: AUG-CC-PVTZ
    Blend: AUG-CC-PVTZ
  Basis Set: (AUG-CC-PVTZ AUX)
    Blend: AUG-CC-PVTZ-JKFIT

    Orbital Energies [Eh]
    ---------------------

    Doubly Occupied:

       1A    -20.586317     2A    -11.300662     3A    -11.290805
       4A    -11.241509     5A    -11.231696     6A    -11.227292
       7A     -1.403961     8A     -1.096373     9A     -1.034100
      10A     -0.898189    11A     -0.839693    12A     -0.717675
      13A     -0.704021    14A     -0.648343    15A     -0.631364
      16A     -0.604843    17A     -0.572304    18A     -0.533460
      19A     -0.507141    20A     -0.470224    21A     -0.418502
      22A     -0.303543

  @DF-RHF Final Energy:  -267.73753846617740

   => Energetics <=

    Nuclear Repulsion Energy =            223.4073533789635349
    One-Electron Energy =                -805.7657503811765309
    Two-Electron Energy =                 314.6208585360355983
    Total Energy =                       -267.7375384661773978
  Basis Set: (AUG-CC-PVTZ AUX)
    Blend: AUG-CC-PVTZ-RI
    Molecular point group: c1

    Geometry (in Angstrom), charge = 0, multiplicity = 1:

       Center              X                  Y                   Z               Mass
    ------------   -----------------  -----------------  -----------------  -----------------
         O            0.177556433650    -1.302145042197    -0.297471842432    15.994914619570
         C           -1.045548466350    -0.803450942197     0.291634657568    12.000000000000
         C           -1.268517466350     0.627647057803    -0.095676342432    12.000000000000
         C           -0.189446466350     1.435441057803    -0.054363342432    12.000000000000
         C            1.114692533650     0.839791057803     0.189873657568    12.000000000000
         C            1.246551533650    -0.490863942197    -0.014403342432    12.000000000000
         H           -0.973125466350    -0.910596942197     1.386794657568     1.007825032230
         H           -1.822517466350    -1.473168942197    -0.079835342432     1.007825032230
         H           -2.260094466350     0.978414057803    -0.365258342432     1.007825032230
         H           -0.258040466350     2.493417057803    -0.294405342432     1.007825032230
         H            1.996019533650     1.443822057803     0.372112657568     1.007825032230
         H            2.193773533650    -1.018799942197    -0.073556342432     1.007825032230

  Basis Set: AUG-CC-PVTZ
    Blend: AUG-CC-PVTZ
  Basis Set: (AUG-CC-PVTZ AUX)
    Blend: AUG-CC-PVTZ-JKFIT
	 Reference Energy          =    -267.7375384661773978 [Eh]
	 Singles Energy            =      -0.0000000000000000 [Eh]
	 Same-Spin Energy          =      -0.2741629811141620 [Eh]
	 Opposite-Spin Energy      =      -0.8870270023951914 [Eh]
	 Correlation Energy        =      -1.1611899835093533 [Eh]
	 Total Energy              =    -268.8987284496867574 [Eh]

	 ================> DF-SCS-MP2 Energies <==================
	-----------------------------------------------------------
	 SCS Same-Spin Scale       =       0.3333333333333333 [-]
	 SCS Opposite-Spin Scale   =       1.2000000000000000 [-]
	 SCS Same-Spin Energy      =      -0.0913876603713873 [Eh]
	 SCS Opposite-Spin Energy  =      -1.0644324028742296 [Eh]
	 SCS Correlation Energy    =      -1.1558200632456168 [Eh]
	 SCS Total Energy          =    -268.8933585294230397 [Eh]
	-----------------------------------------------------------

  Dipole Moment: [D]
     X:    -0.3074      Y:     0.6476      Z:     0.4520     Total:     0.8475

*** Psi4 exiting successfully. Buy a developer a beer!
