                               Psi4 1.4a3.dev225

  ==> Input File <==

--------------------------------------------------------------------------
#psi4
#
memory 32 gb

molecule  {
0 1
  O        0.1973020    -1.3235490    -0.2892290
  C       -1.0174265    -0.8264239     0.2689628
  C       -1.2574290     0.6116450    -0.1105210
  C       -0.1783580     1.4194390    -0.0692080
  C        1.1257810     0.8237890     0.1750290
  C        1.2576400    -0.5068660    -0.0292480
  H       -0.9620370    -0.9265990     1.3719500
  H       -1.8114290    -1.4891710    -0.0946800
  H       -2.2490060     0.9624120    -0.3801030
  H       -0.2469520     2.4774150    -0.3092500
  H        2.0071080     1.4278200     0.3572680
  H        2.2048620    -1.0348020    -0.0884010
units angstrom
no_reorient  #important for SAPT in psi4, default
symmetry c1  #important for SAPT in psi4, default
}

set PROPERTIES_ORIGIN ["COM"]
properties('MP2/aug-cc-pvtz', properties = ['dipole'])
--------------------------------------------------------------------------

    Molecular point group: c1
  Charge       = 0
  Multiplicity = 1
  Basis Set: AUG-CC-PVTZ
    Blend: AUG-CC-PVTZ
  Basis Set: (AUG-CC-PVTZ AUX)
    Blend: AUG-CC-PVTZ-JKFIT

    Orbital Energies [Eh]
    ---------------------

    Doubly Occupied:

       1A    -20.588639     2A    -11.301268     3A    -11.290925
       4A    -11.241114     5A    -11.231603     6A    -11.227123
       7A     -1.413703     8A     -1.096332     9A     -1.034639
      10A     -0.897607    11A     -0.842117    12A     -0.719194
      13A     -0.703840    14A     -0.652091    15A     -0.634325
      16A     -0.605617    17A     -0.573951    18A     -0.532665
      19A     -0.505278    20A     -0.469748    21A     -0.419561
      22A     -0.302529

  @DF-RHF Final Energy:  -267.73833006110806

   => Energetics <=

    Nuclear Repulsion Energy =            223.7361793853071106
    One-Electron Energy =                -806.3812789699487666
    Two-Electron Energy =                 314.9067695235336259
    Total Energy =                       -267.7383300611080585
  Basis Set: (AUG-CC-PVTZ AUX)
    Blend: AUG-CC-PVTZ-RI
    Molecular point group: c1

    Geometry (in Angstrom), charge = 0, multiplicity = 1:

       Center              X                  Y                   Z               Mass
    ------------   -----------------  -----------------  -----------------  -----------------
         O            0.182034306664    -1.305474174475    -0.277740631223    15.994914619570
         C           -1.032694193336    -0.808349074475     0.280451168777    12.000000000000
         C           -1.272696693336     0.629719825525    -0.099032631223    12.000000000000
         C           -0.193625693336     1.437513825525    -0.057719631223    12.000000000000
         C            1.110513306664     0.841863825525     0.186517368777    12.000000000000
         C            1.242372306664    -0.488791174475    -0.017759631223    12.000000000000
         H           -0.977304693336    -0.908524174475     1.383438368777     1.007825032230
         H           -1.826696693336    -1.471096174475    -0.083191631223     1.007825032230
         H           -2.264273693336     0.980486825525    -0.368614631223     1.007825032230
         H           -0.262219693336     2.495489825525    -0.297761631223     1.007825032230
         H            1.991840306664     1.445894825525     0.368756368777     1.007825032230
         H            2.189594306664    -1.016727174475    -0.076912631223     1.007825032230

  Basis Set: AUG-CC-PVTZ
    Blend: AUG-CC-PVTZ
  Basis Set: (AUG-CC-PVTZ AUX)
    Blend: AUG-CC-PVTZ-JKFIT
	 Reference Energy          =    -267.7383300611080585 [Eh]
	 Singles Energy            =      -0.0000000000000000 [Eh]
	 Same-Spin Energy          =      -0.2740158197919414 [Eh]
	 Opposite-Spin Energy      =      -0.8864299200820493 [Eh]
	 Correlation Energy        =      -1.1604457398739907 [Eh]
	 Total Energy              =    -268.8987758009820368 [Eh]

	 ================> DF-SCS-MP2 Energies <==================
	-----------------------------------------------------------
	 SCS Same-Spin Scale       =       0.3333333333333333 [-]
	 SCS Opposite-Spin Scale   =       1.2000000000000000 [-]
	 SCS Same-Spin Energy      =      -0.0913386065973138 [Eh]
	 SCS Opposite-Spin Energy  =      -1.0637159040984592 [Eh]
	 SCS Correlation Energy    =      -1.1550545106957730 [Eh]
	 SCS Total Energy          =    -268.8933845718038356 [Eh]
	-----------------------------------------------------------

  Dipole Moment: [D]
     X:    -0.2802      Y:     0.6252      Z:     0.3887     Total:     0.7877

*** Psi4 exiting successfully. Buy a developer a beer!
