                               Psi4 1.3.2 release

  ==> Input File <==

--------------------------------------------------------------------------
#psi4
#
memory 32 gb

molecule  {
0 1
  O        0.1973020    -1.3235490    -0.2892290
  C       -1.0344600    -0.8194530     0.2767900
  C       -1.2574290     0.6116450    -0.1105210
  C       -0.1105397     1.5548422    -0.0536664
  C        1.1257810     0.8237890     0.1750290
  C        1.2576400    -0.5068660    -0.0292480
  H       -0.9620370    -0.9265990     1.3719500
  H       -1.8114290    -1.4891710    -0.0946800
  H       -2.2490060     0.9624120    -0.3801030
  H       -0.2469520     2.4774150    -0.3092500
  H        2.0071080     1.4278200     0.3572680
  H        2.2048620    -1.0348020    -0.0884010
units angstrom
no_reorient  #important for SAPT in psi4, default
symmetry c1  #important for SAPT in psi4, default
}

set PROPERTIES_ORIGIN ["COM"]
properties('MP2/aug-cc-pvtz', properties = ['dipole'])
--------------------------------------------------------------------------

    Molecular point group: c1
  Charge       = 0
  Multiplicity = 1
  Basis Set: AUG-CC-PVTZ
    Blend: AUG-CC-PVTZ
  Basis Set: (AUG-CC-PVTZ AUX)
    Blend: AUG-CC-PVTZ-JKFIT

    Orbital Energies [Eh]
    ---------------------

    Doubly Occupied:

       1A    -20.587920     2A    -11.302501     3A    -11.295402
       4A    -11.252397     5A    -11.251201     6A    -11.230101
       7A     -1.407570     8A     -1.081928     9A     -1.031773
      10A     -0.901069    11A     -0.843688    12A     -0.733404
      13A     -0.703792    14A     -0.653999    15A     -0.633156
      16A     -0.610202    17A     -0.580537    18A     -0.531324
      19A     -0.490025    20A     -0.483255    21A     -0.408301
      22A     -0.287889

  @DF-RHF Final Energy:  -267.69957165546185

   => Energetics <=

    Nuclear Repulsion Energy =            221.3485112664066605
    One-Electron Energy =                -801.4932977325490810
    Two-Electron Energy =                 312.4452148106806249
    Total Energy =                       -267.6995716554618525
  Basis Set: (AUG-CC-PVTZ AUX)
    Blend: AUG-CC-PVTZ-RI
    Molecular point group: c1

    Geometry (in Angstrom), charge = 0, multiplicity = 1:

       Center              X                  Y                   Z               Mass
    ------------   -----------------  -----------------  -----------------  -----------------
         O            0.174606177119    -1.326298776693    -0.281158710525    15.994914619570
         C           -1.057155822881    -0.822202776693     0.284860289475    12.000000000000
         C           -1.280124822881     0.608895223307    -0.102450710525    12.000000000000
         C           -0.133235522881     1.552092423307    -0.045596110525    12.000000000000
         C            1.103085177119     0.821039223307     0.183099289475    12.000000000000
         C            1.234944177119    -0.509615776693    -0.021177710525    12.000000000000
         H           -0.984732822881    -0.929348776693     1.380020289475     1.007825032230
         H           -1.834124822881    -1.491920776693    -0.086609710525     1.007825032230
         H           -2.271701822881     0.959662223307    -0.372032710525     1.007825032230
         H           -0.269647822881     2.474665223307    -0.301179710525     1.007825032230
         H            1.984412177119     1.425070223307     0.365338289475     1.007825032230
         H            2.182166177119    -1.037551776693    -0.080330710525     1.007825032230

  Basis Set: AUG-CC-PVTZ
    Blend: AUG-CC-PVTZ
  Basis Set: (AUG-CC-PVTZ AUX)
    Blend: AUG-CC-PVTZ-JKFIT
	 Reference Energy          =    -267.6995716554618525 [Eh]
	 Singles Energy            =      -0.0000000000000000 [Eh]
	 Same-Spin Energy          =      -0.2763310051858786 [Eh]
	 Opposite-Spin Energy      =      -0.8922887329293105 [Eh]
	 Correlation Energy        =      -1.1686197381151890 [Eh]
	 Total Energy              =    -268.8681913935770353 [Eh]

	 ================> DF-SCS-MP2 Energies <==================
	-----------------------------------------------------------
	 SCS Same-Spin Scale       =       0.3333333333333333 [-]
	 SCS Opposite-Spin Scale   =       1.2000000000000000 [-]
	 SCS Same-Spin Energy      =      -0.0921103350619595 [Eh]
	 SCS Opposite-Spin Energy  =      -1.0707464795151727 [Eh]
	 SCS Correlation Energy    =      -1.1628568145771321 [Eh]
	 SCS Total Energy          =    -268.8624284700389921 [Eh]
	-----------------------------------------------------------

  Dipole Moment: [D]
     X:    -0.3322      Y:     0.5973      Z:     0.3826     Total:     0.7832

*** Psi4 exiting successfully. Buy a developer a beer!
