                               Psi4 1.3.2 release

  ==> Input File <==

--------------------------------------------------------------------------
#psi4
#
memory 32 gb

molecule  {
0 1
  O        0.1973020    -1.3235490    -0.2892290
  C       -1.0090434    -0.8143080     0.2802848
  C       -1.2574290     0.6116450    -0.1105210
  C       -0.1783580     1.4194390    -0.0692080
  C        1.1257810     0.8237890     0.1750290
  C        1.2576400    -0.5068660    -0.0292480
  H       -0.9620370    -0.9265990     1.3719500
  H       -1.8114290    -1.4891710    -0.0946800
  H       -2.2490060     0.9624120    -0.3801030
  H       -0.2469520     2.4774150    -0.3092500
  H        2.0071080     1.4278200     0.3572680
  H        2.2048620    -1.0348020    -0.0884010
units angstrom
no_reorient  #important for SAPT in psi4, default
symmetry c1  #important for SAPT in psi4, default
}

set PROPERTIES_ORIGIN ["COM"]
properties('MP2/aug-cc-pvtz', properties = ['dipole'])
--------------------------------------------------------------------------

    Molecular point group: c1
  Charge       = 0
  Multiplicity = 1
  Basis Set: AUG-CC-PVTZ
    Blend: AUG-CC-PVTZ
  Basis Set: (AUG-CC-PVTZ AUX)
    Blend: AUG-CC-PVTZ-JKFIT

    Orbital Energies [Eh]
    ---------------------

    Doubly Occupied:

       1A    -20.589042     2A    -11.301257     3A    -11.290830
       4A    -11.241276     5A    -11.231169     6A    -11.227217
       7A     -1.413897     8A     -1.097275     9A     -1.034657
      10A     -0.897206    11A     -0.842225    12A     -0.718790
      13A     -0.705591    14A     -0.651934    15A     -0.633034
      16A     -0.606100    17A     -0.572943    18A     -0.533983
      19A     -0.502494    20A     -0.471815    21A     -0.419441
      22A     -0.303076

  @DF-RHF Final Energy:  -267.73752700800549

   => Energetics <=

    Nuclear Repulsion Energy =            223.8754135661379792
    One-Electron Energy =                -806.6553776455940579
    Two-Electron Energy =                 315.0424370714505358
    Total Energy =                       -267.7375270080054861
  Basis Set: (AUG-CC-PVTZ AUX)
    Blend: AUG-CC-PVTZ-RI
    Molecular point group: c1

    Geometry (in Angstrom), charge = 0, multiplicity = 1:

       Center              X                  Y                   Z               Mass
    ------------   -----------------  -----------------  -----------------  -----------------
         O            0.180808137559    -1.307246328244    -0.279396663791    15.994914619570
         C           -1.025537262441    -0.798005328244     0.290117136209    12.000000000000
         C           -1.273922862441     0.627947671756    -0.100688663791    12.000000000000
         C           -0.194851862441     1.435741671756    -0.059375663791    12.000000000000
         C            1.109287137559     0.840091671756     0.184861336209    12.000000000000
         C            1.241146137559    -0.490563328244    -0.019415663791    12.000000000000
         H           -0.978530862441    -0.910296328244     1.381782336209     1.007825032230
         H           -1.827922862441    -1.472868328244    -0.084847663791     1.007825032230
         H           -2.265499862441     0.978714671756    -0.370270663791     1.007825032230
         H           -0.263445862441     2.493717671756    -0.299417663791     1.007825032230
         H            1.990614137559     1.444122671756     0.367100336209     1.007825032230
         H            2.188368137559    -1.018499328244    -0.078568663791     1.007825032230

  Basis Set: AUG-CC-PVTZ
    Blend: AUG-CC-PVTZ
  Basis Set: (AUG-CC-PVTZ AUX)
    Blend: AUG-CC-PVTZ-JKFIT
	 Reference Energy          =    -267.7375270080054861 [Eh]
	 Singles Energy            =      -0.0000000000000000 [Eh]
	 Same-Spin Energy          =      -0.2741687237635081 [Eh]
	 Opposite-Spin Energy      =      -0.8866815542706881 [Eh]
	 Correlation Energy        =      -1.1608502780341960 [Eh]
	 Total Energy              =    -268.8983772860397039 [Eh]

	 ================> DF-SCS-MP2 Energies <==================
	-----------------------------------------------------------
	 SCS Same-Spin Scale       =       0.3333333333333333 [-]
	 SCS Opposite-Spin Scale   =       1.2000000000000000 [-]
	 SCS Same-Spin Energy      =      -0.0913895745878360 [Eh]
	 SCS Opposite-Spin Energy  =      -1.0640178651248255 [Eh]
	 SCS Correlation Energy    =      -1.1554074397126617 [Eh]
	 SCS Total Energy          =    -268.8929344477181758 [Eh]
	-----------------------------------------------------------

  Dipole Moment: [D]
     X:    -0.2661      Y:     0.6423      Z:     0.4103     Total:     0.8073

*** Psi4 exiting successfully. Buy a developer a beer!
