                               Psi4 1.3.2 release

  ==> Input File <==

--------------------------------------------------------------------------
#psi4
#
memory 32 gb

molecule  {
0 1
  O        0.1973020    -1.3235490    -0.2892290
  C       -0.9839833    -0.8083942     0.2850579
  C       -1.2574290     0.6116450    -0.1105210
  C       -0.1783580     1.4194390    -0.0692080
  C        1.1257810     0.8237890     0.1750290
  C        1.2576400    -0.5068660    -0.0292480
  H       -0.9620370    -0.9265990     1.3719500
  H       -1.8114290    -1.4891710    -0.0946800
  H       -2.2490060     0.9624120    -0.3801030
  H       -0.2469520     2.4774150    -0.3092500
  H        2.0071080     1.4278200     0.3572680
  H        2.2048620    -1.0348020    -0.0884010
units angstrom
no_reorient  #important for SAPT in psi4, default
symmetry c1  #important for SAPT in psi4, default
}

set PROPERTIES_ORIGIN ["COM"]
properties('MP2/aug-cc-pvtz', properties = ['dipole'])
--------------------------------------------------------------------------

    Molecular point group: c1
  Charge       = 0
  Multiplicity = 1
  Basis Set: AUG-CC-PVTZ
    Blend: AUG-CC-PVTZ
  Basis Set: (AUG-CC-PVTZ AUX)
    Blend: AUG-CC-PVTZ-JKFIT

    Orbital Energies [Eh]
    ---------------------

    Doubly Occupied:

       1A    -20.590941     2A    -11.301649     3A    -11.290784
       4A    -11.240911     5A    -11.231095     6A    -11.228269
       7A     -1.420406     8A     -1.098267     9A     -1.034730
      10A     -0.896107    11A     -0.843786    12A     -0.719566
      13A     -0.707989    14A     -0.654083    15A     -0.633324
      16A     -0.606564    17A     -0.574002    18A     -0.535456
      19A     -0.495995    20A     -0.472352    21A     -0.419903
      22A     -0.303956

  @DF-RHF Final Energy:  -267.73541056304686

   => Energetics <=

    Nuclear Repulsion Energy =            224.2484324940268152
    One-Electron Energy =                -807.3674178183512140
    Two-Electron Energy =                 315.3835747612775435
    Total Energy =                       -267.7354105630468553
  Basis Set: (AUG-CC-PVTZ AUX)
    Blend: AUG-CC-PVTZ-RI
    Molecular point group: c1

    Geometry (in Angstrom), charge = 0, multiplicity = 1:

       Center              X                  Y                   Z               Mass
    ------------   -----------------  -----------------  -----------------  -----------------
         O            0.177142677239    -1.308111320772    -0.280094809794    15.994914619570
         C           -1.004142622761    -0.792956520772     0.294192090206    12.000000000000
         C           -1.277588322761     0.627082679228    -0.101386809794    12.000000000000
         C           -0.198517322761     1.434876679228    -0.060073809794    12.000000000000
         C            1.105621677239     0.839226679228     0.184163190206    12.000000000000
         C            1.237480677239    -0.491428320772    -0.020113809794    12.000000000000
         H           -0.982196322761    -0.911161320772     1.381084190206     1.007825032230
         H           -1.831588322761    -1.473733320772    -0.085545809794     1.007825032230
         H           -2.269165322761     0.977849679228    -0.370968809794     1.007825032230
         H           -0.267111322761     2.492852679228    -0.300115809794     1.007825032230
         H            1.986948677239     1.443257679228     0.366402190206     1.007825032230
         H            2.184702677239    -1.019364320772    -0.079266809794     1.007825032230

  Basis Set: AUG-CC-PVTZ
    Blend: AUG-CC-PVTZ
  Basis Set: (AUG-CC-PVTZ AUX)
    Blend: AUG-CC-PVTZ-JKFIT
	 Reference Energy          =    -267.7354105630468553 [Eh]
	 Singles Energy            =      -0.0000000000000000 [Eh]
	 Same-Spin Energy          =      -0.2742668192876713 [Eh]
	 Opposite-Spin Energy      =      -0.8867303875377872 [Eh]
	 Correlation Energy        =      -1.1609972068254586 [Eh]
	 Total Energy              =    -268.8964077698723258 [Eh]

	 ================> DF-SCS-MP2 Energies <==================
	-----------------------------------------------------------
	 SCS Same-Spin Scale       =       0.3333333333333333 [-]
	 SCS Opposite-Spin Scale   =       1.2000000000000000 [-]
	 SCS Same-Spin Energy      =      -0.0914222730958904 [Eh]
	 SCS Opposite-Spin Energy  =      -1.0640764650453447 [Eh]
	 SCS Correlation Energy    =      -1.1554987381412352 [Eh]
	 SCS Total Energy          =    -268.8909093011881168 [Eh]
	-----------------------------------------------------------

  Dipole Moment: [D]
     X:    -0.2034      Y:     0.6637      Z:     0.4047     Total:     0.8035

*** Psi4 exiting successfully. Buy a developer a beer!
