                               Psi4 1.3.2 release

  ==> Input File <==

--------------------------------------------------------------------------
#psi4
#
memory 32 gb

molecule  {
0 1
  O        0.1973020    -1.3235490    -0.2892290
  C       -1.0344600    -0.8194530     0.2767900
  C       -1.2577391     0.6045422    -0.1357032
  C       -0.1783580     1.4194390    -0.0692080
  C        1.1257810     0.8237890     0.1750290
  C        1.2576400    -0.5068660    -0.0292480
  H       -0.9620370    -0.9265990     1.3719500
  H       -1.8114290    -1.4891710    -0.0946800
  H       -2.2490060     0.9624120    -0.3801030
  H       -0.2469520     2.4774150    -0.3092500
  H        2.0071080     1.4278200     0.3572680
  H        2.2048620    -1.0348020    -0.0884010
units angstrom
no_reorient  #important for SAPT in psi4, default
symmetry c1  #important for SAPT in psi4, default
}

set PROPERTIES_ORIGIN ["COM"]
properties('MP2/aug-cc-pvtz', properties = ['dipole'])
--------------------------------------------------------------------------

    Molecular point group: c1
  Charge       = 0
  Multiplicity = 1
  Basis Set: AUG-CC-PVTZ
    Blend: AUG-CC-PVTZ
  Basis Set: (AUG-CC-PVTZ AUX)
    Blend: AUG-CC-PVTZ-JKFIT

    Orbital Energies [Eh]
    ---------------------

    Doubly Occupied:

       1A    -20.587026     2A    -11.301007     3A    -11.291175
       4A    -11.242673     5A    -11.231499     6A    -11.226277
       7A     -1.407394     8A     -1.095478     9A     -1.034671
      10A     -0.897873    11A     -0.840770    12A     -0.718386
      13A     -0.704046    14A     -0.649015    15A     -0.633625
      16A     -0.605054    17A     -0.572476    18A     -0.532702
      19A     -0.507079    20A     -0.471970    21A     -0.418215
      22A     -0.301815

  @DF-RHF Final Energy:  -267.73748981958522

   => Energetics <=

    Nuclear Repulsion Energy =            223.4635483884322014
    One-Electron Energy =                -805.8616264795911093
    Two-Electron Energy =                 314.6605882715737152
    Total Energy =                       -267.7374898195852211
  Basis Set: (AUG-CC-PVTZ AUX)
    Blend: AUG-CC-PVTZ-RI
    Molecular point group: c1

    Geometry (in Angstrom), charge = 0, multiplicity = 1:

       Center              X                  Y                   Z               Mass
    ------------   -----------------  -----------------  -----------------  -----------------
         O            0.184571099319    -1.305454881885    -0.275202171128    15.994914619570
         C           -1.047190900681    -0.801358881885     0.290816828872    12.000000000000
         C           -1.270470000681     0.622636318115    -0.121676371128    12.000000000000
         C           -0.191088900681     1.437533118115    -0.055181171128    12.000000000000
         C            1.113050099319     0.841883118115     0.189055828872    12.000000000000
         C            1.244909099319    -0.488771881885    -0.015221171128    12.000000000000
         H           -0.974767900681    -0.908504881885     1.385976828872     1.007825032230
         H           -1.824159900681    -1.471076881885    -0.080653171128     1.007825032230
         H           -2.261736900681     0.980506118115    -0.366076171128     1.007825032230
         H           -0.259682900681     2.495509118115    -0.295223171128     1.007825032230
         H            1.994377099319     1.445914118115     0.371294828872     1.007825032230
         H            2.192131099319    -1.016707881885    -0.074374171128     1.007825032230

  Basis Set: AUG-CC-PVTZ
    Blend: AUG-CC-PVTZ
  Basis Set: (AUG-CC-PVTZ AUX)
    Blend: AUG-CC-PVTZ-JKFIT
	 Reference Energy          =    -267.7374898195852211 [Eh]
	 Singles Energy            =      -0.0000000000000000 [Eh]
	 Same-Spin Energy          =      -0.2742414364032399 [Eh]
	 Opposite-Spin Energy      =      -0.8869861000850765 [Eh]
	 Correlation Energy        =      -1.1612275364883164 [Eh]
	 Total Energy              =    -268.8987173560735187 [Eh]

	 ================> DF-SCS-MP2 Energies <==================
	-----------------------------------------------------------
	 SCS Same-Spin Scale       =       0.3333333333333333 [-]
	 SCS Opposite-Spin Scale   =       1.2000000000000000 [-]
	 SCS Same-Spin Energy      =      -0.0914138121344133 [Eh]
	 SCS Opposite-Spin Energy  =      -1.0643833201020918 [Eh]
	 SCS Correlation Energy    =      -1.1557971322365050 [Eh]
	 SCS Total Energy          =    -268.8932869518217217 [Eh]
	-----------------------------------------------------------

  Dipole Moment: [D]
     X:    -0.3263      Y:     0.6276      Z:     0.4482     Total:     0.8374

*** Psi4 exiting successfully. Buy a developer a beer!
