                               Psi4 1.3.2 release

  ==> Input File <==

--------------------------------------------------------------------------
#psi4
#
memory 32 gb

molecule  {
0 1
  O        0.1973020    -1.3235490    -0.2892290
  C       -1.0344600    -0.8194530     0.2767900
  C       -1.2574290     0.6116450    -0.1105210
  C       -0.1873172     1.3966048    -0.0757388
  C        1.1257810     0.8237890     0.1750290
  C        1.2576400    -0.5068660    -0.0292480
  H       -0.9620370    -0.9265990     1.3719500
  H       -1.8114290    -1.4891710    -0.0946800
  H       -2.2490060     0.9624120    -0.3801030
  H       -0.2469520     2.4774150    -0.3092500
  H        2.0071080     1.4278200     0.3572680
  H        2.2048620    -1.0348020    -0.0884010
units angstrom
no_reorient  #important for SAPT in psi4, default
symmetry c1  #important for SAPT in psi4, default
}

set PROPERTIES_ORIGIN ["COM"]
properties('MP2/aug-cc-pvtz', properties = ['dipole'])
--------------------------------------------------------------------------

    Molecular point group: c1
  Charge       = 0
  Multiplicity = 1
  Basis Set: AUG-CC-PVTZ
    Blend: AUG-CC-PVTZ
  Basis Set: (AUG-CC-PVTZ AUX)
    Blend: AUG-CC-PVTZ-JKFIT

    Orbital Energies [Eh]
    ---------------------

    Doubly Occupied:

       1A    -20.587045     2A    -11.300693     3A    -11.290600
       4A    -11.240232     5A    -11.227976     6A    -11.225822
       7A     -1.407461     8A     -1.099525     9A     -1.035275
      10A     -0.899312    11A     -0.839518    12A     -0.717086
      13A     -0.702749    14A     -0.650648    15A     -0.633295
      16A     -0.604744    17A     -0.569808    18A     -0.533367
      19A     -0.509506    20A     -0.468433    21A     -0.420989
      22A     -0.304490

  @DF-RHF Final Energy:  -267.73817819700065

   => Energetics <=

    Nuclear Repulsion Energy =            223.8770094412006699
    One-Electron Energy =                -806.6932272224605640
    Two-Electron Energy =                 315.0780395842592156
    Total Energy =                       -267.7381781970006500
  Basis Set: (AUG-CC-PVTZ AUX)
    Blend: AUG-CC-PVTZ-RI
    Molecular point group: c1

    Geometry (in Angstrom), charge = 0, multiplicity = 1:

       Center              X                  Y                   Z               Mass
    ------------   -----------------  -----------------  -----------------  -----------------
         O            0.185836175390    -1.303153900546    -0.277930251487    15.994914619570
         C           -1.045925824610    -0.799057900546     0.288088748513    12.000000000000
         C           -1.268894824610     0.632040099454    -0.099222251487    12.000000000000
         C           -0.198783024610     1.416999899454    -0.064440051487    12.000000000000
         C            1.114315175390     0.844184099454     0.186327748513    12.000000000000
         C            1.246174175390    -0.486470900546    -0.017949251487    12.000000000000
         H           -0.973502824610    -0.906203900546     1.383248748513     1.007825032230
         H           -1.822894824610    -1.468775900546    -0.083381251487     1.007825032230
         H           -2.260471824610     0.982807099454    -0.368804251487     1.007825032230
         H           -0.258417824610     2.497810099454    -0.297951251487     1.007825032230
         H            1.995642175390     1.448215099454     0.368566748513     1.007825032230
         H            2.193396175390    -1.014406900546    -0.077102251487     1.007825032230

  Basis Set: AUG-CC-PVTZ
    Blend: AUG-CC-PVTZ
  Basis Set: (AUG-CC-PVTZ AUX)
    Blend: AUG-CC-PVTZ-JKFIT
	 Reference Energy          =    -267.7381781970006500 [Eh]
	 Singles Energy            =      -0.0000000000000000 [Eh]
	 Same-Spin Energy          =      -0.2739354318307330 [Eh]
	 Opposite-Spin Energy      =      -0.8862387083797163 [Eh]
	 Correlation Energy        =      -1.1601741402104493 [Eh]
	 Total Energy              =    -268.8983523372111222 [Eh]

	 ================> DF-SCS-MP2 Energies <==================
	-----------------------------------------------------------
	 SCS Same-Spin Scale       =       0.3333333333333333 [-]
	 SCS Opposite-Spin Scale   =       1.2000000000000000 [-]
	 SCS Same-Spin Energy      =      -0.0913118106102443 [Eh]
	 SCS Opposite-Spin Energy  =      -1.0634864500556596 [Eh]
	 SCS Correlation Energy    =      -1.1547982606659040 [Eh]
	 SCS Total Energy          =    -268.8929764576665775 [Eh]
	-----------------------------------------------------------

  Dipole Moment: [D]
     X:    -0.3265      Y:     0.6188      Z:     0.4287     Total:     0.8206

*** Psi4 exiting successfully. Buy a developer a beer!
