                               Psi4 1.3.2 release

  ==> Input File <==

--------------------------------------------------------------------------
#psi4
#
memory 32 gb

molecule  {
0 1
  O        0.1973020    -1.3235490    -0.2892290
  C       -1.0344600    -0.8194530     0.2767900
  C       -1.2574290     0.6116450    -0.1105210
  C       -0.1783580     1.4194390    -0.0692080
  C        1.1257810     0.8237890     0.1750290
  C        1.1638245    -0.5113314    -0.0388979
  H       -0.9620370    -0.9265990     1.3719500
  H       -1.8114290    -1.4891710    -0.0946800
  H       -2.2490060     0.9624120    -0.3801030
  H       -0.2469520     2.4774150    -0.3092500
  H        2.0071080     1.4278200     0.3572680
  H        2.2048620    -1.0348020    -0.0884010
units angstrom
no_reorient  #important for SAPT in psi4, default
symmetry c1  #important for SAPT in psi4, default
}

set PROPERTIES_ORIGIN ["COM"]
properties('MP2/aug-cc-pvtz', properties = ['dipole'])
--------------------------------------------------------------------------

    Molecular point group: c1
  Charge       = 0
  Multiplicity = 1
  Basis Set: AUG-CC-PVTZ
    Blend: AUG-CC-PVTZ
  Basis Set: (AUG-CC-PVTZ AUX)
    Blend: AUG-CC-PVTZ-JKFIT

    Orbital Energies [Eh]
    ---------------------

    Doubly Occupied:

       1A    -20.601370     2A    -11.307551     3A    -11.295986
       4A    -11.240742     5A    -11.226660     6A    -11.219427
       7A     -1.450103     8A     -1.099346     9A     -1.035542
      10A     -0.903780    11A     -0.839073    12A     -0.721520
      13A     -0.710843    14A     -0.661030    15A     -0.639992
      16A     -0.609420    17A     -0.569133    18A     -0.534489
      19A     -0.518613    20A     -0.464669    21A     -0.418365
      22A     -0.297021

  @DF-RHF Final Energy:  -267.72886216767330

   => Energetics <=

    Nuclear Repulsion Energy =            225.1864661676608534
    One-Electron Energy =                -809.1013044620667642
    Two-Electron Energy =                 316.1859761267325553
    Total Energy =                       -267.7288621676732987
  Basis Set: (AUG-CC-PVTZ AUX)
    Blend: AUG-CC-PVTZ-RI
    Molecular point group: c1

    Geometry (in Angstrom), charge = 0, multiplicity = 1:

       Center              X                  Y                   Z               Mass
    ------------   -----------------  -----------------  -----------------  -----------------
         O            0.198247833783    -1.305840645911    -0.277474030750    15.994914619570
         C           -1.033514166217    -0.801744645911     0.288544969250    12.000000000000
         C           -1.256483166217     0.629353354089    -0.098766030750    12.000000000000
         C           -0.177412166217     1.437147354089    -0.057453030750    12.000000000000
         C            1.126726833783     0.841497354089     0.186783969250    12.000000000000
         C            1.164770333783    -0.493623045911    -0.027142930750    12.000000000000
         H           -0.961091166217    -0.908890645911     1.383704969250     1.007825032230
         H           -1.810483166217    -1.471462645911    -0.082925030750     1.007825032230
         H           -2.248060166217     0.980120354089    -0.368348030750     1.007825032230
         H           -0.246006166217     2.495123354089    -0.297495030750     1.007825032230
         H            2.008053833783     1.445528354089     0.369022969250     1.007825032230
         H            2.205807833783    -1.017093645911    -0.076646030750     1.007825032230

  Basis Set: AUG-CC-PVTZ
    Blend: AUG-CC-PVTZ
  Basis Set: (AUG-CC-PVTZ AUX)
    Blend: AUG-CC-PVTZ-JKFIT
	 Reference Energy          =    -267.7288621676732987 [Eh]
	 Singles Energy            =      -0.0000000000000000 [Eh]
	 Same-Spin Energy          =      -0.2747001712009343 [Eh]
	 Opposite-Spin Energy      =      -0.8860324486878357 [Eh]
	 Correlation Energy        =      -1.1607326198887700 [Eh]
	 Total Energy              =    -268.8895947875620891 [Eh]

	 ================> DF-SCS-MP2 Energies <==================
	-----------------------------------------------------------
	 SCS Same-Spin Scale       =       0.3333333333333333 [-]
	 SCS Opposite-Spin Scale   =       1.2000000000000000 [-]
	 SCS Same-Spin Energy      =      -0.0915667237336448 [Eh]
	 SCS Opposite-Spin Energy  =      -1.0632389384254028 [Eh]
	 SCS Correlation Energy    =      -1.1548056621590477 [Eh]
	 SCS Total Energy          =    -268.8836678298323477 [Eh]
	-----------------------------------------------------------

  Dipole Moment: [D]
     X:    -0.5281      Y:     0.4003      Z:     0.3830     Total:     0.7654

*** Psi4 exiting successfully. Buy a developer a beer!
