                               Psi4 1.3.2 release

  ==> Input File <==

--------------------------------------------------------------------------
#psi4
#
memory 32 gb

molecule  {
0 1
  O        0.1973020    -1.3235490    -0.2892290
  C       -1.0344600    -0.8194530     0.2767900
  C       -1.2574290     0.6116450    -0.1105210
  C       -0.2156717     1.3254499    -0.0780917
  C        1.1257810     0.8237890     0.1750290
  C        1.2576400    -0.5068660    -0.0292480
  H       -0.9620370    -0.9265990     1.3719500
  H       -1.8114290    -1.4891710    -0.0946800
  H       -2.2490060     0.9624120    -0.3801030
  H       -0.2469520     2.4774150    -0.3092500
  H        2.0071080     1.4278200     0.3572680
  H        2.2048620    -1.0348020    -0.0884010
units angstrom
no_reorient  #important for SAPT in psi4, default
symmetry c1  #important for SAPT in psi4, default
}

set PROPERTIES_ORIGIN ["COM"]
properties('MP2/aug-cc-pvtz', properties = ['dipole'])
--------------------------------------------------------------------------

    Molecular point group: c1
  Charge       = 0
  Multiplicity = 1
  Basis Set: AUG-CC-PVTZ
    Blend: AUG-CC-PVTZ
  Basis Set: (AUG-CC-PVTZ AUX)
    Blend: AUG-CC-PVTZ-JKFIT

    Orbital Energies [Eh]
    ---------------------

    Doubly Occupied:

       1A    -20.587202     2A    -11.300288     3A    -11.289219
       4A    -11.236095     5A    -11.225573     6A    -11.217757
       7A     -1.408181     8A     -1.111182     9A     -1.037790
      10A     -0.903074    11A     -0.835663    12A     -0.716214
      13A     -0.699304    14A     -0.654876    15A     -0.634193
      16A     -0.604098    17A     -0.561970    18A     -0.537541
      19A     -0.511071    20A     -0.457106    21A     -0.428373
      22A     -0.311694

  @DF-RHF Final Energy:  -267.72622159898856

   => Energetics <=

    Nuclear Repulsion Energy =            225.1243399934142531
    One-Electron Energy =                -809.1641949724823917
    Two-Electron Energy =                 316.3136333800796365
    Total Energy =                       -267.7262215989885590
  Basis Set: (AUG-CC-PVTZ AUX)
    Blend: AUG-CC-PVTZ-RI
    Molecular point group: c1

    Geometry (in Angstrom), charge = 0, multiplicity = 1:

       Center              X                  Y                   Z               Mass
    ------------   -----------------  -----------------  -----------------  -----------------
         O            0.189983497014    -1.292746301914    -0.277586100363    15.994914619570
         C           -1.041778502986    -0.788650301914     0.288432899637    12.000000000000
         C           -1.264747502986     0.642447698086    -0.098878100363    12.000000000000
         C           -0.222990202986     1.356252598086    -0.066448800363    12.000000000000
         C            1.118462497014     0.854591698086     0.186671899637    12.000000000000
         C            1.250321497014    -0.476063301914    -0.017605100363    12.000000000000
         H           -0.969355502986    -0.895796301914     1.383592899637     1.007825032230
         H           -1.818747502986    -1.458368301914    -0.083037100363     1.007825032230
         H           -2.256324502986     0.993214698086    -0.368460100363     1.007825032230
         H           -0.254270502986     2.508217698086    -0.297607100363     1.007825032230
         H            1.999789497014     1.458622698086     0.368910899637     1.007825032230
         H            2.197543497014    -1.003999301914    -0.076758100363     1.007825032230

  Basis Set: AUG-CC-PVTZ
    Blend: AUG-CC-PVTZ
  Basis Set: (AUG-CC-PVTZ AUX)
    Blend: AUG-CC-PVTZ-JKFIT
	 Reference Energy          =    -267.7262215989885590 [Eh]
	 Singles Energy            =      -0.0000000000000000 [Eh]
	 Same-Spin Energy          =      -0.2736506943575732 [Eh]
	 Opposite-Spin Energy      =      -0.8852991536618275 [Eh]
	 Correlation Energy        =      -1.1589498480194007 [Eh]
	 Total Energy              =    -268.8851714470079628 [Eh]

	 ================> DF-SCS-MP2 Energies <==================
	-----------------------------------------------------------
	 SCS Same-Spin Scale       =       0.3333333333333333 [-]
	 SCS Opposite-Spin Scale   =       1.2000000000000000 [-]
	 SCS Same-Spin Energy      =      -0.0912168981191911 [Eh]
	 SCS Opposite-Spin Energy  =      -1.0623589843941930 [Eh]
	 SCS Correlation Energy    =      -1.1535758825133839 [Eh]
	 SCS Total Energy          =    -268.8797974815019529 [Eh]
	-----------------------------------------------------------

  Dipole Moment: [D]
     X:    -0.3236      Y:     0.5781      Z:     0.4524     Total:     0.8022

*** Psi4 exiting successfully. Buy a developer a beer!
