                               Psi4 1.3.2 release

  ==> Input File <==

--------------------------------------------------------------------------
#psi4
#
memory 32 gb

molecule  {
0 1
  O        0.1652289    -1.4551324    -0.2215936
  C       -1.0344600    -0.8194530     0.2767900
  C       -1.2574290     0.6116450    -0.1105210
  C       -0.1783580     1.4194390    -0.0692080
  C        1.1257810     0.8237890     0.1750290
  C        1.2576400    -0.5068660    -0.0292480
  H       -0.9620370    -0.9265990     1.3719500
  H       -1.8114290    -1.4891710    -0.0946800
  H       -2.2490060     0.9624120    -0.3801030
  H       -0.2469520     2.4774150    -0.3092500
  H        2.0071080     1.4278200     0.3572680
  H        2.2048620    -1.0348020    -0.0884010
units angstrom
no_reorient  #important for SAPT in psi4, default
symmetry c1  #important for SAPT in psi4, default
}

set PROPERTIES_ORIGIN ["COM"]
properties('MP2/aug-cc-pvtz', properties = ['dipole'])
--------------------------------------------------------------------------

    Molecular point group: c1
  Charge       = 0
  Multiplicity = 1
  Basis Set: AUG-CC-PVTZ
    Blend: AUG-CC-PVTZ
  Basis Set: (AUG-CC-PVTZ AUX)
    Blend: AUG-CC-PVTZ-JKFIT

    Orbital Energies [Eh]
    ---------------------

    Doubly Occupied:

       1A    -20.587212     2A    -11.307051     3A    -11.284943
       4A    -11.245038     5A    -11.238072     6A    -11.236167
       7A     -1.375602     8A     -1.103014     9A     -1.028623
      10A     -0.896933    11A     -0.839769    12A     -0.709915
      13A     -0.698570    14A     -0.643053    15A     -0.631322
      16A     -0.599149    17A     -0.572249    18A     -0.522646
      19A     -0.497169    20A     -0.474363    21A     -0.428723
      22A     -0.308723

  @DF-RHF Final Energy:  -267.72310857488253

   => Energetics <=

    Nuclear Repulsion Energy =            220.9667533331135871
    One-Electron Energy =                -800.9231100604273479
    Two-Electron Energy =                 312.2332481524312016
    Total Energy =                       -267.7231085748825308
  Basis Set: (AUG-CC-PVTZ AUX)
    Blend: AUG-CC-PVTZ-RI
    Molecular point group: c1

    Geometry (in Angstrom), charge = 0, multiplicity = 1:

       Center              X                  Y                   Z               Mass
    ------------   -----------------  -----------------  -----------------  -----------------
         O            0.158705626330    -1.412423633584    -0.224436315127    15.994914619570
         C           -1.040983273670    -0.776744233584     0.273947284873    12.000000000000
         C           -1.263952273670     0.654353766416    -0.113363715127    12.000000000000
         C           -0.184881273670     1.462147766416    -0.072050715127    12.000000000000
         C            1.119257726330     0.866497766416     0.172186284873    12.000000000000
         C            1.251116726330    -0.464157233584    -0.032090715127    12.000000000000
         H           -0.968560273670    -0.883890233584     1.369107284873     1.007825032230
         H           -1.817952273670    -1.446462233584    -0.097522715127     1.007825032230
         H           -2.255529273670     1.005120766416    -0.382945715127     1.007825032230
         H           -0.253475273670     2.520123766416    -0.312092715127     1.007825032230
         H            2.000584726330     1.470528766416     0.354425284873     1.007825032230
         H            2.198338726330    -0.992093233584    -0.091243715127     1.007825032230

  Basis Set: AUG-CC-PVTZ
    Blend: AUG-CC-PVTZ
  Basis Set: (AUG-CC-PVTZ AUX)
    Blend: AUG-CC-PVTZ-JKFIT
	 Reference Energy          =    -267.7231085748825308 [Eh]
	 Singles Energy            =      -0.0000000000000000 [Eh]
	 Same-Spin Energy          =      -0.2745897385682145 [Eh]
	 Opposite-Spin Energy      =      -0.8903213534051048 [Eh]
	 Correlation Energy        =      -1.1649110919733192 [Eh]
	 Total Energy              =    -268.8880196668558256 [Eh]

	 ================> DF-SCS-MP2 Energies <==================
	-----------------------------------------------------------
	 SCS Same-Spin Scale       =       0.3333333333333333 [-]
	 SCS Opposite-Spin Scale   =       1.2000000000000000 [-]
	 SCS Same-Spin Energy      =      -0.0915299128560715 [Eh]
	 SCS Opposite-Spin Energy  =      -1.0683856240861256 [Eh]
	 SCS Correlation Energy    =      -1.1599155369421972 [Eh]
	 SCS Total Energy          =    -268.8830241118247386 [Eh]
	-----------------------------------------------------------

  Dipole Moment: [D]
     X:    -0.1324      Y:     1.1077      Z:     0.3564     Total:     1.1711

*** Psi4 exiting successfully. Buy a developer a beer!
