                               Psi4 1.4a3.dev225

  ==> Input File <==

--------------------------------------------------------------------------
#psi4
#
memory 32 gb

molecule  {
0 1
  O        0.1973020    -1.3235490    -0.2892290
  C       -1.0344600    -0.8194530     0.2767900
  C       -1.2574290     0.6116450    -0.1105210
  C       -0.1783580     1.4194390    -0.0692080
  C        1.1257810     0.8237890     0.1750290
  C        1.2576400    -0.5068660    -0.0292480
  H       -0.9620370    -0.9265990     1.3719500
  H       -1.8114290    -1.4891710    -0.0946800
  H       -2.2490060     0.9624120    -0.3801030
  H       -0.2469520     2.4774150    -0.3092500
  H        2.0071080     1.4278200     0.3572680
  H        2.2223059    -1.0445244    -0.0894904
units angstrom
no_reorient  #important for SAPT in psi4, default
symmetry c1  #important for SAPT in psi4, default
}

set PROPERTIES_ORIGIN ["COM"]
properties('MP2/aug-cc-pvtz', properties = ['dipole'])
--------------------------------------------------------------------------

    Molecular point group: c1
  Charge       = 0
  Multiplicity = 1
  Basis Set: AUG-CC-PVTZ
    Blend: AUG-CC-PVTZ
  Basis Set: (AUG-CC-PVTZ AUX)
    Blend: AUG-CC-PVTZ-JKFIT

    Orbital Energies [Eh]
    ---------------------

    Doubly Occupied:

       1A    -20.587329     2A    -11.303120     3A    -11.291275
       4A    -11.241819     5A    -11.231393     6A    -11.226271
       7A     -1.407490     8A     -1.096471     9A     -1.034053
      10A     -0.898548    11A     -0.839180    12A     -0.716364
      13A     -0.703302    14A     -0.649435    15A     -0.632834
      16A     -0.604843    17A     -0.571571    18A     -0.531993
      19A     -0.508195    20A     -0.470928    21A     -0.418915
      22A     -0.302311

  @DF-RHF Final Energy:  -267.73748295422934

   => Energetics <=

    Nuclear Repulsion Energy =            223.3978722698684294
    One-Electron Energy =                -805.7354327152846736
    Two-Electron Energy =                 314.6000774911868803
    Total Energy =                       -267.7374829542293355
  Basis Set: (AUG-CC-PVTZ AUX)
    Blend: AUG-CC-PVTZ-RI
    Molecular point group: c1

    Geometry (in Angstrom), charge = 0, multiplicity = 1:

       Center              X                  Y                   Z               Mass
    ------------   -----------------  -----------------  -----------------  -----------------
         O            0.184311456280    -1.306374352964    -0.278872108130    15.994914619570
         C           -1.047450543720    -0.802278352964     0.287146891870    12.000000000000
         C           -1.270419543720     0.628819647036    -0.100164108130    12.000000000000
         C           -0.191348543720     1.436613647036    -0.058851108130    12.000000000000
         C            1.112790456280     0.840963647036     0.185385891870    12.000000000000
         C            1.244649456280    -0.489691352964    -0.018891108130    12.000000000000
         H           -0.975027543720    -0.909424352964     1.382306891870     1.007825032230
         H           -1.824419543720    -1.471996352964    -0.084323108130     1.007825032230
         H           -2.261996543720     0.979586647036    -0.369746108130     1.007825032230
         H           -0.259942543720     2.494589647036    -0.298893108130     1.007825032230
         H            1.994117456280     1.444994647036     0.367624891870     1.007825032230
         H            2.209315356280    -1.027349752964    -0.079133508130     1.007825032230

  Basis Set: AUG-CC-PVTZ
    Blend: AUG-CC-PVTZ
  Basis Set: (AUG-CC-PVTZ AUX)
    Blend: AUG-CC-PVTZ-JKFIT
	 Reference Energy          =    -267.7374829542293355 [Eh]
	 Singles Energy            =      -0.0000000000000000 [Eh]
	 Same-Spin Energy          =      -0.2741677911630634 [Eh]
	 Opposite-Spin Energy      =      -0.8869023430372975 [Eh]
	 Correlation Energy        =      -1.1610701342003609 [Eh]
	 Total Energy              =    -268.8985530884297077 [Eh]

	 ================> DF-SCS-MP2 Energies <==================
	-----------------------------------------------------------
	 SCS Same-Spin Scale       =       0.3333333333333333 [-]
	 SCS Opposite-Spin Scale   =       1.2000000000000000 [-]
	 SCS Same-Spin Energy      =      -0.0913892637210211 [Eh]
	 SCS Opposite-Spin Energy  =      -1.0642828116447569 [Eh]
	 SCS Correlation Energy    =      -1.1556720753657781 [Eh]
	 SCS Total Energy          =    -268.8931550295951070 [Eh]
	-----------------------------------------------------------

  Dipole Moment: [D]
     X:    -0.3340      Y:     0.6228      Z:     0.4190     Total:     0.8215

*** Psi4 exiting successfully. Buy a developer a beer!
