                               Psi4 1.4a3.dev225

  ==> Input File <==

--------------------------------------------------------------------------
#psi4
#
memory 32 gb

molecule  {
0 1
  O        0.1973020    -1.3235490    -0.2892290
  C       -1.0344600    -0.8194530     0.2767900
  C       -1.2574290     0.6116450    -0.1105210
  C       -0.1783580     1.4194390    -0.0692080
  C        1.1257810     0.8237890     0.1750290
  C        1.2576400    -0.5068660    -0.0292480
  H       -0.9620370    -0.9265990     1.3719500
  H       -1.8114290    -1.4891710    -0.0946800
  H       -2.2946676     0.9785646    -0.3925171
  H       -0.2469520     2.4774150    -0.3092500
  H        2.0071080     1.4278200     0.3572680
  H        2.2048620    -1.0348020    -0.0884010
units angstrom
no_reorient  #important for SAPT in psi4, default
symmetry c1  #important for SAPT in psi4, default
}

set PROPERTIES_ORIGIN ["COM"]
properties('MP2/aug-cc-pvtz', properties = ['dipole'])
--------------------------------------------------------------------------

    Molecular point group: c1
  Charge       = 0
  Multiplicity = 1
  Basis Set: AUG-CC-PVTZ
    Blend: AUG-CC-PVTZ
  Basis Set: (AUG-CC-PVTZ AUX)
    Blend: AUG-CC-PVTZ-JKFIT

    Orbital Energies [Eh]
    ---------------------

    Doubly Occupied:

       1A    -20.587440     2A    -11.301086     3A    -11.291699
       4A    -11.242125     5A    -11.236992     6A    -11.226545
       7A     -1.407690     8A     -1.096072     9A     -1.034180
      10A     -0.898534    11A     -0.838251    12A     -0.718132
      13A     -0.699452    14A     -0.649888    15A     -0.631229
      16A     -0.602786    17A     -0.571740    18A     -0.531678
      19A     -0.507860    20A     -0.470113    21A     -0.419127
      22A     -0.302503

  @DF-RHF Final Energy:  -267.73570146060399

   => Energetics <=

    Nuclear Repulsion Energy =            223.2640412077564918
    One-Electron Energy =                -805.4692381545221451
    Two-Electron Energy =                 314.4694954861616907
    Total Energy =                       -267.7357014606039911
  Basis Set: (AUG-CC-PVTZ AUX)
    Blend: AUG-CC-PVTZ-RI
    Molecular point group: c1

    Geometry (in Angstrom), charge = 0, multiplicity = 1:

       Center              X                  Y                   Z               Mass
    ------------   -----------------  -----------------  -----------------  -----------------
         O            0.185086661752    -1.306692208643    -0.278732992373    15.994914619570
         C           -1.046675338248    -0.802596208643     0.287286007627    12.000000000000
         C           -1.269644338248     0.628501791357    -0.100024992373    12.000000000000
         C           -0.190573338248     1.436295791357    -0.058711992373    12.000000000000
         C            1.113565661752     0.840645791357     0.185525007627    12.000000000000
         C            1.245424661752    -0.490009208643    -0.018751992373    12.000000000000
         H           -0.974252338248    -0.909742208643     1.382446007627     1.007825032230
         H           -1.823644338248    -1.472314208643    -0.084183992373     1.007825032230
         H           -2.306882938248     0.995421391357    -0.382021092373     1.007825032230
         H           -0.259167338248     2.494271791357    -0.298753992373     1.007825032230
         H            1.994892661752     1.444676791357     0.367764007627     1.007825032230
         H            2.192646661752    -1.017945208643    -0.077904992373     1.007825032230

  Basis Set: AUG-CC-PVTZ
    Blend: AUG-CC-PVTZ
  Basis Set: (AUG-CC-PVTZ AUX)
    Blend: AUG-CC-PVTZ-JKFIT
	 Reference Energy          =    -267.7357014606039911 [Eh]
	 Singles Energy            =      -0.0000000000000000 [Eh]
	 Same-Spin Energy          =      -0.2742087799581460 [Eh]
	 Opposite-Spin Energy      =      -0.8871233050391649 [Eh]
	 Correlation Energy        =      -1.1613320849973108 [Eh]
	 Total Energy              =    -268.8970335456012890 [Eh]

	 ================> DF-SCS-MP2 Energies <==================
	-----------------------------------------------------------
	 SCS Same-Spin Scale       =       0.3333333333333333 [-]
	 SCS Opposite-Spin Scale   =       1.2000000000000000 [-]
	 SCS Same-Spin Energy      =      -0.0914029266527153 [Eh]
	 SCS Opposite-Spin Energy  =      -1.0645479660469979 [Eh]
	 SCS Correlation Energy    =      -1.1559508926997131 [Eh]
	 SCS Total Energy          =    -268.8916523533036980 [Eh]
	-----------------------------------------------------------

  Dipole Moment: [D]
     X:    -0.3108      Y:     0.6148      Z:     0.4222     Total:     0.8079

*** Psi4 exiting successfully. Buy a developer a beer!
