                               Psi4 1.3.2 release

  ==> Input File <==

--------------------------------------------------------------------------
#psi4
#
memory 32 gb

molecule  {
0 1
  O        0.1973020    -1.3235490    -0.2892290
  C       -1.1361666    -0.8363286     0.2588493
  C       -1.2574290     0.6116450    -0.1105210
  C       -0.1783580     1.4194390    -0.0692080
  C        1.1257810     0.8237890     0.1750290
  C        1.2576400    -0.5068660    -0.0292480
  H       -0.9620370    -0.9265990     1.3719500
  H       -1.8114290    -1.4891710    -0.0946800
  H       -2.2490060     0.9624120    -0.3801030
  H       -0.2469520     2.4774150    -0.3092500
  H        2.0071080     1.4278200     0.3572680
  H        2.2048620    -1.0348020    -0.0884010
units angstrom
no_reorient  #important for SAPT in psi4, default
symmetry c1  #important for SAPT in psi4, default
}

set PROPERTIES_ORIGIN ["COM"]
properties('MP2/aug-cc-pvtz', properties = ['dipole'])
--------------------------------------------------------------------------

    Molecular point group: c1
  Charge       = 0
  Multiplicity = 1
  Basis Set: AUG-CC-PVTZ
    Blend: AUG-CC-PVTZ
  Basis Set: (AUG-CC-PVTZ AUX)
    Blend: AUG-CC-PVTZ-JKFIT

    Orbital Energies [Eh]
    ---------------------

    Doubly Occupied:

       1A    -20.578901     2A    -11.299632     3A    -11.295028
       4A    -11.243896     5A    -11.232997     6A    -11.222195
       7A     -1.383896     8A     -1.093740     9A     -1.035291
      10A     -0.905386    11A     -0.835057    12A     -0.719936
      13A     -0.694751    14A     -0.642361    15A     -0.638537
      16A     -0.602656    17A     -0.571652    18A     -0.527185
      19A     -0.518293    20A     -0.466893    21A     -0.416353
      22A     -0.299008

  @DF-RHF Final Energy:  -267.72527801303795

   => Energetics <=

    Nuclear Repulsion Energy =            222.0539115729224875
    One-Electron Energy =                -803.1110940564782368
    Two-Electron Energy =                 313.3319044705177703
    Total Energy =                       -267.7252780130379506
  Basis Set: (AUG-CC-PVTZ AUX)
    Blend: AUG-CC-PVTZ-RI
    Molecular point group: c1

    Geometry (in Angstrom), charge = 0, multiplicity = 1:

       Center              X                  Y                   Z               Mass
    ------------   -----------------  -----------------  -----------------  -----------------
         O            0.199402039629    -1.304025445825    -0.276261362069    15.994914619570
         C           -1.134066560371    -0.816805045825     0.271816937931    12.000000000000
         C           -1.255328960371     0.631168554175    -0.097553362069    12.000000000000
         C           -0.176257960371     1.438962554175    -0.056240362069    12.000000000000
         C            1.127881039629     0.843312554175     0.187996637931    12.000000000000
         C            1.259740039629    -0.487342445825    -0.016280362069    12.000000000000
         H           -0.959936960371    -0.907075445825     1.384917637931     1.007825032230
         H           -1.809328960371    -1.469647445825    -0.081712362069     1.007825032230
         H           -2.246905960371     0.981935554175    -0.367135362069     1.007825032230
         H           -0.244851960371     2.496938554175    -0.296282362069     1.007825032230
         H            2.009208039629     1.447343554175     0.370235637931     1.007825032230
         H            2.206962039629    -1.015278445825    -0.075433362069     1.007825032230

  Basis Set: AUG-CC-PVTZ
    Blend: AUG-CC-PVTZ
  Basis Set: (AUG-CC-PVTZ AUX)
    Blend: AUG-CC-PVTZ-JKFIT
	 Reference Energy          =    -267.7252780130379506 [Eh]
	 Singles Energy            =      -0.0000000000000000 [Eh]
	 Same-Spin Energy          =      -0.2743314866124851 [Eh]
	 Opposite-Spin Energy      =      -0.8878624421750418 [Eh]
	 Correlation Energy        =      -1.1621939287875269 [Eh]
	 Total Energy              =    -268.8874719418254813 [Eh]

	 ================> DF-SCS-MP2 Energies <==================
	-----------------------------------------------------------
	 SCS Same-Spin Scale       =       0.3333333333333333 [-]
	 SCS Opposite-Spin Scale   =       1.2000000000000000 [-]
	 SCS Same-Spin Energy      =      -0.0914438288708284 [Eh]
	 SCS Opposite-Spin Energy  =      -1.0654349306100501 [Eh]
	 SCS Correlation Energy    =      -1.1568787594808785 [Eh]
	 SCS Total Energy          =    -268.8821567725188402 [Eh]
	-----------------------------------------------------------

  Dipole Moment: [D]
     X:    -0.5485      Y:     0.5648      Z:     0.4441     Total:     0.9039

*** Psi4 exiting successfully. Buy a developer a beer!
