                               Psi4 1.3.2 release

  ==> Input File <==

--------------------------------------------------------------------------
#psi4
#
memory 32 gb

molecule  {
-2 1
  O       -1.8208210    -1.1386100    -0.2599000
  O        1.8212030    -1.1384070    -0.2594770
  O       -1.8210520     1.1384690    -0.2594170
  O        1.8206700     1.1386730    -0.2598390
  C        0.0000000    -0.0000980     0.8472140
  C       -1.4094923    -0.0000998     0.1658877
  C        1.3305530     0.0000630     0.0222860
  H        0.0000550    -0.8982020     1.4790980
  H       -0.0000540     0.8978890     1.4792400
units angstrom
no_reorient  #important for SAPT in psi4, default
symmetry c1  #important for SAPT in psi4, default
}

set PROPERTIES_ORIGIN ["COM"]
properties('MP2/aug-cc-pvtz', properties = ['dipole'])
--------------------------------------------------------------------------

    Molecular point group: c1
  Charge       = -2
  Multiplicity = 1
  Basis Set: AUG-CC-PVTZ
    Blend: AUG-CC-PVTZ
  Basis Set: (AUG-CC-PVTZ AUX)
    Blend: AUG-CC-PVTZ-JKFIT

    Orbital Energies [Eh]
    ---------------------

    Doubly Occupied:

       1A    -20.166612     2A    -20.166577     3A    -20.165659
       4A    -20.165625     5A    -11.014135     6A    -11.013758
       7A    -10.906961     8A     -1.030878     9A     -1.021411
      10A     -0.929975    11A     -0.922099    12A     -0.658302
      13A     -0.417786    14A     -0.358438    15A     -0.293879
      16A     -0.292741    17A     -0.276485    18A     -0.259313
      19A     -0.209874    20A     -0.204617    21A     -0.200645
      22A     -0.079655    23A     -0.077518    24A     -0.075733
      25A     -0.064369    26A     -0.059100    27A     -0.058336

  @DF-RHF Final Energy:  -414.30592090437767

   => Energetics <=

    Nuclear Repulsion Energy =            270.7409945090690826
    One-Electron Energy =               -1127.9128728190023594
    Two-Electron Energy =                 442.8659574055556050
    Total Energy =                       -414.3059209043776718
  Basis Set: (AUG-CC-PVTZ AUX)
    Blend: AUG-CC-PVTZ-RI
    Molecular point group: c1

    Geometry (in Angstrom), charge = -2, multiplicity = 1:

       Center              X                  Y                   Z               Mass
    ------------   -----------------  -----------------  -----------------  -----------------
         O           -1.811533606239    -1.138610650178    -0.248068998328    15.994914619570
         O            1.830490393761    -1.138407650178    -0.247645998328    15.994914619570
         O           -1.811764606239     1.138468349822    -0.247585998328    15.994914619570
         O            1.829957393761     1.138672349822    -0.248007998328    15.994914619570
         C            0.009287393761    -0.000098650178     0.859045001672    12.000000000000
         C           -1.400204906239    -0.000100450178     0.177718701672    12.000000000000
         C            1.339840393761     0.000062349822     0.034117001672    12.000000000000
         H            0.009342393761    -0.898202650178     1.490929001672     1.007825032230
         H            0.009233393761     0.897888349822     1.491071001672     1.007825032230

  Basis Set: AUG-CC-PVTZ
    Blend: AUG-CC-PVTZ
  Basis Set: (AUG-CC-PVTZ AUX)
    Blend: AUG-CC-PVTZ-JKFIT
	 Reference Energy          =    -414.3059209043776718 [Eh]
	 Singles Energy            =      -0.0000000000000000 [Eh]
	 Same-Spin Energy          =      -0.4093055212132093 [Eh]
	 Opposite-Spin Energy      =      -1.1764583143316572 [Eh]
	 Correlation Energy        =      -1.5857638355448664 [Eh]
	 Total Energy              =    -415.8916847399225389 [Eh]

	 ================> DF-SCS-MP2 Energies <==================
	-----------------------------------------------------------
	 SCS Same-Spin Scale       =       0.3333333333333333 [-]
	 SCS Opposite-Spin Scale   =       1.2000000000000000 [-]
	 SCS Same-Spin Energy      =      -0.1364351737377364 [Eh]
	 SCS Opposite-Spin Energy  =      -1.4117499771979884 [Eh]
	 SCS Correlation Energy    =      -1.5481851509357250 [Eh]
	 SCS Total Energy          =    -415.8541060553134230 [Eh]
	-----------------------------------------------------------

  Dipole Moment: [D]
     X:     0.0079      Y:    -0.0000      Z:     2.8184     Total:     2.8184

*** Psi4 exiting successfully. Buy a developer a beer!
