                               Psi4 1.4a3.dev225

  ==> Input File <==

--------------------------------------------------------------------------
#psi4
#
memory 32 gb

molecule  {
-2 1
  O       -2.0377940    -0.8677190     0.0023270
  O        1.3654400    -1.2166180    -0.5909880
  O       -1.3654310     1.2166410    -0.5909090
  O        2.0377700     0.8677380     0.0022990
  C        0.0000120    -0.0000340     0.9453410
  C       -1.2093837     0.1209029     0.0782912
  C        1.2498880    -0.1249550     0.0492170
  H       -0.0910220    -0.8895480     1.5776170
  H        0.0910580     0.8894280     1.5776890
units angstrom
no_reorient  #important for SAPT in psi4, default
symmetry c1  #important for SAPT in psi4, default
}

set PROPERTIES_ORIGIN ["COM"]
properties('MP2/aug-cc-pvtz', properties = ['dipole'])
--------------------------------------------------------------------------

    Molecular point group: c1
  Charge       = -2
  Multiplicity = 1
  Basis Set: AUG-CC-PVTZ
    Blend: AUG-CC-PVTZ
  Basis Set: (AUG-CC-PVTZ AUX)
    Blend: AUG-CC-PVTZ-JKFIT

    Orbital Energies [Eh]
    ---------------------

    Doubly Occupied:

       1A    -20.163052     2A    -20.159176     3A    -20.157671
       4A    -20.153568     5A    -11.007114     6A    -11.004204
       7A    -10.905169     8A     -1.029843     9A     -1.009144
      10A     -0.926663    11A     -0.906275    12A     -0.678723
      13A     -0.413045    14A     -0.365414    15A     -0.296756
      16A     -0.292325    17A     -0.284842    18A     -0.250311
      19A     -0.213425    20A     -0.201155    21A     -0.178898
      22A     -0.087303    23A     -0.073387    24A     -0.067214
      25A     -0.057827    26A     -0.055767    27A     -0.049799

  @DF-RHF Final Energy:  -414.31402716201978

   => Energetics <=

    Nuclear Repulsion Energy =            276.7418825095929265
    One-Electron Energy =               -1140.1356819843188077
    Two-Electron Energy =                 449.0797723127061545
    Total Energy =                       -414.3140271620197836
  Basis Set: (AUG-CC-PVTZ AUX)
    Blend: AUG-CC-PVTZ-RI
    Molecular point group: c1

    Geometry (in Angstrom), charge = -2, multiplicity = 1:

       Center              X                  Y                   Z               Mass
    ------------   -----------------  -----------------  -----------------  -----------------
         O           -2.042558846197    -0.867243660955     0.029545529927    15.994914619570
         O            1.360675153803    -1.216142660955    -0.563769470073    15.994914619570
         O           -1.370195846197     1.217116339045    -0.563690470073    15.994914619570
         O            2.033005153803     0.868213339045     0.029517529927    15.994914619570
         C           -0.004752846197     0.000441339045     0.972559529927    12.000000000000
         C           -1.214148546197     0.121378239045     0.105509729927    12.000000000000
         C            1.245123153803    -0.124479660955     0.076435529927    12.000000000000
         H           -0.095786846197    -0.889072660955     1.604835529927     1.007825032230
         H            0.086293153803     0.889903339045     1.604907529927     1.007825032230

  Basis Set: AUG-CC-PVTZ
    Blend: AUG-CC-PVTZ
  Basis Set: (AUG-CC-PVTZ AUX)
    Blend: AUG-CC-PVTZ-JKFIT
	 Reference Energy          =    -414.3140271620197836 [Eh]
	 Singles Energy            =      -0.0000000000000000 [Eh]
	 Same-Spin Energy          =      -0.4093029906432216 [Eh]
	 Opposite-Spin Energy      =      -1.1753008778976743 [Eh]
	 Correlation Energy        =      -1.5846038685408959 [Eh]
	 Total Energy              =    -415.8986310305606935 [Eh]

	 ================> DF-SCS-MP2 Energies <==================
	-----------------------------------------------------------
	 SCS Same-Spin Scale       =       0.3333333333333333 [-]
	 SCS Opposite-Spin Scale   =       1.2000000000000000 [-]
	 SCS Same-Spin Energy      =      -0.1364343302144072 [Eh]
	 SCS Opposite-Spin Energy  =      -1.4103610534772091 [Eh]
	 SCS Correlation Energy    =      -1.5467953836916162 [Eh]
	 SCS Total Energy          =    -415.8608225457114145 [Eh]
	-----------------------------------------------------------

  Dipole Moment: [D]
     X:     0.3485      Y:    -0.0296      Z:     3.2533     Total:     3.2721

*** Psi4 exiting successfully. Buy a developer a beer!
