                               Psi4 1.3.2 release

  ==> Input File <==

--------------------------------------------------------------------------
#psi4
#
memory 32 gb

molecule  {
-2 1
  O       -1.8208210    -1.1386100    -0.2599000
  O        1.8212030    -1.1384070    -0.2594770
  O       -1.8210520     1.1384690    -0.2594170
  O        1.8206700     1.1386730    -0.2598390
  C        0.0000000    -0.0000980     0.8472140
  C       -1.3229616     0.0233698     0.0104966
  C        1.3305530     0.0000630     0.0222860
  H        0.0000550    -0.8982020     1.4790980
  H       -0.0000540     0.8978890     1.4792400
units angstrom
no_reorient  #important for SAPT in psi4, default
symmetry c1  #important for SAPT in psi4, default
}

set PROPERTIES_ORIGIN ["COM"]
properties('MP2/aug-cc-pvtz', properties = ['dipole'])
--------------------------------------------------------------------------

    Molecular point group: c1
  Charge       = -2
  Multiplicity = 1
  Basis Set: AUG-CC-PVTZ
    Blend: AUG-CC-PVTZ
  Basis Set: (AUG-CC-PVTZ AUX)
    Blend: AUG-CC-PVTZ-JKFIT

    Orbital Energies [Eh]
    ---------------------

    Doubly Occupied:

       1A    -20.169561     2A    -20.164391     3A    -20.164129
       4A    -20.158919     5A    -11.010498     6A    -11.010279
       7A    -10.904737     8A     -1.033302     9A     -1.025497
      10A     -0.929051    11A     -0.925611    12A     -0.657206
      13A     -0.410665    14A     -0.361896    15A     -0.293164
      16A     -0.291501    17A     -0.283663    18A     -0.259883
      19A     -0.211667    20A     -0.204659    21A     -0.204149
      22A     -0.083019    23A     -0.079694    24A     -0.074718
      25A     -0.065203    26A     -0.059897    27A     -0.051702

  @DF-RHF Final Energy:  -414.32155745526717

   => Energetics <=

    Nuclear Repulsion Energy =            271.7070455138428429
    One-Electron Energy =               -1129.8798864255643366
    Two-Electron Energy =                 443.8512834564543823
    Total Energy =                       -414.3215574552671683
  Basis Set: (AUG-CC-PVTZ AUX)
    Blend: AUG-CC-PVTZ-RI
    Molecular point group: c1

    Geometry (in Angstrom), charge = -2, multiplicity = 1:

       Center              X                  Y                   Z               Mass
    ------------   -----------------  -----------------  -----------------  -----------------
         O           -1.821714156843    -1.141371906593    -0.229786851565    15.994914619570
         O            1.820309843157    -1.141168906593    -0.229363851565    15.994914619570
         O           -1.821945156843     1.135707093407    -0.229303851565    15.994914619570
         O            1.819776843157     1.135911093407    -0.229725851565    15.994914619570
         C           -0.000893156843    -0.002859906593     0.877327148435    12.000000000000
         C           -1.323854756843     0.020607893407     0.040609748435    12.000000000000
         C            1.329659843157    -0.002698906593     0.052399148435    12.000000000000
         H           -0.000838156843    -0.900963906593     1.509211148435     1.007825032230
         H           -0.000947156843     0.895127093407     1.509353148435     1.007825032230

  Basis Set: AUG-CC-PVTZ
    Blend: AUG-CC-PVTZ
  Basis Set: (AUG-CC-PVTZ AUX)
    Blend: AUG-CC-PVTZ-JKFIT
	 Reference Energy          =    -414.3215574552671683 [Eh]
	 Singles Energy            =      -0.0000000000000000 [Eh]
	 Same-Spin Energy          =      -0.4079378087483668 [Eh]
	 Opposite-Spin Energy      =      -1.1731486527233512 [Eh]
	 Correlation Energy        =      -1.5810864614717182 [Eh]
	 Total Energy              =    -415.9026439167388958 [Eh]

	 ================> DF-SCS-MP2 Energies <==================
	-----------------------------------------------------------
	 SCS Same-Spin Scale       =       0.3333333333333333 [-]
	 SCS Opposite-Spin Scale   =       1.2000000000000000 [-]
	 SCS Same-Spin Energy      =      -0.1359792695827889 [Eh]
	 SCS Opposite-Spin Energy  =      -1.4077783832680215 [Eh]
	 SCS Correlation Energy    =      -1.5437576528508106 [Eh]
	 SCS Total Energy          =    -415.8653151081179544 [Eh]
	-----------------------------------------------------------

  Dipole Moment: [D]
     X:     0.0104      Y:     0.2714      Z:     2.7435     Total:     2.7569

*** Psi4 exiting successfully. Buy a developer a beer!
