                               Psi4 1.3.2 release

  ==> Input File <==

--------------------------------------------------------------------------
#psi4
#
memory 32 gb

molecule  {
-2 1
  O       -1.8208210    -1.1386100    -0.2599000
  O        1.8212030    -1.1384070    -0.2594770
  O       -1.8210520     1.1384690    -0.2594170
  O        1.8206700     1.1386730    -0.2598390
  C        0.0000000    -0.0000980     0.8472140
  C       -1.3305530    -0.0000800     0.0222880
  C        1.3305530     0.0000630     0.0222860
  H        0.0000537    -0.8756025     1.5100565
  H       -0.0000540     0.8978890     1.4792400
units angstrom
no_reorient  #important for SAPT in psi4, default
symmetry c1  #important for SAPT in psi4, default
}

set PROPERTIES_ORIGIN ["COM"]
properties('MP2/aug-cc-pvtz', properties = ['dipole'])
--------------------------------------------------------------------------

    Molecular point group: c1
  Charge       = -2
  Multiplicity = 1
  Basis Set: AUG-CC-PVTZ
    Blend: AUG-CC-PVTZ
  Basis Set: (AUG-CC-PVTZ AUX)
    Blend: AUG-CC-PVTZ-JKFIT

    Orbital Energies [Eh]
    ---------------------

    Doubly Occupied:

       1A    -20.164465     2A    -20.164463     3A    -20.164303
       4A    -20.164301     5A    -11.010759     6A    -11.010755
       7A    -10.904873     8A     -1.031890     9A     -1.024449
      10A     -0.929824    11A     -0.927595    12A     -0.657173
      13A     -0.411075    14A     -0.362394    15A     -0.291808
      16A     -0.291268    17A     -0.284441    18A     -0.260204
      19A     -0.209650    20A     -0.204631    21A     -0.204232
      22A     -0.082776    23A     -0.080130    24A     -0.075413
      25A     -0.065281    26A     -0.060311    27A     -0.052635

  @DF-RHF Final Energy:  -414.32219224450239

   => Energetics <=

    Nuclear Repulsion Energy =            271.6128481086470288
    One-Electron Energy =               -1129.6878816562700649
    Two-Electron Energy =                 443.7528413031205901
    Total Energy =                       -414.3221922445023893
  Basis Set: (AUG-CC-PVTZ AUX)
    Blend: AUG-CC-PVTZ-RI
    Molecular point group: c1

    Geometry (in Angstrom), charge = -2, multiplicity = 1:

       Center              X                  Y                   Z               Mass
    ------------   -----------------  -----------------  -----------------  -----------------
         O           -1.820820997036    -1.138836287437    -0.231480042690    15.994914619570
         O            1.821203002964    -1.138633287437    -0.231057042690    15.994914619570
         O           -1.821051997036     1.138242712563    -0.230997042690    15.994914619570
         O            1.820670002964     1.138446712563    -0.231419042690    15.994914619570
         C            0.000000002964    -0.000324287437     0.875633957310    12.000000000000
         C           -1.330552997036    -0.000306287437     0.050707957310    12.000000000000
         C            1.330553002964    -0.000163287437     0.050705957310    12.000000000000
         H            0.000053702964    -0.875828787437     1.538476457310     1.007825032230
         H           -0.000053997036     0.897662712563     1.507659957310     1.007825032230

  Basis Set: AUG-CC-PVTZ
    Blend: AUG-CC-PVTZ
  Basis Set: (AUG-CC-PVTZ AUX)
    Blend: AUG-CC-PVTZ-JKFIT
	 Reference Energy          =    -414.3221922445023893 [Eh]
	 Singles Energy            =      -0.0000000000000000 [Eh]
	 Same-Spin Energy          =      -0.4079167214591564 [Eh]
	 Opposite-Spin Energy      =      -1.1731691970144649 [Eh]
	 Correlation Energy        =      -1.5810859184736212 [Eh]
	 Total Energy              =    -415.9032781629759938 [Eh]

	 ================> DF-SCS-MP2 Energies <==================
	-----------------------------------------------------------
	 SCS Same-Spin Scale       =       0.3333333333333333 [-]
	 SCS Opposite-Spin Scale   =       1.2000000000000000 [-]
	 SCS Same-Spin Energy      =      -0.1359722404863855 [Eh]
	 SCS Opposite-Spin Energy  =      -1.4078030364173577 [Eh]
	 SCS Correlation Energy    =      -1.5437752769037432 [Eh]
	 SCS Total Energy          =    -415.8659675214061053 [Eh]
	-----------------------------------------------------------

  Dipole Moment: [D]
     X:     0.0000      Y:     0.0076      Z:     2.7542     Total:     2.7542

*** Psi4 exiting successfully. Buy a developer a beer!
