                               Psi4 1.4a3.dev225

  ==> Input File <==

--------------------------------------------------------------------------
#psi4
#
memory 32 gb

molecule  {
-2 1
  O       -2.0377940    -0.8677190     0.0023270
  O        1.3654400    -1.2166180    -0.5909880
  O       -1.3654310     1.2166410    -0.5909090
  O        2.0377700     0.8677380     0.0022990
  C        0.0000120    -0.0000340     0.9453410
  C       -1.2498860     0.1249530     0.0492540
  C        1.2498880    -0.1249550     0.0492170
  H       -0.0868657    -0.8489355     1.5487492
  H        0.0910580     0.8894280     1.5776890
units angstrom
no_reorient  #important for SAPT in psi4, default
symmetry c1  #important for SAPT in psi4, default
}

set PROPERTIES_ORIGIN ["COM"]
properties('MP2/aug-cc-pvtz', properties = ['dipole'])
--------------------------------------------------------------------------

    Molecular point group: c1
  Charge       = -2
  Multiplicity = 1
  Basis Set: AUG-CC-PVTZ
    Blend: AUG-CC-PVTZ
  Basis Set: (AUG-CC-PVTZ AUX)
    Blend: AUG-CC-PVTZ-JKFIT

    Orbital Energies [Eh]
    ---------------------

    Doubly Occupied:

       1A    -20.159926     2A    -20.159379     3A    -20.155883
       4A    -20.155265     5A    -11.002231     6A    -11.002197
       7A    -10.894405     8A     -1.029645     9A     -1.018964
      10A     -0.924197    11A     -0.921952    12A     -0.668240
      13A     -0.404466    14A     -0.365100    15A     -0.296237
      16A     -0.288983    17A     -0.286532    18A     -0.253049
      19A     -0.219753    20A     -0.204242    21A     -0.185723
      22A     -0.083574    23A     -0.071999    24A     -0.069137
      25A     -0.058903    26A     -0.054816    27A     -0.049066

  @DF-RHF Final Energy:  -414.31988433416984

   => Energetics <=

    Nuclear Repulsion Energy =            276.9421385625170728
    One-Electron Energy =               -1140.5563171345436331
    Two-Electron Energy =                 449.2942942378566613
    Total Energy =                       -414.3198843341698421
  Basis Set: (AUG-CC-PVTZ AUX)
    Blend: AUG-CC-PVTZ-RI
    Molecular point group: c1

    Geometry (in Angstrom), charge = -2, multiplicity = 1:

       Center              X                  Y                   Z               Mass
    ------------   -----------------  -----------------  -----------------  -----------------
         O           -2.037834719335    -0.868121461075     0.033247073624    15.994914619570
         O            1.365399280665    -1.217020461075    -0.560067926376    15.994914619570
         O           -1.365471719335     1.216238538925    -0.559988926376    15.994914619570
         O            2.037729280665     0.867335538925     0.033219073624    15.994914619570
         C           -0.000028719335    -0.000436461075     0.976261073624    12.000000000000
         C           -1.249926719335     0.124550538925     0.080174073624    12.000000000000
         C            1.249847280665    -0.125357461075     0.080137073624    12.000000000000
         H           -0.086906419335    -0.849337961075     1.579669273624     1.007825032230
         H            0.091017280665     0.889025538925     1.608609073624     1.007825032230

  Basis Set: AUG-CC-PVTZ
    Blend: AUG-CC-PVTZ
  Basis Set: (AUG-CC-PVTZ AUX)
    Blend: AUG-CC-PVTZ-JKFIT
	 Reference Energy          =    -414.3198843341698421 [Eh]
	 Singles Energy            =      -0.0000000000000000 [Eh]
	 Same-Spin Energy          =      -0.4082620349717184 [Eh]
	 Opposite-Spin Energy      =      -1.1727668156006761 [Eh]
	 Correlation Energy        =      -1.5810288505723944 [Eh]
	 Total Energy              =    -415.9009131847422509 [Eh]

	 ================> DF-SCS-MP2 Energies <==================
	-----------------------------------------------------------
	 SCS Same-Spin Scale       =       0.3333333333333333 [-]
	 SCS Opposite-Spin Scale   =       1.2000000000000000 [-]
	 SCS Same-Spin Energy      =      -0.1360873449905728 [Eh]
	 SCS Opposite-Spin Energy  =      -1.4073201787208112 [Eh]
	 SCS Correlation Energy    =      -1.5434075237113840 [Eh]
	 SCS Total Energy          =    -415.8632918578812223 [Eh]
	-----------------------------------------------------------

  Dipole Moment: [D]
     X:    -0.0003      Y:    -0.0283      Z:     3.1390     Total:     3.1391

*** Psi4 exiting successfully. Buy a developer a beer!
