                               Psi4 1.4a3.dev225

  ==> Input File <==

--------------------------------------------------------------------------
#psi4
#
memory 32 gb

molecule  {
-2 1
  O       -2.0377940    -0.8677190     0.0023270
  O        1.3654400    -1.2166180    -0.5909880
  O       -1.3654310     1.2166410    -0.5909090
  O        2.0377700     0.8677380     0.0022990
  C        0.0000120    -0.0000340     0.9453410
  C       -1.2903883     0.1290031     0.0202168
  C        1.2498880    -0.1249550     0.0492170
  H       -0.0910220    -0.8895480     1.5776170
  H        0.0910580     0.8894280     1.5776890
units angstrom
no_reorient  #important for SAPT in psi4, default
symmetry c1  #important for SAPT in psi4, default
}

set PROPERTIES_ORIGIN ["COM"]
properties('MP2/aug-cc-pvtz', properties = ['dipole'])
--------------------------------------------------------------------------

    Molecular point group: c1
  Charge       = -2
  Multiplicity = 1
  Basis Set: AUG-CC-PVTZ
    Blend: AUG-CC-PVTZ
  Basis Set: (AUG-CC-PVTZ AUX)
    Blend: AUG-CC-PVTZ-JKFIT

    Orbital Energies [Eh]
    ---------------------

    Doubly Occupied:

       1A    -20.163110     2A    -20.159198     3A    -20.156735
       4A    -20.152686     5A    -11.002680     6A    -10.998589
       7A    -10.895917     8A     -1.039730     9A     -1.019982
      10A     -0.941313    11A     -0.920110    12A     -0.650469
      13A     -0.398094    14A     -0.360207    15A     -0.290678
      16A     -0.289154    17A     -0.284338    18A     -0.258037
      19A     -0.220280    20A     -0.208961    21A     -0.187335
      22A     -0.084728    23A     -0.073496    24A     -0.069977
      25A     -0.061612    26A     -0.054713    27A     -0.041202

  @DF-RHF Final Energy:  -414.32186156167069

   => Energetics <=

    Nuclear Repulsion Energy =            276.6444888840538283
    One-Electron Energy =               -1139.9660364501419281
    Two-Electron Energy =                 448.9996860044174696
    Total Energy =                       -414.3218615616706870
  Basis Set: (AUG-CC-PVTZ AUX)
    Blend: AUG-CC-PVTZ-RI
    Molecular point group: c1

    Geometry (in Angstrom), charge = -2, multiplicity = 1:

       Center              X                  Y                   Z               Mass
    ------------   -----------------  -----------------  -----------------  -----------------
         O           -2.033028454908    -0.868196669494     0.036378126543    15.994914619570
         O            1.370205545092    -1.217095669494    -0.556936873457    15.994914619570
         O           -1.360665454908     1.216163330506    -0.556857873457    15.994914619570
         O            2.042535545092     0.867260330506     0.036350126543    15.994914619570
         C            0.004777545092    -0.000511669494     0.979392126543    12.000000000000
         C           -1.285622754908     0.128525430506     0.054267926543    12.000000000000
         C            1.254653545092    -0.125432669494     0.083268126543    12.000000000000
         H           -0.086256454908    -0.890025669494     1.611668126543     1.007825032230
         H            0.095823545092     0.888950330506     1.611740126543     1.007825032230

  Basis Set: AUG-CC-PVTZ
    Blend: AUG-CC-PVTZ
  Basis Set: (AUG-CC-PVTZ AUX)
    Blend: AUG-CC-PVTZ-JKFIT
	 Reference Energy          =    -414.3218615616706870 [Eh]
	 Singles Energy            =      -0.0000000000000000 [Eh]
	 Same-Spin Energy          =      -0.4075786035138977 [Eh]
	 Opposite-Spin Energy      =      -1.1713747108512744 [Eh]
	 Correlation Energy        =      -1.5789533143651722 [Eh]
	 Total Energy              =    -415.9008148760358381 [Eh]

	 ================> DF-SCS-MP2 Energies <==================
	-----------------------------------------------------------
	 SCS Same-Spin Scale       =       0.3333333333333333 [-]
	 SCS Opposite-Spin Scale   =       1.2000000000000000 [-]
	 SCS Same-Spin Energy      =      -0.1358595345046326 [Eh]
	 SCS Opposite-Spin Energy  =      -1.4056496530215292 [Eh]
	 SCS Correlation Energy    =      -1.5415091875261617 [Eh]
	 SCS Total Energy          =    -415.8633707491968607 [Eh]
	-----------------------------------------------------------

  Dipole Moment: [D]
     X:    -0.3736      Y:     0.0317      Z:     2.9164     Total:     2.9404

*** Psi4 exiting successfully. Buy a developer a beer!
