                               Psi4 1.4a3.dev225

  ==> Input File <==

--------------------------------------------------------------------------
#psi4
#
memory 32 gb

molecule  {
-2 1
  O       -2.0377940    -0.8677190     0.0023270
  O        1.3654400    -1.2166180    -0.5909880
  O       -1.3654310     1.2166410    -0.5909090
  O        2.0377700     0.8677380     0.0022990
  C        0.0000120    -0.0000340     0.9453410
  C       -1.2336851     0.1233329     0.0608689
  C        1.2498880    -0.1249550     0.0492170
  H       -0.0910220    -0.8895480     1.5776170
  H        0.0910580     0.8894280     1.5776890
units angstrom
no_reorient  #important for SAPT in psi4, default
symmetry c1  #important for SAPT in psi4, default
}

set PROPERTIES_ORIGIN ["COM"]
properties('MP2/aug-cc-pvtz', properties = ['dipole'])
--------------------------------------------------------------------------

    Molecular point group: c1
  Charge       = -2
  Multiplicity = 1
  Basis Set: AUG-CC-PVTZ
    Blend: AUG-CC-PVTZ
  Basis Set: (AUG-CC-PVTZ AUX)
    Blend: AUG-CC-PVTZ-JKFIT

    Orbital Energies [Eh]
    ---------------------

    Doubly Occupied:

       1A    -20.161207     2A    -20.158956     3A    -20.157272
       4A    -20.154940     5A    -11.004564     6A    -11.003287
       7A    -10.902892     8A     -1.029103     9A     -1.016079
      10A     -0.924865    11A     -0.916352    12A     -0.669764
      13A     -0.408177    14A     -0.363494    15A     -0.293892
      16A     -0.290030    17A     -0.286392    18A     -0.251794
      19A     -0.216172    20A     -0.202565    21A     -0.183016
      22A     -0.085267    23A     -0.071956    24A     -0.068810
      25A     -0.058470    26A     -0.053995    27A     -0.051879

  @DF-RHF Final Energy:  -414.31882115588525

   => Energetics <=

    Nuclear Repulsion Energy =            276.7088181637341791
    One-Electron Energy =               -1140.0848998875799225
    Two-Electron Energy =                 449.0572605679605545
    Total Energy =                       -414.3188211558852458
  Basis Set: (AUG-CC-PVTZ AUX)
    Blend: AUG-CC-PVTZ-RI
    Molecular point group: c1

    Geometry (in Angstrom), charge = -2, multiplicity = 1:

       Center              X                  Y                   Z               Mass
    ------------   -----------------  -----------------  -----------------  -----------------
         O           -2.039699726457    -0.867529556457     0.031595306558    15.994914619570
         O            1.363534273543    -1.216428556457    -0.561719693442    15.994914619570
         O           -1.367336726457     1.216830443543    -0.561640693442    15.994914619570
         O            2.035864273543     0.867927443543     0.031567306558    15.994914619570
         C           -0.001893726457     0.000155443543     0.974609306558    12.000000000000
         C           -1.235590826457     0.123522343543     0.090137206558    12.000000000000
         C            1.247982273543    -0.124765556457     0.078485306558    12.000000000000
         H           -0.092927726457    -0.889358556457     1.606885306558     1.007825032230
         H            0.089152273543     0.889617443543     1.606957306558     1.007825032230

  Basis Set: AUG-CC-PVTZ
    Blend: AUG-CC-PVTZ
  Basis Set: (AUG-CC-PVTZ AUX)
    Blend: AUG-CC-PVTZ-JKFIT
	 Reference Energy          =    -414.3188211558852458 [Eh]
	 Singles Energy            =      -0.0000000000000000 [Eh]
	 Same-Spin Energy          =      -0.4086415181267943 [Eh]
	 Opposite-Spin Energy      =      -1.1738805309567328 [Eh]
	 Correlation Energy        =      -1.5825220490835270 [Eh]
	 Total Energy              =    -415.9013432049687822 [Eh]

	 ================> DF-SCS-MP2 Energies <==================
	-----------------------------------------------------------
	 SCS Same-Spin Scale       =       0.3333333333333333 [-]
	 SCS Opposite-Spin Scale   =       1.2000000000000000 [-]
	 SCS Same-Spin Energy      =      -0.1362138393755981 [Eh]
	 SCS Opposite-Spin Energy  =      -1.4086566371480793 [Eh]
	 SCS Correlation Energy    =      -1.5448704765236774 [Eh]
	 SCS Total Energy          =    -415.8636916324089157 [Eh]
	-----------------------------------------------------------

  Dipole Moment: [D]
     X:     0.1420      Y:    -0.0121      Z:     3.1606     Total:     3.1638

*** Psi4 exiting successfully. Buy a developer a beer!
