                               Psi4 1.3.2 release

  ==> Input File <==

--------------------------------------------------------------------------
#psi4
#
memory 32 gb

molecule  {
-2 1
  O       -1.8208210    -1.1386100    -0.2599000
  O        1.8212030    -1.1384070    -0.2594770
  O       -1.8210520     1.1384690    -0.2594170
  O        1.8206700     1.1386730    -0.2598390
  C        0.0000000    -0.0000980     0.8472140
  C       -1.1605715    -0.0000823     0.1276744
  C        1.3305530     0.0000630     0.0222860
  H        0.0000550    -0.8982020     1.4790980
  H       -0.0000540     0.8978890     1.4792400
units angstrom
no_reorient  #important for SAPT in psi4, default
symmetry c1  #important for SAPT in psi4, default
}

set PROPERTIES_ORIGIN ["COM"]
properties('MP2/aug-cc-pvtz', properties = ['dipole'])
--------------------------------------------------------------------------

    Molecular point group: c1
  Charge       = -2
  Multiplicity = 1
  Basis Set: AUG-CC-PVTZ
    Blend: AUG-CC-PVTZ
  Basis Set: (AUG-CC-PVTZ AUX)
    Blend: AUG-CC-PVTZ-JKFIT

    Orbital Energies [Eh]
    ---------------------

    Doubly Occupied:

       1A    -20.177792     2A    -20.177757     3A    -20.156653
       4A    -20.156620     5A    -11.029099     6A    -11.017774
       7A    -10.915233     8A     -1.042635     9A     -0.973254
      10A     -0.942100    11A     -0.864234    12A     -0.721897
      13A     -0.446051    14A     -0.372888    15A     -0.314113
      16A     -0.304732    17A     -0.276779    18A     -0.260008
      19A     -0.213058    20A     -0.179525    21A     -0.164464
      22A     -0.095667    23A     -0.089250    24A     -0.076412
      25A     -0.072259    26A     -0.044715    27A     -0.037069

  @DF-RHF Final Energy:  -414.26233397309971

   => Energetics <=

    Nuclear Repulsion Energy =            271.9376531778902972
    One-Electron Energy =               -1130.1558987811201860
    Two-Electron Energy =                 443.9559116301301742
    Total Energy =                       -414.2623339730997145
  Basis Set: (AUG-CC-PVTZ AUX)
    Blend: AUG-CC-PVTZ-RI
    Molecular point group: c1

    Geometry (in Angstrom), charge = -2, multiplicity = 1:

       Center              X                  Y                   Z               Mass
    ------------   -----------------  -----------------  -----------------  -----------------
         O           -1.840819753246    -1.138612709096    -0.243573109188    15.994914619570
         O            1.801204246754    -1.138409709096    -0.243150109188    15.994914619570
         O           -1.841050753246     1.138466290904    -0.243090109188    15.994914619570
         O            1.800671246754     1.138670290904    -0.243512109188    15.994914619570
         C           -0.019998753246    -0.000100709096     0.863540890812    12.000000000000
         C           -1.180570253246    -0.000085009096     0.144001290812    12.000000000000
         C            1.310554246754     0.000060290904     0.038612890812    12.000000000000
         H           -0.019943753246    -0.898204709096     1.495424890812     1.007825032230
         H           -0.020052753246     0.897886290904     1.495566890812     1.007825032230

  Basis Set: AUG-CC-PVTZ
    Blend: AUG-CC-PVTZ
  Basis Set: (AUG-CC-PVTZ AUX)
    Blend: AUG-CC-PVTZ-JKFIT
	 Reference Energy          =    -414.2623339730997145 [Eh]
	 Singles Energy            =      -0.0000000000000000 [Eh]
	 Same-Spin Energy          =      -0.4137151617913944 [Eh]
	 Opposite-Spin Energy      =      -1.1849348378418925 [Eh]
	 Correlation Energy        =      -1.5986499996332868 [Eh]
	 Total Energy              =    -415.8609839727329813 [Eh]

	 ================> DF-SCS-MP2 Energies <==================
	-----------------------------------------------------------
	 SCS Same-Spin Scale       =       0.3333333333333333 [-]
	 SCS Opposite-Spin Scale   =       1.2000000000000000 [-]
	 SCS Same-Spin Energy      =      -0.1379050539304648 [Eh]
	 SCS Opposite-Spin Energy  =      -1.4219218054102709 [Eh]
	 SCS Correlation Energy    =      -1.5598268593407356 [Eh]
	 SCS Total Energy          =    -415.8221608324404315 [Eh]
	-----------------------------------------------------------

  Dipole Moment: [D]
     X:     1.4228      Y:    -0.0001      Z:     3.2800     Total:     3.5753

*** Psi4 exiting successfully. Buy a developer a beer!
