                               Psi4 1.3.2 release

  ==> Input File <==

--------------------------------------------------------------------------
#psi4
#
memory 32 gb

molecule  {
-2 1
  O       -1.8208210    -1.1386100    -0.2599000
  O        1.8212030    -1.1384070    -0.2594770
  O       -1.8210520     1.1384690    -0.2594170
  O        1.8206700     1.1386730    -0.2598390
  C        0.0000000    -0.0000980     0.8472140
  C       -1.3305530    -0.0000800     0.0222880
  C        1.3305530     0.0000630     0.0222860
  H        0.0000500    -0.8164164     1.4215557
  H       -0.0000540     0.8978890     1.4792400
units angstrom
no_reorient  #important for SAPT in psi4, default
symmetry c1  #important for SAPT in psi4, default
}

set PROPERTIES_ORIGIN ["COM"]
properties('MP2/aug-cc-pvtz', properties = ['dipole'])
--------------------------------------------------------------------------

    Molecular point group: c1
  Charge       = -2
  Multiplicity = 1
  Basis Set: AUG-CC-PVTZ
    Blend: AUG-CC-PVTZ
  Basis Set: (AUG-CC-PVTZ AUX)
    Blend: AUG-CC-PVTZ-JKFIT

    Orbital Energies [Eh]
    ---------------------

    Doubly Occupied:

       1A    -20.164317     2A    -20.164315     3A    -20.163107
       4A    -20.163105     5A    -11.009313     6A    -11.009310
       7A    -10.891256     8A     -1.031310     9A     -1.023750
      10A     -0.929201    11A     -0.926938    12A     -0.667061
      13A     -0.409931    14A     -0.366126    15A     -0.300689
      16A     -0.290419    17A     -0.284049    18A     -0.259585
      19A     -0.219115    20A     -0.204038    21A     -0.203544
      22A     -0.080926    23A     -0.079497    24A     -0.075811
      25A     -0.065195    26A     -0.059860    27A     -0.051581

  @DF-RHF Final Energy:  -414.31708281841713

   => Energetics <=

    Nuclear Repulsion Energy =            272.1693177814789237
    One-Electron Energy =               -1130.7861038155151618
    Two-Electron Energy =                 444.2997032156191608
    Total Energy =                       -414.3170828184171341
  Basis Set: (AUG-CC-PVTZ AUX)
    Blend: AUG-CC-PVTZ-RI
    Molecular point group: c1

    Geometry (in Angstrom), charge = -2, multiplicity = 1:

       Center              X                  Y                   Z               Mass
    ------------   -----------------  -----------------  -----------------  -----------------
         O           -1.820820960476    -1.139421110739    -0.230605558139    15.994914619570
         O            1.821203039524    -1.139218110739    -0.230182558139    15.994914619570
         O           -1.821051960476     1.137657889261    -0.230122558139    15.994914619570
         O            1.820670039524     1.137861889261    -0.230544558139    15.994914619570
         C            0.000000039524    -0.000909110739     0.876508441861    12.000000000000
         C           -1.330552960476    -0.000891110739     0.051582441861    12.000000000000
         C            1.330553039524    -0.000748110739     0.051580441861    12.000000000000
         H            0.000050039524    -0.817227510739     1.450850141861     1.007825032230
         H           -0.000053960476     0.897077889261     1.508534441861     1.007825032230

  Basis Set: AUG-CC-PVTZ
    Blend: AUG-CC-PVTZ
  Basis Set: (AUG-CC-PVTZ AUX)
    Blend: AUG-CC-PVTZ-JKFIT
	 Reference Energy          =    -414.3170828184171341 [Eh]
	 Singles Energy            =      -0.0000000000000000 [Eh]
	 Same-Spin Energy          =      -0.4079273512212759 [Eh]
	 Opposite-Spin Energy      =      -1.1726759623351135 [Eh]
	 Correlation Energy        =      -1.5806033135563893 [Eh]
	 Total Energy              =    -415.8976861319735008 [Eh]

	 ================> DF-SCS-MP2 Energies <==================
	-----------------------------------------------------------
	 SCS Same-Spin Scale       =       0.3333333333333333 [-]
	 SCS Opposite-Spin Scale   =       1.2000000000000000 [-]
	 SCS Same-Spin Energy      =      -0.1359757837404253 [Eh]
	 SCS Opposite-Spin Energy  =      -1.4072111548021362 [Eh]
	 SCS Correlation Energy    =      -1.5431869385425614 [Eh]
	 SCS Total Energy          =    -415.8602697569597240 [Eh]
	-----------------------------------------------------------

  Dipole Moment: [D]
     X:     0.0000      Y:    -0.0495      Z:     2.8235     Total:     2.8239

*** Psi4 exiting successfully. Buy a developer a beer!
