                               Psi4 1.3.2 release

  ==> Input File <==

--------------------------------------------------------------------------
#psi4
#
memory 32 gb

molecule  {
-2 1
  O       -1.8208210    -1.1386100    -0.2599000
  O        1.8212030    -1.1384070    -0.2594770
  O       -1.8210520     1.1384690    -0.2594170
  O        1.8206700     1.1386730    -0.2598390
  C        0.0000000    -0.0000980     0.8472140
  C       -1.3445176    -0.0469726     0.0466209
  C        1.3305530     0.0000630     0.0222860
  H        0.0000550    -0.8982020     1.4790980
  H       -0.0000540     0.8978890     1.4792400
units angstrom
no_reorient  #important for SAPT in psi4, default
symmetry c1  #important for SAPT in psi4, default
}

set PROPERTIES_ORIGIN ["COM"]
properties('MP2/aug-cc-pvtz', properties = ['dipole'])
--------------------------------------------------------------------------

    Molecular point group: c1
  Charge       = -2
  Multiplicity = 1
  Basis Set: AUG-CC-PVTZ
    Blend: AUG-CC-PVTZ
  Basis Set: (AUG-CC-PVTZ AUX)
    Blend: AUG-CC-PVTZ-JKFIT

    Orbital Energies [Eh]
    ---------------------

    Doubly Occupied:

       1A    -20.175175     2A    -20.164723     3A    -20.164203
       4A    -20.153941     5A    -11.011038     6A    -11.010117
       7A    -10.904773     8A     -1.039713     9A     -1.027221
      10A     -0.928922    11A     -0.919807    12A     -0.657267
      13A     -0.412438    14A     -0.361727    15A     -0.294132
      16A     -0.292914    17A     -0.283422    18A     -0.259899
      19A     -0.211374    20A     -0.207275    21A     -0.204246
      22A     -0.083016    23A     -0.079033    24A     -0.073216
      25A     -0.064915    26A     -0.059118    27A     -0.051841

  @DF-RHF Final Energy:  -414.31877750367738

   => Energetics <=

    Nuclear Repulsion Energy =            271.5883384188379068
    One-Electron Energy =               -1129.6233034632955423
    Two-Electron Energy =                 443.7161875407802540
    Total Energy =                       -414.3187775036773814
  Basis Set: (AUG-CC-PVTZ AUX)
    Blend: AUG-CC-PVTZ-RI
    Molecular point group: c1

    Geometry (in Angstrom), charge = -2, multiplicity = 1:

       Center              X                  Y                   Z               Mass
    ------------   -----------------  -----------------  -----------------  -----------------
         O           -1.819178040196    -1.133095949472    -0.234036964694    15.994914619570
         O            1.822845959804    -1.132892949472    -0.233613964694    15.994914619570
         O           -1.819409040196     1.143983050528    -0.233553964694    15.994914619570
         O            1.822312959804     1.144187050528    -0.233975964694    15.994914619570
         C            0.001642959804     0.005416050528     0.873077035306    12.000000000000
         C           -1.342874640196    -0.041458549472     0.072483935306    12.000000000000
         C            1.332195959804     0.005577050528     0.048149035306    12.000000000000
         H            0.001697959804    -0.892687949472     1.504961035306     1.007825032230
         H            0.001588959804     0.903403050528     1.505103035306     1.007825032230

  Basis Set: AUG-CC-PVTZ
    Blend: AUG-CC-PVTZ
  Basis Set: (AUG-CC-PVTZ AUX)
    Blend: AUG-CC-PVTZ-JKFIT
	 Reference Energy          =    -414.3187775036773814 [Eh]
	 Singles Energy            =      -0.0000000000000000 [Eh]
	 Same-Spin Energy          =      -0.4080001965317580 [Eh]
	 Opposite-Spin Energy      =      -1.1733183612286264 [Eh]
	 Correlation Energy        =      -1.5813185577603845 [Eh]
	 Total Energy              =    -415.9000960614377504 [Eh]

	 ================> DF-SCS-MP2 Energies <==================
	-----------------------------------------------------------
	 SCS Same-Spin Scale       =       0.3333333333333333 [-]
	 SCS Opposite-Spin Scale   =       1.2000000000000000 [-]
	 SCS Same-Spin Energy      =      -0.1360000655105860 [Eh]
	 SCS Opposite-Spin Energy  =      -1.4079820334743516 [Eh]
	 SCS Correlation Energy    =      -1.5439820989849375 [Eh]
	 SCS Total Energy          =    -415.8627596026623223 [Eh]
	-----------------------------------------------------------

  Dipole Moment: [D]
     X:     0.0035      Y:    -0.5437      Z:     2.7610     Total:     2.8141

*** Psi4 exiting successfully. Buy a developer a beer!
