                               Psi4 1.3.2 release

  ==> Input File <==

--------------------------------------------------------------------------
#psi4
#
memory 32 gb

molecule  {
-2 1
  O       -1.8208210    -1.1386100    -0.2599000
  O        1.8212030    -1.1384070    -0.2594770
  O       -1.8210520     1.1384690    -0.2594170
  O        1.8206700     1.1386730    -0.2598390
  C        0.0000000    -0.0000980     0.8472140
  C       -1.3305530    -0.0000800     0.0222880
  C        1.3305530     0.0000630     0.0222860
  H        0.0000508    -0.8272322     1.5695139
  H       -0.0000540     0.8978890     1.4792400
units angstrom
no_reorient  #important for SAPT in psi4, default
symmetry c1  #important for SAPT in psi4, default
}

set PROPERTIES_ORIGIN ["COM"]
properties('MP2/aug-cc-pvtz', properties = ['dipole'])
--------------------------------------------------------------------------

    Molecular point group: c1
  Charge       = -2
  Multiplicity = 1
  Basis Set: AUG-CC-PVTZ
    Blend: AUG-CC-PVTZ
  Basis Set: (AUG-CC-PVTZ AUX)
    Blend: AUG-CC-PVTZ-JKFIT

    Orbital Energies [Eh]
    ---------------------

    Doubly Occupied:

       1A    -20.164773     2A    -20.164772     3A    -20.164321
       4A    -20.164320     5A    -11.011289     6A    -11.011285
       7A    -10.905274     8A     -1.031976     9A     -1.024574
      10A     -0.929905    11A     -0.927696    12A     -0.657335
      13A     -0.411194    14A     -0.364690    15A     -0.291320
      16A     -0.289565    17A     -0.287017    18A     -0.260308
      19A     -0.206447    20A     -0.204416    21A     -0.204371
      22A     -0.084319    23A     -0.080141    24A     -0.075168
      25A     -0.065134    26A     -0.060319    27A     -0.052822

  @DF-RHF Final Energy:  -414.32088659227412

   => Energetics <=

    Nuclear Repulsion Energy =            271.5287003421029226
    One-Electron Energy =               -1129.5096763652288701
    Two-Electron Energy =                 443.6600894308518832
    Total Energy =                       -414.3208865922741211
  Basis Set: (AUG-CC-PVTZ AUX)
    Blend: AUG-CC-PVTZ-RI
    Molecular point group: c1

    Geometry (in Angstrom), charge = -2, multiplicity = 1:

       Center              X                  Y                   Z               Mass
    ------------   -----------------  -----------------  -----------------  -----------------
         O           -1.820820968381    -1.139314238823    -0.232067546732    15.994914619570
         O            1.821203031619    -1.139111238823    -0.231644546732    15.994914619570
         O           -1.821051968381     1.137764761177    -0.231584546732    15.994914619570
         O            1.820670031619     1.137968761177    -0.232006546732    15.994914619570
         C            0.000000031619    -0.000802238823     0.875046453268    12.000000000000
         C           -1.330552968381    -0.000784238823     0.050120453268    12.000000000000
         C            1.330553031619    -0.000641238823     0.050118453268    12.000000000000
         H            0.000050831619    -0.827936438823     1.597346353268     1.007825032230
         H           -0.000053968381     0.897184761177     1.507072453268     1.007825032230

  Basis Set: AUG-CC-PVTZ
    Blend: AUG-CC-PVTZ
  Basis Set: (AUG-CC-PVTZ AUX)
    Blend: AUG-CC-PVTZ-JKFIT
	 Reference Energy          =    -414.3208865922741211 [Eh]
	 Singles Energy            =      -0.0000000000000000 [Eh]
	 Same-Spin Energy          =      -0.4079157616140845 [Eh]
	 Opposite-Spin Energy      =      -1.1732867347691553 [Eh]
	 Correlation Energy        =      -1.5812024963832398 [Eh]
	 Total Energy              =    -415.9020890886573625 [Eh]

	 ================> DF-SCS-MP2 Energies <==================
	-----------------------------------------------------------
	 SCS Same-Spin Scale       =       0.3333333333333333 [-]
	 SCS Opposite-Spin Scale   =       1.2000000000000000 [-]
	 SCS Same-Spin Energy      =      -0.1359719205380281 [Eh]
	 SCS Opposite-Spin Energy  =      -1.4079440817229865 [Eh]
	 SCS Correlation Energy    =      -1.5439160022610146 [Eh]
	 SCS Total Energy          =    -415.8648025945351492 [Eh]
	-----------------------------------------------------------

  Dipole Moment: [D]
     X:    -0.0000      Y:     0.0254      Z:     2.7663     Total:     2.7664

*** Psi4 exiting successfully. Buy a developer a beer!
