                               Psi4 1.3.2 release

  ==> Input File <==

--------------------------------------------------------------------------
#psi4
#
memory 32 gb

molecule  {
-2 1
  O       -1.8208210    -1.1386100    -0.2599000
  O        1.8212030    -1.1384070    -0.2594770
  O       -1.8210520     1.1384690    -0.2594170
  O        1.8206700     1.1386730    -0.2598390
  C        0.0000000    -0.0000980     0.8472140
  C       -1.3305530    -0.0000800     0.0222880
  C        1.3305530     0.0000630     0.0222860
  H        0.0000563    -0.9197073     1.4473697
  H       -0.0000540     0.8978890     1.4792400
units angstrom
no_reorient  #important for SAPT in psi4, default
symmetry c1  #important for SAPT in psi4, default
}

set PROPERTIES_ORIGIN ["COM"]
properties('MP2/aug-cc-pvtz', properties = ['dipole'])
--------------------------------------------------------------------------

    Molecular point group: c1
  Charge       = -2
  Multiplicity = 1
  Basis Set: AUG-CC-PVTZ
    Blend: AUG-CC-PVTZ
  Basis Set: (AUG-CC-PVTZ AUX)
    Blend: AUG-CC-PVTZ-JKFIT

    Orbital Energies [Eh]
    ---------------------

    Doubly Occupied:

       1A    -20.164314     2A    -20.164311     3A    -20.164135
       4A    -20.164133     5A    -11.010242     6A    -11.010238
       7A    -10.904400     8A     -1.031822     9A     -1.024336
      10A     -0.929759    11A     -0.927506    12A     -0.657157
      13A     -0.410963    14A     -0.360320    15A     -0.294739
      16A     -0.291225    17A     -0.281388    18A     -0.260112
      19A     -0.213507    20A     -0.204098    21A     -0.203358
      22A     -0.081317    23A     -0.080142    24A     -0.075432
      25A     -0.065372    26A     -0.060305    27A     -0.052458

  @DF-RHF Final Energy:  -414.32237077482392

   => Energetics <=

    Nuclear Repulsion Energy =            271.7052185076969977
    One-Electron Energy =               -1129.8810003199828316
    Two-Electron Energy =                 443.8534110374618535
    Total Energy =                       -414.3223707748239235
  Basis Set: (AUG-CC-PVTZ AUX)
    Blend: AUG-CC-PVTZ-RI
    Molecular point group: c1

    Geometry (in Angstrom), charge = -2, multiplicity = 1:

       Center              X                  Y                   Z               Mass
    ------------   -----------------  -----------------  -----------------  -----------------
         O           -1.820821022727    -1.138400483848    -0.230860628649    15.994914619570
         O            1.821202977273    -1.138197483848    -0.230437628649    15.994914619570
         O           -1.821052022727     1.138678516152    -0.230377628649    15.994914619570
         O            1.820669977273     1.138882516152    -0.230799628649    15.994914619570
         C           -0.000000022727     0.000111516152     0.876253371351    12.000000000000
         C           -1.330553022727     0.000129516152     0.051327371351    12.000000000000
         C            1.330552977273     0.000272516152     0.051325371351    12.000000000000
         H            0.000056277273    -0.919497783848     1.476409071351     1.007825032230
         H           -0.000054022727     0.898098516152     1.508279371351     1.007825032230

  Basis Set: AUG-CC-PVTZ
    Blend: AUG-CC-PVTZ
  Basis Set: (AUG-CC-PVTZ AUX)
    Blend: AUG-CC-PVTZ-JKFIT
	 Reference Energy          =    -414.3223707748239235 [Eh]
	 Singles Energy            =      -0.0000000000000000 [Eh]
	 Same-Spin Energy          =      -0.4079771687132209 [Eh]
	 Opposite-Spin Energy      =      -1.1731408409258606 [Eh]
	 Correlation Energy        =      -1.5811180096390816 [Eh]
	 Total Energy              =    -415.9034887844629793 [Eh]

	 ================> DF-SCS-MP2 Energies <==================
	-----------------------------------------------------------
	 SCS Same-Spin Scale       =       0.3333333333333333 [-]
	 SCS Opposite-Spin Scale   =       1.2000000000000000 [-]
	 SCS Same-Spin Energy      =      -0.1359923895710736 [Eh]
	 SCS Opposite-Spin Energy  =      -1.4077690091110326 [Eh]
	 SCS Correlation Energy    =      -1.5437613986821064 [Eh]
	 SCS Total Energy          =    -415.8661321735060028 [Eh]
	-----------------------------------------------------------

  Dipole Moment: [D]
     X:     0.0000      Y:    -0.0074      Z:     2.7402     Total:     2.7402

*** Psi4 exiting successfully. Buy a developer a beer!
