                               Psi4 1.4a3.dev225

  ==> Input File <==

--------------------------------------------------------------------------
#psi4
#
memory 32 gb

molecule  {
-2 1
  O       -2.0377940    -0.8677190     0.0023270
  O        1.3654400    -1.2166180    -0.5909880
  O       -1.3654310     1.2166410    -0.5909090
  O        2.0377700     0.8677380     0.0022990
  C        0.0000120    -0.0000340     0.9453410
  C       -1.2498860     0.1249530     0.0492540
  C        1.2498880    -0.1249550     0.0492170
  H       -0.0951783    -0.9301605     1.6064848
  H        0.0910580     0.8894280     1.5776890
units angstrom
no_reorient  #important for SAPT in psi4, default
symmetry c1  #important for SAPT in psi4, default
}

set PROPERTIES_ORIGIN ["COM"]
properties('MP2/aug-cc-pvtz', properties = ['dipole'])
--------------------------------------------------------------------------

    Molecular point group: c1
  Charge       = -2
  Multiplicity = 1
  Basis Set: AUG-CC-PVTZ
    Blend: AUG-CC-PVTZ
  Basis Set: (AUG-CC-PVTZ AUX)
    Blend: AUG-CC-PVTZ-JKFIT

    Orbital Energies [Eh]
    ---------------------

    Doubly Occupied:

       1A    -20.160622     2A    -20.160048     3A    -20.156800
       4A    -20.156154     5A    -11.003640     6A    -11.003602
       7A    -10.907801     8A     -1.030407     9A     -1.019787
      10A     -0.924975    11A     -0.922745    12A     -0.660674
      13A     -0.405825    14A     -0.360409    15A     -0.291167
      16A     -0.287580    17A     -0.286282    18A     -0.253594
      19A     -0.215535    20A     -0.203564    21A     -0.183968
      22A     -0.084725    23A     -0.071948    24A     -0.070009
      25A     -0.059334    26A     -0.055440    27A     -0.050178

  @DF-RHF Final Energy:  -414.31872402237525

   => Energetics <=

    Nuclear Repulsion Energy =            276.4495621451665102
    One-Electron Energy =               -1139.5629469524737942
    Two-Electron Energy =                 448.7946607849320344
    Total Energy =                       -414.3187240223752497
  Basis Set: (AUG-CC-PVTZ AUX)
    Blend: AUG-CC-PVTZ-RI
    Molecular point group: c1

    Geometry (in Angstrom), charge = -2, multiplicity = 1:

       Center              X                  Y                   Z               Mass
    ------------   -----------------  -----------------  -----------------  -----------------
         O           -2.037752581769    -0.867318869373     0.032676582846    15.994914619570
         O            1.365481418231    -1.216217869373    -0.560638417154    15.994914619570
         O           -1.365389581769     1.217041130627    -0.560559417154    15.994914619570
         O            2.037811418231     0.868138130627     0.032648582846    15.994914619570
         C            0.000053418231     0.000366130627     0.975690582846    12.000000000000
         C           -1.249844581769     0.125353130627     0.079603582846    12.000000000000
         C            1.249929418231    -0.124554869373     0.079566582846    12.000000000000
         H           -0.095136881769    -0.929760369373     1.636834382846     1.007825032230
         H            0.091099418231     0.889828130627     1.608038582846     1.007825032230

  Basis Set: AUG-CC-PVTZ
    Blend: AUG-CC-PVTZ
  Basis Set: (AUG-CC-PVTZ AUX)
    Blend: AUG-CC-PVTZ-JKFIT
	 Reference Energy          =    -414.3187240223752497 [Eh]
	 Singles Energy            =      -0.0000000000000000 [Eh]
	 Same-Spin Energy          =      -0.4082840660288355 [Eh]
	 Opposite-Spin Energy      =      -1.1734057924311903 [Eh]
	 Correlation Energy        =      -1.5816898584600259 [Eh]
	 Total Energy              =    -415.9004138808352877 [Eh]

	 ================> DF-SCS-MP2 Energies <==================
	-----------------------------------------------------------
	 SCS Same-Spin Scale       =       0.3333333333333333 [-]
	 SCS Opposite-Spin Scale   =       1.2000000000000000 [-]
	 SCS Same-Spin Energy      =      -0.1360946886762785 [Eh]
	 SCS Opposite-Spin Energy  =      -1.4080869509174283 [Eh]
	 SCS Correlation Energy    =      -1.5441816395937069 [Eh]
	 SCS Total Energy          =    -415.8629056619689663 [Eh]
	-----------------------------------------------------------

  Dipole Moment: [D]
     X:     0.0005      Y:     0.0338      Z:     3.0438     Total:     3.0440

*** Psi4 exiting successfully. Buy a developer a beer!
