                               Psi4 1.3.2 release

  ==> Input File <==

--------------------------------------------------------------------------
#psi4
#
memory 32 gb

molecule  {
-2 1
  O       -1.8208210    -1.1386100    -0.2599000
  O        1.8212030    -1.1384070    -0.2594770
  O       -1.8210520     1.1384690    -0.2594170
  O        1.8206700     1.1386730    -0.2598390
  C        0.0000000    -0.0000980     0.8472140
  C       -1.2697679    -0.0000669    -0.0685172
  C        1.3305530     0.0000630     0.0222860
  H        0.0000550    -0.8982020     1.4790980
  H       -0.0000540     0.8978890     1.4792400
units angstrom
no_reorient  #important for SAPT in psi4, default
symmetry c1  #important for SAPT in psi4, default
}

set PROPERTIES_ORIGIN ["COM"]
properties('MP2/aug-cc-pvtz', properties = ['dipole'])
--------------------------------------------------------------------------

    Molecular point group: c1
  Charge       = -2
  Multiplicity = 1
  Basis Set: AUG-CC-PVTZ
    Blend: AUG-CC-PVTZ
  Basis Set: (AUG-CC-PVTZ AUX)
    Blend: AUG-CC-PVTZ-JKFIT

    Orbital Energies [Eh]
    ---------------------

    Doubly Occupied:

       1A    -20.164246     2A    -20.164212     3A    -20.164185
       4A    -20.164152     5A    -11.012835     6A    -11.009078
       7A    -10.906168     8A     -1.030519     9A     -1.021470
      10A     -0.928919    11A     -0.923004    12A     -0.657915
      13A     -0.407880    14A     -0.364316    15A     -0.292599
      16A     -0.288415    17A     -0.285433    18A     -0.258117
      19A     -0.211650    20A     -0.204418    21A     -0.200481
      22A     -0.085276    23A     -0.079731    24A     -0.074275
      25A     -0.064861    26A     -0.058537    27A     -0.049179

  @DF-RHF Final Energy:  -414.31539757265148

   => Energetics <=

    Nuclear Repulsion Energy =            271.8268508831005761
    One-Electron Energy =               -1130.1407533323508687
    Two-Electron Energy =                 443.9985048765987585
    Total Energy =                       -414.3153975726514773
  Basis Set: (AUG-CC-PVTZ AUX)
    Blend: AUG-CC-PVTZ-RI
    Molecular point group: c1

    Geometry (in Angstrom), charge = -2, multiplicity = 1:

       Center              X                  Y                   Z               Mass
    ------------   -----------------  -----------------  -----------------  -----------------
         O           -1.827972527048    -1.138614520944    -0.220490682814    15.994914619570
         O            1.814051472952    -1.138411520944    -0.220067682814    15.994914619570
         O           -1.828203527048     1.138464479056    -0.220007682814    15.994914619570
         O            1.813518472952     1.138668479056    -0.220429682814    15.994914619570
         C           -0.007151527048    -0.000102520944     0.886623317186    12.000000000000
         C           -1.276919427048    -0.000071420944    -0.029107882814    12.000000000000
         C            1.323401472952     0.000058479056     0.061695317186    12.000000000000
         H           -0.007096527048    -0.898206520944     1.518507317186     1.007825032230
         H           -0.007205527048     0.897884479056     1.518649317186     1.007825032230

  Basis Set: AUG-CC-PVTZ
    Blend: AUG-CC-PVTZ
  Basis Set: (AUG-CC-PVTZ AUX)
    Blend: AUG-CC-PVTZ-JKFIT
	 Reference Energy          =    -414.3153975726514773 [Eh]
	 Singles Energy            =      -0.0000000000000000 [Eh]
	 Same-Spin Energy          =      -0.4084032967673764 [Eh]
	 Opposite-Spin Energy      =      -1.1742854495782882 [Eh]
	 Correlation Energy        =      -1.5826887463456645 [Eh]
	 Total Energy              =    -415.8980863189971160 [Eh]

	 ================> DF-SCS-MP2 Energies <==================
	-----------------------------------------------------------
	 SCS Same-Spin Scale       =       0.3333333333333333 [-]
	 SCS Opposite-Spin Scale   =       1.2000000000000000 [-]
	 SCS Same-Spin Energy      =      -0.1361344322557921 [Eh]
	 SCS Opposite-Spin Energy  =      -1.4091425394939459 [Eh]
	 SCS Correlation Energy    =      -1.5452769717497379 [Eh]
	 SCS Total Energy          =    -415.8606745444012063 [Eh]
	-----------------------------------------------------------

  Dipole Moment: [D]
     X:     0.0809      Y:    -0.0003      Z:     2.7210     Total:     2.7222

*** Psi4 exiting successfully. Buy a developer a beer!
