                               Psi4 1.3.2 release

  ==> Input File <==

--------------------------------------------------------------------------
#psi4
#
memory 32 gb

molecule  {
-2 1
  O       -1.8208210    -1.1386100    -0.2599000
  O        1.8212030    -1.1384070    -0.2594770
  O       -1.8210520     1.1384690    -0.2594170
  O        1.8206700     1.1386730    -0.2598390
  C        0.0000000    -0.0000980     0.8472140
  C       -1.3159534    -0.0000767    -0.0008077
  C        1.3305530     0.0000630     0.0222860
  H        0.0000550    -0.8982020     1.4790980
  H       -0.0000540     0.8978890     1.4792400
units angstrom
no_reorient  #important for SAPT in psi4, default
symmetry c1  #important for SAPT in psi4, default
}

set PROPERTIES_ORIGIN ["COM"]
properties('MP2/aug-cc-pvtz', properties = ['dipole'])
--------------------------------------------------------------------------

    Molecular point group: c1
  Charge       = -2
  Multiplicity = 1
  Basis Set: AUG-CC-PVTZ
    Blend: AUG-CC-PVTZ
  Basis Set: (AUG-CC-PVTZ AUX)
    Blend: AUG-CC-PVTZ-JKFIT

    Orbital Energies [Eh]
    ---------------------

    Doubly Occupied:

       1A    -20.164231     2A    -20.164197     3A    -20.164191
       4A    -20.164158     5A    -11.010740     6A    -11.010064
       7A    -10.904801     8A     -1.031632     9A     -1.024064
      10A     -0.929494    11A     -0.927155    12A     -0.657224
      13A     -0.410127    14A     -0.361984    15A     -0.293078
      16A     -0.290715    17A     -0.283661    18A     -0.259854
      19A     -0.211743    20A     -0.204178    21A     -0.203582
      22A     -0.082830    23A     -0.080079    24A     -0.075245
      25A     -0.065279    26A     -0.060075    27A     -0.051662

  @DF-RHF Final Energy:  -414.32202682501025

   => Energetics <=

    Nuclear Repulsion Energy =            271.7331153016885423
    One-Electron Energy =               -1129.9381980988769101
    Two-Electron Energy =                 443.8830559721781697
    Total Energy =                       -414.3220268250102549
  Basis Set: (AUG-CC-PVTZ AUX)
    Blend: AUG-CC-PVTZ-RI
    Molecular point group: c1

    Geometry (in Angstrom), charge = -2, multiplicity = 1:

       Center              X                  Y                   Z               Mass
    ------------   -----------------  -----------------  -----------------  -----------------
         O           -1.822538688885    -1.138613367950    -0.228456872746    15.994914619570
         O            1.819485311115    -1.138410367950    -0.228033872746    15.994914619570
         O           -1.822769688885     1.138465632050    -0.227973872746    15.994914619570
         O            1.818952311115     1.138669632050    -0.228395872746    15.994914619570
         C           -0.001717688885    -0.000101367950     0.878657127254    12.000000000000
         C           -1.317671088885    -0.000080067950     0.030635427254    12.000000000000
         C            1.328835311115     0.000059632050     0.053729127254    12.000000000000
         H           -0.001662688885    -0.898205367950     1.510541127254     1.007825032230
         H           -0.001771688885     0.897885632050     1.510683127254     1.007825032230

  Basis Set: AUG-CC-PVTZ
    Blend: AUG-CC-PVTZ
  Basis Set: (AUG-CC-PVTZ AUX)
    Blend: AUG-CC-PVTZ-JKFIT
	 Reference Energy          =    -414.3220268250102549 [Eh]
	 Singles Energy            =      -0.0000000000000000 [Eh]
	 Same-Spin Energy          =      -0.4079526083770053 [Eh]
	 Opposite-Spin Energy      =      -1.1731773865444197 [Eh]
	 Correlation Energy        =      -1.5811299949214250 [Eh]
	 Total Energy              =    -415.9031568199316666 [Eh]

	 ================> DF-SCS-MP2 Energies <==================
	-----------------------------------------------------------
	 SCS Same-Spin Scale       =       0.3333333333333333 [-]
	 SCS Opposite-Spin Scale   =       1.2000000000000000 [-]
	 SCS Same-Spin Energy      =      -0.1359842027923351 [Eh]
	 SCS Opposite-Spin Energy  =      -1.4078128638533036 [Eh]
	 SCS Correlation Energy    =      -1.5437970666456386 [Eh]
	 SCS Total Energy          =    -415.8658238916559071 [Eh]
	-----------------------------------------------------------

  Dipole Moment: [D]
     X:     0.0145      Y:    -0.0002      Z:     2.7384     Total:     2.7385

*** Psi4 exiting successfully. Buy a developer a beer!
