                               Psi4 1.3.2 release

  ==> Input File <==

--------------------------------------------------------------------------
#psi4
#
memory 32 gb

molecule  {
-2 1
  O       -1.8208210    -1.1386100    -0.2599000
  O        1.8212030    -1.1384070    -0.2594770
  O       -1.8210520     1.1384690    -0.2594170
  O        1.8206700     1.1386730    -0.2598390
  C        0.0000000    -0.0000980     0.8472140
  C       -1.3149673     0.0468125    -0.0010399
  C        1.3305530     0.0000630     0.0222860
  H        0.0000550    -0.8982020     1.4790980
  H       -0.0000540     0.8978890     1.4792400
units angstrom
no_reorient  #important for SAPT in psi4, default
symmetry c1  #important for SAPT in psi4, default
}

set PROPERTIES_ORIGIN ["COM"]
properties('MP2/aug-cc-pvtz', properties = ['dipole'])
--------------------------------------------------------------------------

    Molecular point group: c1
  Charge       = -2
  Multiplicity = 1
  Basis Set: AUG-CC-PVTZ
    Blend: AUG-CC-PVTZ
  Basis Set: (AUG-CC-PVTZ AUX)
    Blend: AUG-CC-PVTZ-JKFIT

    Orbital Energies [Eh]
    ---------------------

    Doubly Occupied:

       1A    -20.174847     2A    -20.164507     3A    -20.163979
       4A    -20.153596     5A    -11.010375     6A    -11.010097
       7A    -10.904932     8A     -1.039126     9A     -1.026996
      10A     -0.928765    11A     -0.919063    12A     -0.657342
      13A     -0.410564    14A     -0.362923    15A     -0.293505
      16A     -0.292502    17A     -0.284818    18A     -0.259418
      19A     -0.211685    20A     -0.206525    21A     -0.204324
      22A     -0.084143    23A     -0.079093    24A     -0.073101
      25A     -0.064886    26A     -0.058752    27A     -0.050118

  @DF-RHF Final Energy:  -414.31891380543107

   => Energetics <=

    Nuclear Repulsion Energy =            271.7654424883140223
    One-Electron Energy =               -1129.9887463791912978
    Two-Electron Energy =                 443.9043900854462663
    Total Energy =                       -414.3189138054310661
  Basis Set: (AUG-CC-PVTZ AUX)
    Blend: AUG-CC-PVTZ-RI
    Molecular point group: c1

    Geometry (in Angstrom), charge = -2, multiplicity = 1:

       Center              X                  Y                   Z               Mass
    ------------   -----------------  -----------------  -----------------  -----------------
         O           -1.822654705986    -1.144129998156    -0.228429553842    15.994914619570
         O            1.819369294014    -1.143926998156    -0.228006553842    15.994914619570
         O           -1.822885705986     1.132949001844    -0.227946553842    15.994914619570
         O            1.818836294014     1.133153001844    -0.228368553842    15.994914619570
         C           -0.001833705986    -0.005617998156     0.878684446158    12.000000000000
         C           -1.316801005986     0.041292501844     0.030430546158    12.000000000000
         C            1.328719294014    -0.005456998156     0.053756446158    12.000000000000
         H           -0.001778705986    -0.903721998156     1.510568446158     1.007825032230
         H           -0.001887705986     0.892369001844     1.510710446158     1.007825032230

  Basis Set: AUG-CC-PVTZ
    Blend: AUG-CC-PVTZ
  Basis Set: (AUG-CC-PVTZ AUX)
    Blend: AUG-CC-PVTZ-JKFIT
	 Reference Energy          =    -414.3189138054310661 [Eh]
	 Singles Energy            =      -0.0000000000000000 [Eh]
	 Same-Spin Energy          =      -0.4079548561008940 [Eh]
	 Opposite-Spin Energy      =      -1.1732144853614457 [Eh]
	 Correlation Energy        =      -1.5811693414623398 [Eh]
	 Total Energy              =    -415.9000831468933939 [Eh]

	 ================> DF-SCS-MP2 Energies <==================
	-----------------------------------------------------------
	 SCS Same-Spin Scale       =       0.3333333333333333 [-]
	 SCS Opposite-Spin Scale   =       1.2000000000000000 [-]
	 SCS Same-Spin Energy      =      -0.1359849520336313 [Eh]
	 SCS Opposite-Spin Energy  =      -1.4078573824337348 [Eh]
	 SCS Correlation Energy    =      -1.5438423344673662 [Eh]
	 SCS Total Energy          =    -415.8627561398984085 [Eh]
	-----------------------------------------------------------

  Dipole Moment: [D]
     X:     0.0288      Y:     0.5432      Z:     2.7417     Total:     2.7952

*** Psi4 exiting successfully. Buy a developer a beer!
