                               Psi4 1.3.2 release

  ==> Input File <==

--------------------------------------------------------------------------
#psi4
#
memory 32 gb

molecule  {
-2 1
  O       -1.8208210    -1.1386100    -0.2599000
  O        1.8212030    -1.1384070    -0.2594770
  O       -1.8210520     1.1384690    -0.2594170
  O        1.8206700     1.1386730    -0.2598390
  C        0.0000000    -0.0000980     0.8472140
  C       -1.3305530    -0.0000800     0.0222880
  C        1.3305530     0.0000630     0.0222860
  H        0.0000543    -0.8870373     1.4946758
  H       -0.0000540     0.8978890     1.4792400
units angstrom
no_reorient  #important for SAPT in psi4, default
symmetry c1  #important for SAPT in psi4, default
}

set PROPERTIES_ORIGIN ["COM"]
properties('MP2/aug-cc-pvtz', properties = ['dipole'])
--------------------------------------------------------------------------

    Molecular point group: c1
  Charge       = -2
  Multiplicity = 1
  Basis Set: AUG-CC-PVTZ
    Blend: AUG-CC-PVTZ
  Basis Set: (AUG-CC-PVTZ AUX)
    Blend: AUG-CC-PVTZ-JKFIT

    Orbital Energies [Eh]
    ---------------------

    Doubly Occupied:

       1A    -20.164386     2A    -20.164385     3A    -20.164301
       4A    -20.164299     5A    -11.010628     6A    -11.010624
       7A    -10.904762     8A     -1.031871     9A     -1.024420
      10A     -0.929806    11A     -0.927571    12A     -0.657155
      13A     -0.411046    14A     -0.361855    15A     -0.292505
      16A     -0.291256    17A     -0.283692    18A     -0.260179
      19A     -0.210671    20A     -0.204336    21A     -0.204198
      22A     -0.082397    23A     -0.080130    24A     -0.075445
      25A     -0.065309    26A     -0.060309    27A     -0.052590

  @DF-RHF Final Energy:  -414.32234250207654

   => Energetics <=

    Nuclear Repulsion Energy =            271.6351744163816875
    One-Electron Energy =               -1129.7347797965510381
    Two-Electron Energy =                 443.7772628780928130
    Total Energy =                       -414.3223425020765376
  Basis Set: (AUG-CC-PVTZ AUX)
    Blend: AUG-CC-PVTZ-RI
    Molecular point group: c1

    Geometry (in Angstrom), charge = -2, multiplicity = 1:

       Center              X                  Y                   Z               Mass
    ------------   -----------------  -----------------  -----------------  -----------------
         O           -1.820821002964    -1.138723299125    -0.231328064577    15.994914619570
         O            1.821202997036    -1.138520299125    -0.230905064577    15.994914619570
         O           -1.821052002964     1.138355700875    -0.230845064577    15.994914619570
         O            1.820669997036     1.138559700875    -0.231267064577    15.994914619570
         C           -0.000000002964    -0.000211299125     0.875785935423    12.000000000000
         C           -1.330553002964    -0.000193299125     0.050859935423    12.000000000000
         C            1.330552997036    -0.000050299125     0.050857935423    12.000000000000
         H            0.000054297036    -0.887150599125     1.523247735423     1.007825032230
         H           -0.000054002964     0.897775700875     1.507811935423     1.007825032230

  Basis Set: AUG-CC-PVTZ
    Blend: AUG-CC-PVTZ
  Basis Set: (AUG-CC-PVTZ AUX)
    Blend: AUG-CC-PVTZ-JKFIT
	 Reference Energy          =    -414.3223425020765376 [Eh]
	 Singles Energy            =      -0.0000000000000000 [Eh]
	 Same-Spin Energy          =      -0.4079262719171008 [Eh]
	 Opposite-Spin Energy      =      -1.1731540543830443 [Eh]
	 Correlation Energy        =      -1.5810803263001452 [Eh]
	 Total Energy              =    -415.9034228283766765 [Eh]

	 ================> DF-SCS-MP2 Energies <==================
	-----------------------------------------------------------
	 SCS Same-Spin Scale       =       0.3333333333333333 [-]
	 SCS Opposite-Spin Scale   =       1.2000000000000000 [-]
	 SCS Same-Spin Energy      =      -0.1359754239723669 [Eh]
	 SCS Opposite-Spin Energy  =      -1.4077848652596532 [Eh]
	 SCS Correlation Energy    =      -1.5437602892320201 [Eh]
	 SCS Total Energy          =    -415.8661027913085491 [Eh]
	-----------------------------------------------------------

  Dipole Moment: [D]
     X:     0.0000      Y:     0.0036      Z:     2.7509     Total:     2.7509

*** Psi4 exiting successfully. Buy a developer a beer!
