                               Psi4 1.3.2 release

  ==> Input File <==

--------------------------------------------------------------------------
#psi4
#
memory 32 gb

molecule  {
-2 1
  O       -1.8208210    -1.1386100    -0.2599000
  O        1.8212030    -1.1384070    -0.2594770
  O       -1.8210520     1.1384690    -0.2594170
  O        1.8206700     1.1386730    -0.2598390
  C        0.0000000    -0.0000980     0.8472140
  C       -1.3305530    -0.0000800     0.0222880
  C        1.3305530     0.0000630     0.0222860
  H        0.0000586    -0.9593320     1.3817590
  H       -0.0000540     0.8978890     1.4792400
units angstrom
no_reorient  #important for SAPT in psi4, default
symmetry c1  #important for SAPT in psi4, default
}

set PROPERTIES_ORIGIN ["COM"]
properties('MP2/aug-cc-pvtz', properties = ['dipole'])
--------------------------------------------------------------------------

    Molecular point group: c1
  Charge       = -2
  Multiplicity = 1
  Basis Set: AUG-CC-PVTZ
    Blend: AUG-CC-PVTZ
  Basis Set: (AUG-CC-PVTZ AUX)
    Blend: AUG-CC-PVTZ-JKFIT

    Orbital Energies [Eh]
    ---------------------

    Doubly Occupied:

       1A    -20.164352     2A    -20.164349     3A    -20.163795
       4A    -20.163794     5A    -11.009745     6A    -11.009742
       7A    -10.903851     8A     -1.031779     9A     -1.024241
      10A     -0.929717    11A     -0.927436    12A     -0.657277
      13A     -0.410862    14A     -0.358462    15A     -0.297978
      16A     -0.291196    17A     -0.278277    18A     -0.260039
      19A     -0.216675    20A     -0.203975    21A     -0.201903
      22A     -0.080185    23A     -0.080172    24A     -0.075009
      25A     -0.065405    26A     -0.060308    27A     -0.052293

  @DF-RHF Final Energy:  -414.32142247887390

   => Energetics <=

    Nuclear Repulsion Energy =            271.8056927709698130
    One-Electron Energy =               -1130.0885944459548682
    Two-Electron Energy =                 443.9614791961111564
    Total Energy =                       -414.3214224788738989
  Basis Set: (AUG-CC-PVTZ AUX)
    Blend: AUG-CC-PVTZ-RI
    Molecular point group: c1

    Geometry (in Angstrom), charge = -2, multiplicity = 1:

       Center              X                  Y                   Z               Mass
    ------------   -----------------  -----------------  -----------------  -----------------
         O           -1.820821045453    -1.138008948540    -0.230212323283    15.994914619570
         O            1.821202954547    -1.137805948540    -0.229789323283    15.994914619570
         O           -1.821052045453     1.139070051460    -0.229729323283    15.994914619570
         O            1.820669954547     1.139274051460    -0.230151323283    15.994914619570
         C           -0.000000045453     0.000503051460     0.876901676717    12.000000000000
         C           -1.330553045453     0.000521051460     0.051975676717    12.000000000000
         C            1.330552954547     0.000664051460     0.051973676717    12.000000000000
         H            0.000058554547    -0.958730948540     1.411446676717     1.007825032230
         H           -0.000054045453     0.898490051460     1.508927676717     1.007825032230

  Basis Set: AUG-CC-PVTZ
    Blend: AUG-CC-PVTZ
  Basis Set: (AUG-CC-PVTZ AUX)
    Blend: AUG-CC-PVTZ-JKFIT
	 Reference Energy          =    -414.3214224788738989 [Eh]
	 Singles Energy            =      -0.0000000000000000 [Eh]
	 Same-Spin Energy          =      -0.4080971552105869 [Eh]
	 Opposite-Spin Energy      =      -1.1731956138063881 [Eh]
	 Correlation Energy        =      -1.5812927690169749 [Eh]
	 Total Energy              =    -415.9027152478908533 [Eh]

	 ================> DF-SCS-MP2 Energies <==================
	-----------------------------------------------------------
	 SCS Same-Spin Scale       =       0.3333333333333333 [-]
	 SCS Opposite-Spin Scale   =       1.2000000000000000 [-]
	 SCS Same-Spin Energy      =      -0.1360323850701956 [Eh]
	 SCS Opposite-Spin Energy  =      -1.4078347365676658 [Eh]
	 SCS Correlation Energy    =      -1.5438671216378614 [Eh]
	 SCS Total Energy          =    -415.8652896005117441 [Eh]
	-----------------------------------------------------------

  Dipole Moment: [D]
     X:     0.0000      Y:    -0.0200      Z:     2.7238     Total:     2.7238

*** Psi4 exiting successfully. Buy a developer a beer!
