                               Psi4 1.3.2 release

  ==> Input File <==

--------------------------------------------------------------------------
#psi4
#
memory 32 gb

molecule  {
-2 1
  O       -1.8208210    -1.1386100    -0.2599000
  O        1.8212030    -1.1384070    -0.2594770
  O       -1.8210520     1.1384690    -0.2594170
  O        1.8206700     1.1386730    -0.2598390
  C        0.0000000    -0.0000980     0.8472140
  C       -1.3009530    -0.0000734    -0.0236451
  C        1.3305530     0.0000630     0.0222860
  H        0.0000550    -0.8982020     1.4790980
  H       -0.0000540     0.8978890     1.4792400
units angstrom
no_reorient  #important for SAPT in psi4, default
symmetry c1  #important for SAPT in psi4, default
}

set PROPERTIES_ORIGIN ["COM"]
properties('MP2/aug-cc-pvtz', properties = ['dipole'])
--------------------------------------------------------------------------

    Molecular point group: c1
  Charge       = -2
  Multiplicity = 1
  Basis Set: AUG-CC-PVTZ
    Blend: AUG-CC-PVTZ
  Basis Set: (AUG-CC-PVTZ AUX)
    Blend: AUG-CC-PVTZ-JKFIT

    Orbital Energies [Eh]
    ---------------------

    Doubly Occupied:

       1A    -20.164179     2A    -20.164146     3A    -20.164136
       4A    -20.164102     5A    -11.011214     6A    -11.009683
       7A    -10.905109     8A     -1.031290     9A     -1.023512
      10A     -0.929178    11A     -0.926331    12A     -0.657379
      13A     -0.409307    14A     -0.362698    15A     -0.292919
      16A     -0.290070    17A     -0.284317    18A     -0.259415
      19A     -0.211775    20A     -0.204282    21A     -0.202786
      22A     -0.083643    23A     -0.079988    24A     -0.074975
      25A     -0.065165    26A     -0.059722    27A     -0.050807

  @DF-RHF Final Energy:  -414.32072809568928

   => Energetics <=

    Nuclear Repulsion Energy =            271.7860350969909859
    One-Electron Energy =               -1130.0492719539477093
    Two-Electron Energy =                 443.9425087612674474
    Total Energy =                       -414.3207280956892760
  Basis Set: (AUG-CC-PVTZ AUX)
    Blend: AUG-CC-PVTZ-RI
    Molecular point group: c1

    Geometry (in Angstrom), charge = -2, multiplicity = 1:

       Center              X                  Y                   Z               Mass
    ------------   -----------------  -----------------  -----------------  -----------------
         O           -1.824303522999    -1.138613756203    -0.225769996222    15.994914619570
         O            1.817720477001    -1.138410756203    -0.225346996222    15.994914619570
         O           -1.824534522999     1.138465243797    -0.225286996222    15.994914619570
         O            1.817187477001     1.138669243797    -0.225708996222    15.994914619570
         C           -0.003482522999    -0.000101756203     0.881344003778    12.000000000000
         C           -1.304435522999    -0.000077156203     0.010484903778    12.000000000000
         C            1.327070477001     0.000059243797     0.056416003778    12.000000000000
         H           -0.003427522999    -0.898205756203     1.513228003778     1.007825032230
         H           -0.003536522999     0.897885243797     1.513370003778     1.007825032230

  Basis Set: AUG-CC-PVTZ
    Blend: AUG-CC-PVTZ
  Basis Set: (AUG-CC-PVTZ AUX)
    Blend: AUG-CC-PVTZ-JKFIT
	 Reference Energy          =    -414.3207280956892760 [Eh]
	 Singles Energy            =      -0.0000000000000000 [Eh]
	 Same-Spin Energy          =      -0.4080343648216931 [Eh]
	 Opposite-Spin Energy      =      -1.1733777772111225 [Eh]
	 Correlation Energy        =      -1.5814121420328155 [Eh]
	 Total Energy              =    -415.9021402377221079 [Eh]

	 ================> DF-SCS-MP2 Energies <==================
	-----------------------------------------------------------
	 SCS Same-Spin Scale       =       0.3333333333333333 [-]
	 SCS Opposite-Spin Scale   =       1.2000000000000000 [-]
	 SCS Same-Spin Energy      =      -0.1360114549405644 [Eh]
	 SCS Opposite-Spin Energy  =      -1.4080533326533469 [Eh]
	 SCS Correlation Energy    =      -1.5440647875939113 [Eh]
	 SCS Total Energy          =    -415.8647928832832008 [Eh]
	-----------------------------------------------------------

  Dipole Moment: [D]
     X:     0.0331      Y:    -0.0003      Z:     2.7309     Total:     2.7311

*** Psi4 exiting successfully. Buy a developer a beer!
