                               Psi4 1.4a3.dev225

  ==> Input File <==

--------------------------------------------------------------------------
#psi4
#
memory 32 gb

molecule  {
-2 1
  O       -2.0377940    -0.8677190     0.0023270
  O        1.3654400    -1.2166180    -0.5909880
  O       -1.3654310     1.2166410    -0.5909090
  O        2.0377700     0.8677380     0.0022990
  C        0.0000120    -0.0000340     0.9453410
  C       -1.2498860     0.1249530     0.0492540
  C        1.2498880    -0.1249550     0.0492170
  H       -0.0893595    -0.8733030     1.5660699
  H        0.0910580     0.8894280     1.5776890
units angstrom
no_reorient  #important for SAPT in psi4, default
symmetry c1  #important for SAPT in psi4, default
}

set PROPERTIES_ORIGIN ["COM"]
properties('MP2/aug-cc-pvtz', properties = ['dipole'])
--------------------------------------------------------------------------

    Molecular point group: c1
  Charge       = -2
  Multiplicity = 1
  Basis Set: AUG-CC-PVTZ
    Blend: AUG-CC-PVTZ
  Basis Set: (AUG-CC-PVTZ AUX)
    Blend: AUG-CC-PVTZ-JKFIT

    Orbital Energies [Eh]
    ---------------------

    Doubly Occupied:

       1A    -20.159940     2A    -20.159717     3A    -20.155939
       4A    -20.155688     5A    -11.002602     6A    -11.002588
       7A    -10.898457     8A     -1.029840     9A     -1.019182
      10A     -0.924402    11A     -0.922163    12A     -0.665610
      13A     -0.404830    14A     -0.363373    15A     -0.293635
      16A     -0.289098    17A     -0.286809    18A     -0.253189
      19A     -0.218434    20A     -0.204121    21A     -0.185344
      22A     -0.083898    23A     -0.071968    24A     -0.069376
      25A     -0.059016    26A     -0.054980    27A     -0.049360

  @DF-RHF Final Energy:  -414.32085283994257

   => Energetics <=

    Nuclear Repulsion Energy =            276.7886996492920275
    One-Electron Energy =               -1140.2519912007423954
    Two-Electron Energy =                 449.1424387115077366
    Total Energy =                       -414.3208528399425745
  Basis Set: (AUG-CC-PVTZ AUX)
    Blend: AUG-CC-PVTZ-RI
    Molecular point group: c1

    Geometry (in Angstrom), charge = -2, multiplicity = 1:

       Center              X                  Y                   Z               Mass
    ------------   -----------------  -----------------  -----------------  -----------------
         O           -2.037810077868    -0.867880683565     0.033075926193    15.994914619570
         O            1.365423922132    -1.216779683565    -0.560239073807    15.994914619570
         O           -1.365447077868     1.216479316435    -0.560160073807    15.994914619570
         O            2.037753922132     0.867576316435     0.033047926193    15.994914619570
         C           -0.000004077868    -0.000195683565     0.976089926193    12.000000000000
         C           -1.249902077868     0.124791316435     0.080002926193    12.000000000000
         C            1.249871922132    -0.125116683565     0.079965926193    12.000000000000
         H           -0.089375577868    -0.873464683565     1.596818826193     1.007825032230
         H            0.091041922132     0.889266316435     1.608437926193     1.007825032230

  Basis Set: AUG-CC-PVTZ
    Blend: AUG-CC-PVTZ
  Basis Set: (AUG-CC-PVTZ AUX)
    Blend: AUG-CC-PVTZ-JKFIT
	 Reference Energy          =    -414.3208528399425745 [Eh]
	 Singles Energy            =      -0.0000000000000000 [Eh]
	 Same-Spin Energy          =      -0.4082649963140772 [Eh]
	 Opposite-Spin Energy      =      -1.1729265590744662 [Eh]
	 Correlation Energy        =      -1.5811915553885434 [Eh]
	 Total Energy              =    -415.9020443953311315 [Eh]

	 ================> DF-SCS-MP2 Energies <==================
	-----------------------------------------------------------
	 SCS Same-Spin Scale       =       0.3333333333333333 [-]
	 SCS Opposite-Spin Scale   =       1.2000000000000000 [-]
	 SCS Same-Spin Energy      =      -0.1360883321046924 [Eh]
	 SCS Opposite-Spin Energy  =      -1.4075118708893595 [Eh]
	 SCS Correlation Energy    =      -1.5436002029940519 [Eh]
	 SCS Total Energy          =    -415.8644530429366455 [Eh]
	-----------------------------------------------------------

  Dipole Moment: [D]
     X:    -0.0001      Y:    -0.0120      Z:     3.1134     Total:     3.1135

*** Psi4 exiting successfully. Buy a developer a beer!
