                               Psi4 1.4a3.dev225

  ==> Input File <==

--------------------------------------------------------------------------
#psi4
#
memory 32 gb

molecule  {
-2 1
  O       -2.0377940    -0.8677190     0.0023270
  O        1.3654400    -1.2166180    -0.5909880
  O       -1.3654310     1.2166410    -0.5909090
  O        2.0377700     0.8677380     0.0022990
  C        0.0000120    -0.0000340     0.9453410
  C       -1.2660869     0.1265731     0.0376391
  C        1.2498880    -0.1249550     0.0492170
  H       -0.0910220    -0.8895480     1.5776170
  H        0.0910580     0.8894280     1.5776890
units angstrom
no_reorient  #important for SAPT in psi4, default
symmetry c1  #important for SAPT in psi4, default
}

set PROPERTIES_ORIGIN ["COM"]
properties('MP2/aug-cc-pvtz', properties = ['dipole'])
--------------------------------------------------------------------------

    Molecular point group: c1
  Charge       = -2
  Multiplicity = 1
  Basis Set: AUG-CC-PVTZ
    Blend: AUG-CC-PVTZ
  Basis Set: (AUG-CC-PVTZ AUX)
    Blend: AUG-CC-PVTZ-JKFIT

    Orbital Energies [Eh]
    ---------------------

    Doubly Occupied:

       1A    -20.161101     2A    -20.158690     3A    -20.157161
       4A    -20.154685     5A    -11.002633     6A    -11.001166
       7A    -10.899205     8A     -1.032892     9A     -1.020584
      10A     -0.930613    11A     -0.922004    12A     -0.658484
      13A     -0.402162    14A     -0.361408    15A     -0.290754
      16A     -0.289169    17A     -0.286325    18A     -0.255100
      19A     -0.218672    20A     -0.205877    21A     -0.186389
      22A     -0.083540    23A     -0.072960    24A     -0.069369
      25A     -0.060292    26A     -0.055450    27A     -0.046524

  @DF-RHF Final Energy:  -414.32188484279300

   => Energetics <=

    Nuclear Repulsion Energy =            276.6708817891246213
    One-Electron Energy =               -1140.0191131188616964
    Two-Electron Energy =                 449.0263464869440213
    Total Energy =                       -414.3218848427929970
  Basis Set: (AUG-CC-PVTZ AUX)
    Blend: AUG-CC-PVTZ-RI
    Molecular point group: c1

    Geometry (in Angstrom), charge = -2, multiplicity = 1:

       Center              X                  Y                   Z               Mass
    ------------   -----------------  -----------------  -----------------  -----------------
         O           -2.035887574648    -0.867910773991     0.034328349911    15.994914619570
         O            1.367346425352    -1.216809773991    -0.558986650089    15.994914619570
         O           -1.363524574648     1.216449226009    -0.558907650089    15.994914619570
         O            2.039676425352     0.867546226009     0.034300349911    15.994914619570
         C            0.001918425352    -0.000225773991     0.977342349911    12.000000000000
         C           -1.264180474648     0.126381326009     0.069640449911    12.000000000000
         C            1.251794425352    -0.125146773991     0.081218349911    12.000000000000
         H           -0.089115574648    -0.889739773991     1.609618349911     1.007825032230
         H            0.092964425352     0.889236226009     1.609690349911     1.007825032230

  Basis Set: AUG-CC-PVTZ
    Blend: AUG-CC-PVTZ
  Basis Set: (AUG-CC-PVTZ AUX)
    Blend: AUG-CC-PVTZ-JKFIT
	 Reference Energy          =    -414.3218848427929970 [Eh]
	 Singles Energy            =      -0.0000000000000000 [Eh]
	 Same-Spin Energy          =      -0.4079515765982847 [Eh]
	 Opposite-Spin Energy      =      -1.1723106392571108 [Eh]
	 Correlation Energy        =      -1.5802622158553956 [Eh]
	 Total Energy              =    -415.9021470586483815 [Eh]

	 ================> DF-SCS-MP2 Energies <==================
	-----------------------------------------------------------
	 SCS Same-Spin Scale       =       0.3333333333333333 [-]
	 SCS Opposite-Spin Scale   =       1.2000000000000000 [-]
	 SCS Same-Spin Energy      =      -0.1359838588660949 [Eh]
	 SCS Opposite-Spin Energy  =      -1.4067727671085328 [Eh]
	 SCS Correlation Energy    =      -1.5427566259746277 [Eh]
	 SCS Total Energy          =    -415.8646414687676156 [Eh]
	-----------------------------------------------------------

  Dipole Moment: [D]
     X:    -0.1460      Y:     0.0123      Z:     3.0262     Total:     3.0297

*** Psi4 exiting successfully. Buy a developer a beer!
