                               Psi4 1.3.2 release

  ==> Input File <==

--------------------------------------------------------------------------
#psi4
#
memory 32 gb

molecule  {
-2 1
  O       -1.8208210    -1.1386100    -0.2599000
  O        1.8212030    -1.1384070    -0.2594770
  O       -1.8210520     1.1384690    -0.2594170
  O        1.8206700     1.1386730    -0.2598390
  C        0.0000000    -0.0000980     0.8472140
  C       -1.3568442    -0.0938080     0.0719292
  C        1.3305530     0.0000630     0.0222860
  H        0.0000550    -0.8982020     1.4790980
  H       -0.0000540     0.8978890     1.4792400
units angstrom
no_reorient  #important for SAPT in psi4, default
symmetry c1  #important for SAPT in psi4, default
}

set PROPERTIES_ORIGIN ["COM"]
properties('MP2/aug-cc-pvtz', properties = ['dipole'])
--------------------------------------------------------------------------

    Molecular point group: c1
  Charge       = -2
  Multiplicity = 1
  Basis Set: AUG-CC-PVTZ
    Blend: AUG-CC-PVTZ
  Basis Set: (AUG-CC-PVTZ AUX)
    Blend: AUG-CC-PVTZ-JKFIT

    Orbital Energies [Eh]
    ---------------------

    Doubly Occupied:

       1A    -20.186054     2A    -20.165222     3A    -20.164220
       4A    -20.143918     5A    -11.011718     6A    -11.009312
       7A    -10.905323     8A     -1.062959     9A     -1.028243
      10A     -0.929057    11A     -0.899852    12A     -0.657712
      13A     -0.414773    14A     -0.364274    15A     -0.300267
      16A     -0.292937    17A     -0.285222    18A     -0.259835
      19A     -0.215890    20A     -0.210525    21A     -0.204845
      22A     -0.082923    23A     -0.077969    24A     -0.069729
      25A     -0.064125    26A     -0.054197    27A     -0.047804

  @DF-RHF Final Energy:  -414.30793898299282

   => Energetics <=

    Nuclear Repulsion Energy =            271.5550791457226865
    One-Electron Energy =               -1129.5082246063370803
    Two-Electron Energy =                 443.6452064776216275
    Total Energy =                       -414.3079389829928232
  Basis Set: (AUG-CC-PVTZ AUX)
    Blend: AUG-CC-PVTZ-RI
    Molecular point group: c1

    Geometry (in Angstrom), charge = -2, multiplicity = 1:

       Center              X                  Y                   Z               Mass
    ------------   -----------------  -----------------  -----------------  -----------------
         O           -1.817727785256    -1.127585648969    -0.237014548706    15.994914619570
         O            1.824296214744    -1.127382648969    -0.236591548706    15.994914619570
         O           -1.817958785256     1.149493351031    -0.236531548706    15.994914619570
         O            1.823763214744     1.149697351031    -0.236953548706    15.994914619570
         C            0.003093214744     0.010926351031     0.870099451294    12.000000000000
         C           -1.353750985256    -0.082783648969     0.094814651294    12.000000000000
         C            1.333646214744     0.011087351031     0.045171451294    12.000000000000
         H            0.003148214744    -0.887177648969     1.501983451294     1.007825032230
         H            0.003039214744     0.908913351031     1.502125451294     1.007825032230

  Basis Set: AUG-CC-PVTZ
    Blend: AUG-CC-PVTZ
  Basis Set: (AUG-CC-PVTZ AUX)
    Blend: AUG-CC-PVTZ-JKFIT
	 Reference Energy          =    -414.3079389829928232 [Eh]
	 Singles Energy            =      -0.0000000000000000 [Eh]
	 Same-Spin Energy          =      -0.4081517124244410 [Eh]
	 Opposite-Spin Energy      =      -1.1737566705916587 [Eh]
	 Correlation Energy        =      -1.5819083830160996 [Eh]
	 Total Energy              =    -415.8898473660089508 [Eh]

	 ================> DF-SCS-MP2 Energies <==================
	-----------------------------------------------------------
	 SCS Same-Spin Scale       =       0.3333333333333333 [-]
	 SCS Opposite-Spin Scale   =       1.2000000000000000 [-]
	 SCS Same-Spin Energy      =      -0.1360505708081470 [Eh]
	 SCS Opposite-Spin Energy  =      -1.4085080047099903 [Eh]
	 SCS Correlation Energy    =      -1.5445585755181372 [Eh]
	 SCS Total Energy          =    -415.8524975585109473 [Eh]
	-----------------------------------------------------------

  Dipole Moment: [D]
     X:     0.0396      Y:    -1.0894      Z:     2.7816     Total:     2.9876

*** Psi4 exiting successfully. Buy a developer a beer!
