                               Psi4 1.3.2 release

  ==> Input File <==

--------------------------------------------------------------------------
#psi4
#
memory 32 gb

molecule  {
-2 1
  O       -1.8208210    -1.1386100    -0.2599000
  O        1.8212030    -1.1384070    -0.2594770
  O       -1.8210520     1.1384690    -0.2594170
  O        1.8206700     1.1386730    -0.2598390
  C        0.0000000    -0.0000980     0.8472140
  C       -1.3305530    -0.0000800     0.0222880
  C        1.3305530     0.0000630     0.0222860
  H        0.0000556    -0.9090931     1.4633277
  H       -0.0000540     0.8978890     1.4792400
units angstrom
no_reorient  #important for SAPT in psi4, default
symmetry c1  #important for SAPT in psi4, default
}

set PROPERTIES_ORIGIN ["COM"]
properties('MP2/aug-cc-pvtz', properties = ['dipole'])
--------------------------------------------------------------------------

    Molecular point group: c1
  Charge       = -2
  Multiplicity = 1
  Basis Set: AUG-CC-PVTZ
    Blend: AUG-CC-PVTZ
  Basis Set: (AUG-CC-PVTZ AUX)
    Blend: AUG-CC-PVTZ-JKFIT

    Orbital Energies [Eh]
    ---------------------

    Doubly Occupied:

       1A    -20.164311     2A    -20.164309     3A    -20.164216
       4A    -20.164215     5A    -11.010370     6A    -11.010366
       7A    -10.904525     8A     -1.031837     9A     -1.024363
      10A     -0.929774    11A     -0.927527    12A     -0.657148
      13A     -0.410990    14A     -0.360818    15A     -0.293973
      16A     -0.291235    17A     -0.282162    18A     -0.260134
      19A     -0.212603    20A     -0.204131    21A     -0.203696
      22A     -0.081664    23A     -0.080136    24A     -0.075458
      25A     -0.065355    26A     -0.060306    27A     -0.052501

  @DF-RHF Final Energy:  -414.32243175902659

   => Energetics <=

    Nuclear Repulsion Energy =            271.6813610163083581
    One-Electron Energy =               -1129.8313450505029323
    Two-Electron Energy =                 443.8275522751680455
    Total Energy =                       -414.3224317590265855
  Basis Set: (AUG-CC-PVTZ AUX)
    Blend: AUG-CC-PVTZ-RI
    Molecular point group: c1

    Geometry (in Angstrom), charge = -2, multiplicity = 1:

       Center              X                  Y                   Z               Mass
    ------------   -----------------  -----------------  -----------------  -----------------
         O           -1.820821015810    -1.138505363735    -0.231018311116    15.994914619570
         O            1.821202984190    -1.138302363735    -0.230595311116    15.994914619570
         O           -1.821052015810     1.138573636265    -0.230535311116    15.994914619570
         O            1.820669984190     1.138777636265    -0.230957311116    15.994914619570
         C           -0.000000015810     0.000006636265     0.876095688884    12.000000000000
         C           -1.330553015810     0.000024636265     0.051169688884    12.000000000000
         C            1.330552984190     0.000167636265     0.051167688884    12.000000000000
         H            0.000055584190    -0.908988463735     1.492209388884     1.007825032230
         H           -0.000054015810     0.897993636265     1.508121688884     1.007825032230

  Basis Set: AUG-CC-PVTZ
    Blend: AUG-CC-PVTZ
  Basis Set: (AUG-CC-PVTZ AUX)
    Blend: AUG-CC-PVTZ-JKFIT
	 Reference Energy          =    -414.3224317590265855 [Eh]
	 Singles Energy            =      -0.0000000000000000 [Eh]
	 Same-Spin Energy          =      -0.4079564948733530 [Eh]
	 Opposite-Spin Energy      =      -1.1731399744508253 [Eh]
	 Correlation Energy        =      -1.5810964693241782 [Eh]
	 Total Energy              =    -415.9035282283507513 [Eh]

	 ================> DF-SCS-MP2 Energies <==================
	-----------------------------------------------------------
	 SCS Same-Spin Scale       =       0.3333333333333333 [-]
	 SCS Opposite-Spin Scale   =       1.2000000000000000 [-]
	 SCS Same-Spin Energy      =      -0.1359854982911177 [Eh]
	 SCS Opposite-Spin Energy  =      -1.4077679693409904 [Eh]
	 SCS Correlation Energy    =      -1.5437534676321081 [Eh]
	 SCS Total Energy          =    -415.8661852266586720 [Eh]
	-----------------------------------------------------------

  Dipole Moment: [D]
     X:     0.0000      Y:    -0.0039      Z:     2.7439     Total:     2.7439

*** Psi4 exiting successfully. Buy a developer a beer!
