                               Psi4 1.3.2 release

  ==> Input File <==

--------------------------------------------------------------------------
#psi4
#
memory 32 gb

molecule  {
-2 1
  O       -1.8208210    -1.1386100    -0.2599000
  O        1.8212030    -1.1384070    -0.2594770
  O       -1.8210520     1.1384690    -0.2594170
  O        1.8206700     1.1386730    -0.2598390
  C        0.0000000    -0.0000980     0.8472140
  C       -1.4155438    -0.0000789    -0.0304052
  C        1.3305530     0.0000630     0.0222860
  H        0.0000550    -0.8982020     1.4790980
  H       -0.0000540     0.8978890     1.4792400
units angstrom
no_reorient  #important for SAPT in psi4, default
symmetry c1  #important for SAPT in psi4, default
}

set PROPERTIES_ORIGIN ["COM"]
properties('MP2/aug-cc-pvtz', properties = ['dipole'])
--------------------------------------------------------------------------

    Molecular point group: c1
  Charge       = -2
  Multiplicity = 1
  Basis Set: AUG-CC-PVTZ
    Blend: AUG-CC-PVTZ
  Basis Set: (AUG-CC-PVTZ AUX)
    Blend: AUG-CC-PVTZ-JKFIT

    Orbital Energies [Eh]
    ---------------------

    Doubly Occupied:

       1A    -20.172314     2A    -20.172281     3A    -20.157002
       4A    -20.156969     5A    -11.012233     6A    -11.001240
       7A    -10.892559     8A     -1.056506     9A     -1.020345
      10A     -0.965265    11A     -0.921392    12A     -0.631663
      13A     -0.398172    14A     -0.360039    15A     -0.294325
      16A     -0.293033    17A     -0.278034    18A     -0.266800
      19A     -0.225292    20A     -0.209880    21A     -0.200714
      22A     -0.094705    23A     -0.082904    24A     -0.069755
      25A     -0.067223    26A     -0.057437    27A     -0.032764

  @DF-RHF Final Energy:  -414.31794339564505

   => Energetics <=

    Nuclear Repulsion Energy =            271.5953407469609715
    One-Electron Energy =               -1129.6448760327511991
    Two-Electron Energy =                 443.7315918901451255
    Total Energy =                       -414.3179433956450453
  Basis Set: (AUG-CC-PVTZ AUX)
    Blend: AUG-CC-PVTZ-RI
    Molecular point group: c1

    Geometry (in Angstrom), charge = -2, multiplicity = 1:

       Center              X                  Y                   Z               Mass
    ------------   -----------------  -----------------  -----------------  -----------------
         O           -1.810821632316    -1.138613109114    -0.224974653758    15.994914619570
         O            1.831202367684    -1.138410109114    -0.224551653758    15.994914619570
         O           -1.811052632316     1.138465890886    -0.224491653758    15.994914619570
         O            1.830669367684     1.138669890886    -0.224913653758    15.994914619570
         C            0.009999367684    -0.000101109114     0.882139346242    12.000000000000
         C           -1.405544432316    -0.000082009114     0.004520146242    12.000000000000
         C            1.340552367684     0.000059890886     0.057211346242    12.000000000000
         H            0.010054367684    -0.898205109114     1.514023346242     1.007825032230
         H            0.009945367684     0.897885890886     1.514165346242     1.007825032230

  Basis Set: AUG-CC-PVTZ
    Blend: AUG-CC-PVTZ
  Basis Set: (AUG-CC-PVTZ AUX)
    Blend: AUG-CC-PVTZ-JKFIT
	 Reference Energy          =    -414.3179433956450453 [Eh]
	 Singles Energy            =      -0.0000000000000000 [Eh]
	 Same-Spin Energy          =      -0.4070433191606370 [Eh]
	 Opposite-Spin Energy      =      -1.1706217505202554 [Eh]
	 Correlation Energy        =      -1.5776650696808923 [Eh]
	 Total Energy              =    -415.8956084653259495 [Eh]

	 ================> DF-SCS-MP2 Energies <==================
	-----------------------------------------------------------
	 SCS Same-Spin Scale       =       0.3333333333333333 [-]
	 SCS Opposite-Spin Scale   =       1.2000000000000000 [-]
	 SCS Same-Spin Energy      =      -0.1356811063868790 [Eh]
	 SCS Opposite-Spin Energy  =      -1.4047461006243065 [Eh]
	 SCS Correlation Energy    =      -1.5404272070111855 [Eh]
	 SCS Total Energy          =    -415.8583706026562368 [Eh]
	-----------------------------------------------------------

  Dipole Moment: [D]
     X:    -0.8437      Y:    -0.0002      Z:     2.3913     Total:     2.5358

*** Psi4 exiting successfully. Buy a developer a beer!
