                               Psi4 1.3.2 release

  ==> Input File <==

--------------------------------------------------------------------------
#psi4
#
memory 32 gb

molecule  {
-2 1
  O       -1.8208210    -1.1386100    -0.2599000
  O        1.8212030    -1.1384070    -0.2594770
  O       -1.8210520     1.1384690    -0.2594170
  O        1.8206700     1.1386730    -0.2598390
  C        0.0000000    -0.0000980     0.8472140
  C       -1.3305530    -0.0000800     0.0222880
  C        1.3305530     0.0000630     0.0222860
  H        0.0000450    -0.7346308     1.3640133
  H       -0.0000540     0.8978890     1.4792400
units angstrom
no_reorient  #important for SAPT in psi4, default
symmetry c1  #important for SAPT in psi4, default
}

set PROPERTIES_ORIGIN ["COM"]
properties('MP2/aug-cc-pvtz', properties = ['dipole'])
--------------------------------------------------------------------------

    Molecular point group: c1
  Charge       = -2
  Multiplicity = 1
  Basis Set: AUG-CC-PVTZ
    Blend: AUG-CC-PVTZ
  Basis Set: (AUG-CC-PVTZ AUX)
    Blend: AUG-CC-PVTZ-JKFIT

    Orbital Energies [Eh]
    ---------------------

    Doubly Occupied:

       1A    -20.164490     2A    -20.164487     3A    -20.162219
       4A    -20.162217     5A    -11.008486     6A    -11.008482
       7A    -10.878114     8A     -1.031039     9A     -1.023335
      10A     -0.928826    11A     -0.926537    12A     -0.681065
      13A     -0.409200    14A     -0.374045    15A     -0.309619
      16A     -0.289878    17A     -0.284072    18A     -0.259213
      19A     -0.225012    20A     -0.203670    21A     -0.203137
      22A     -0.080052    23A     -0.079039    24A     -0.076249
      25A     -0.065119    26A     -0.059591    27A     -0.051003

  @DF-RHF Final Energy:  -414.29045643952111

   => Energetics <=

    Nuclear Repulsion Energy =            272.7479006393263603
    One-Electron Energy =               -1131.8603240999084392
    Two-Electron Energy =                 444.8219670210609138
    Total Energy =                       -414.2904564395211082
  Basis Set: (AUG-CC-PVTZ AUX)
    Blend: AUG-CC-PVTZ-RI
    Molecular point group: c1

    Geometry (in Angstrom), charge = -2, multiplicity = 1:

       Center              X                  Y                   Z               Mass
    ------------   -----------------  -----------------  -----------------  -----------------
         O           -1.820820911070    -1.140229241780    -0.230036976388    15.994914619570
         O            1.821203088930    -1.140026241780    -0.229613976388    15.994914619570
         O           -1.821051911070     1.136849758220    -0.229553976388    15.994914619570
         O            1.820670088930     1.137053758220    -0.229975976388    15.994914619570
         C            0.000000088930    -0.001717241780     0.877077023612    12.000000000000
         C           -1.330552911070    -0.001699241780     0.052151023612    12.000000000000
         C            1.330553088930    -0.001556241780     0.052149023612    12.000000000000
         H            0.000045088930    -0.736250041780     1.393876323612     1.007825032230
         H           -0.000053911070     0.896269758220     1.509103023612     1.007825032230

  Basis Set: AUG-CC-PVTZ
    Blend: AUG-CC-PVTZ
  Basis Set: (AUG-CC-PVTZ AUX)
    Blend: AUG-CC-PVTZ-JKFIT
	 Reference Energy          =    -414.2904564395211082 [Eh]
	 Singles Energy            =      -0.0000000000000000 [Eh]
	 Same-Spin Energy          =      -0.4079788557179437 [Eh]
	 Opposite-Spin Energy      =      -1.1726185181137101 [Eh]
	 Correlation Energy        =      -1.5805973738316537 [Eh]
	 Total Energy              =    -415.8710538133527734 [Eh]

	 ================> DF-SCS-MP2 Energies <==================
	-----------------------------------------------------------
	 SCS Same-Spin Scale       =       0.3333333333333333 [-]
	 SCS Opposite-Spin Scale   =       1.2000000000000000 [-]
	 SCS Same-Spin Energy      =      -0.1359929519059812 [Eh]
	 SCS Opposite-Spin Energy  =      -1.4071422217364520 [Eh]
	 SCS Correlation Energy    =      -1.5431351736424332 [Eh]
	 SCS Total Energy          =    -415.8335916131635486 [Eh]
	-----------------------------------------------------------

  Dipole Moment: [D]
     X:     0.0000      Y:    -0.0797      Z:     2.8751     Total:     2.8762

*** Psi4 exiting successfully. Buy a developer a beer!
