                               Psi4 1.3.2 release

  ==> Input File <==

--------------------------------------------------------------------------
#psi4
#
memory 32 gb

molecule  {
-2 1
  O       -1.8208210    -1.1386100    -0.2599000
  O        1.8212030    -1.1384070    -0.2594770
  O       -1.8210520     1.1384690    -0.2594170
  O        1.8206700     1.1386730    -0.2598390
  C        0.0000000    -0.0000980     0.8472140
  C       -1.3377391    -0.0235298     0.0343306
  C        1.3305530     0.0000630     0.0222860
  H        0.0000550    -0.8982020     1.4790980
  H       -0.0000540     0.8978890     1.4792400
units angstrom
no_reorient  #important for SAPT in psi4, default
symmetry c1  #important for SAPT in psi4, default
}

set PROPERTIES_ORIGIN ["COM"]
properties('MP2/aug-cc-pvtz', properties = ['dipole'])
--------------------------------------------------------------------------

    Molecular point group: c1
  Charge       = -2
  Multiplicity = 1
  Basis Set: AUG-CC-PVTZ
    Blend: AUG-CC-PVTZ
  Basis Set: (AUG-CC-PVTZ AUX)
    Blend: AUG-CC-PVTZ-JKFIT

    Orbital Energies [Eh]
    ---------------------

    Doubly Occupied:

       1A    -20.169729     2A    -20.164504     3A    -20.164237
       4A    -20.159088     5A    -11.010750     6A    -11.010367
       7A    -10.904658     8A     -1.033501     9A     -1.025688
      10A     -0.929160    11A     -0.925968    12A     -0.657167
      13A     -0.411611    14A     -0.361265    15A     -0.293326
      16A     -0.291950    17A     -0.282893    18A     -0.260123
      19A     -0.211543    20A     -0.205037    21A     -0.204080
      22A     -0.082347    23A     -0.079652    24A     -0.074851
      25A     -0.065220    26A     -0.060082    27A     -0.052606

  @DF-RHF Final Energy:  -414.32149806901043

   => Energetics <=

    Nuclear Repulsion Energy =            271.6184667477023709
    One-Electron Energy =               -1129.6971223599873611
    Two-Electron Energy =                 443.7571575432746158
    Total Energy =                       -414.3214980690104312
  Basis Set: (AUG-CC-PVTZ AUX)
    Blend: AUG-CC-PVTZ-RI
    Molecular point group: c1

    Geometry (in Angstrom), charge = -2, multiplicity = 1:

       Center              X                  Y                   Z               Mass
    ------------   -----------------  -----------------  -----------------  -----------------
         O           -1.819975547465    -1.135854052801    -0.232590980540    15.994914619570
         O            1.822048452535    -1.135651052801    -0.232167980540    15.994914619570
         O           -1.820206547465     1.141224947199    -0.232107980540    15.994914619570
         O            1.821515452535     1.141428947199    -0.232529980540    15.994914619570
         C            0.000845452535     0.002657947199     0.874523019460    12.000000000000
         C           -1.336893647465    -0.020773852801     0.061639619460    12.000000000000
         C            1.331398452535     0.002818947199     0.049595019460    12.000000000000
         H            0.000900452535    -0.895446052801     1.506407019460     1.007825032230
         H            0.000791452535     0.900644947199     1.506549019460     1.007825032230

  Basis Set: AUG-CC-PVTZ
    Blend: AUG-CC-PVTZ
  Basis Set: (AUG-CC-PVTZ AUX)
    Blend: AUG-CC-PVTZ-JKFIT
	 Reference Energy          =    -414.3214980690104312 [Eh]
	 Singles Energy            =      -0.0000000000000000 [Eh]
	 Same-Spin Energy          =      -0.4079599124414585 [Eh]
	 Opposite-Spin Energy      =      -1.1732004628144841 [Eh]
	 Correlation Energy        =      -1.5811603752559424 [Eh]
	 Total Energy              =    -415.9026584442663648 [Eh]

	 ================> DF-SCS-MP2 Energies <==================
	-----------------------------------------------------------
	 SCS Same-Spin Scale       =       0.3333333333333333 [-]
	 SCS Opposite-Spin Scale   =       1.2000000000000000 [-]
	 SCS Same-Spin Energy      =      -0.1359866374804861 [Eh]
	 SCS Opposite-Spin Energy  =      -1.4078405553773810 [Eh]
	 SCS Correlation Energy    =      -1.5438271928578671 [Eh]
	 SCS Total Energy          =    -415.8653252618682927 [Eh]
	-----------------------------------------------------------

  Dipole Moment: [D]
     X:    -0.0023      Y:    -0.2718      Z:     2.7533     Total:     2.7667

*** Psi4 exiting successfully. Buy a developer a beer!
