                               Psi4 1.3.2 release

  ==> Input File <==

--------------------------------------------------------------------------
#psi4
#
memory 32 gb

molecule  {
-2 1
  O       -1.8208210    -1.1386100    -0.2599000
  O        1.8212030    -1.1384070    -0.2594770
  O       -1.8210520     1.1384690    -0.2594170
  O        1.8206700     1.1386730    -0.2598390
  C        0.0000000    -0.0000980     0.8472140
  C       -1.2977795     0.0936479    -0.0233343
  C        1.3305530     0.0000630     0.0222860
  H        0.0000550    -0.8982020     1.4790980
  H       -0.0000540     0.8978890     1.4792400
units angstrom
no_reorient  #important for SAPT in psi4, default
symmetry c1  #important for SAPT in psi4, default
}

set PROPERTIES_ORIGIN ["COM"]
properties('MP2/aug-cc-pvtz', properties = ['dipole'])
--------------------------------------------------------------------------

    Molecular point group: c1
  Charge       = -2
  Multiplicity = 1
  Basis Set: AUG-CC-PVTZ
    Blend: AUG-CC-PVTZ
  Basis Set: (AUG-CC-PVTZ AUX)
    Blend: AUG-CC-PVTZ-JKFIT

    Orbital Energies [Eh]
    ---------------------

    Doubly Occupied:

       1A    -20.185420     2A    -20.164826     3A    -20.163762
       4A    -20.143215     5A    -11.009851     6A    -11.009806
       7A    -10.905650     8A     -1.061465     9A     -1.027962
      10A     -0.928760    11A     -0.898510    12A     -0.657851
      13A     -0.411172    14A     -0.366159    15A     -0.299859
      16A     -0.292440    17A     -0.287091    18A     -0.258877
      19A     -0.215566    20A     -0.210143    21A     -0.204933
      22A     -0.084710    23A     -0.077980    24A     -0.069394
      25A     -0.063970    26A     -0.053719    27A     -0.044906

  @DF-RHF Final Energy:  -414.30835088536833

   => Energetics <=

    Nuclear Repulsion Energy =            271.9088731175851308
    One-Electron Energy =               -1130.2384525190991553
    Two-Electron Energy =                 444.0212285161456975
    Total Energy =                       -414.3083508853683270
  Basis Set: (AUG-CC-PVTZ AUX)
    Blend: AUG-CC-PVTZ-RI
    Molecular point group: c1

    Geometry (in Angstrom), charge = -2, multiplicity = 1:

       Center              X                  Y                   Z               Mass
    ------------   -----------------  -----------------  -----------------  -----------------
         O           -1.824676893114    -1.149640298659    -0.225806562610    15.994914619570
         O            1.817347106886    -1.149437298659    -0.225383562610    15.994914619570
         O           -1.824907893114     1.127438701341    -0.225323562610    15.994914619570
         O            1.816814106886     1.127642701341    -0.225745562610    15.994914619570
         C           -0.003855893114    -0.011128298659     0.881307437390    12.000000000000
         C           -1.301635393114     0.082617601341     0.010759137390    12.000000000000
         C            1.326697106886    -0.010967298659     0.056379437390    12.000000000000
         H           -0.003800893114    -0.909232298659     1.513191437390     1.007825032230
         H           -0.003909893114     0.886858701341     1.513333437390     1.007825032230

  Basis Set: AUG-CC-PVTZ
    Blend: AUG-CC-PVTZ
  Basis Set: (AUG-CC-PVTZ AUX)
    Blend: AUG-CC-PVTZ-JKFIT
	 Reference Energy          =    -414.3083508853683270 [Eh]
	 Singles Energy            =      -0.0000000000000000 [Eh]
	 Same-Spin Energy          =      -0.4080522272815352 [Eh]
	 Opposite-Spin Energy      =      -1.1735467550376040 [Eh]
	 Correlation Energy        =      -1.5815989823191392 [Eh]
	 Total Energy              =    -415.8899498676874487 [Eh]

	 ================> DF-SCS-MP2 Energies <==================
	-----------------------------------------------------------
	 SCS Same-Spin Scale       =       0.3333333333333333 [-]
	 SCS Opposite-Spin Scale   =       1.2000000000000000 [-]
	 SCS Same-Spin Energy      =      -0.1360174090938450 [Eh]
	 SCS Opposite-Spin Energy  =      -1.4082561060451246 [Eh]
	 SCS Correlation Energy    =      -1.5442735151389697 [Eh]
	 SCS Total Energy          =    -415.8526244005072954 [Eh]
	-----------------------------------------------------------

  Dipole Moment: [D]
     X:     0.0897      Y:     1.0884      Z:     2.7449     Total:     2.9541

*** Psi4 exiting successfully. Buy a developer a beer!
