                               Psi4 1.3.2 release

  ==> Input File <==

--------------------------------------------------------------------------
#psi4
#
memory 32 gb

molecule  {
-2 1
  O       -1.8208210    -1.1386100    -0.2599000
  O        1.8212030    -1.1384070    -0.2594770
  O       -1.8210520     1.1384690    -0.2594170
  O        1.8206700     1.1386730    -0.2598390
  C        0.0000000    -0.0000980     0.8472140
  C       -1.3848558    -0.0000932     0.1171122
  C        1.3305530     0.0000630     0.0222860
  H        0.0000550    -0.8982020     1.4790980
  H       -0.0000540     0.8978890     1.4792400
units angstrom
no_reorient  #important for SAPT in psi4, default
symmetry c1  #important for SAPT in psi4, default
}

set PROPERTIES_ORIGIN ["COM"]
properties('MP2/aug-cc-pvtz', properties = ['dipole'])
--------------------------------------------------------------------------

    Molecular point group: c1
  Charge       = -2
  Multiplicity = 1
  Basis Set: AUG-CC-PVTZ
    Blend: AUG-CC-PVTZ
  Basis Set: (AUG-CC-PVTZ AUX)
    Blend: AUG-CC-PVTZ-JKFIT

    Orbital Energies [Eh]
    ---------------------

    Doubly Occupied:

       1A    -20.165554     2A    -20.165520     3A    -20.165063
       4A    -20.165029     5A    -11.012738     6A    -11.011807
       7A    -10.905587     8A     -1.031295     9A     -1.023676
      10A     -0.929636    11A     -0.925921    12A     -0.657617
      13A     -0.415265    14A     -0.359232    15A     -0.293692
      16A     -0.292475    17A     -0.279079    18A     -0.260067
      19A     -0.210755    20A     -0.204777    21A     -0.202481
      22A     -0.079918    23A     -0.078936    24A     -0.075831
      25A     -0.064791    26A     -0.060156    27A     -0.056330

  @DF-RHF Final Energy:  -414.31502241204925

   => Energetics <=

    Nuclear Repulsion Energy =            271.1340857869463434
    One-Electron Energy =               -1128.7117633875543561
    Two-Electron Energy =                 443.2626551885587673
    Total Energy =                       -414.3150224120492453
  Basis Set: (AUG-CC-PVTZ AUX)
    Blend: AUG-CC-PVTZ-RI
    Molecular point group: c1

    Geometry (in Angstrom), charge = -2, multiplicity = 1:

       Center              X                  Y                   Z               Mass
    ------------   -----------------  -----------------  -----------------  -----------------
         O           -1.814432151322    -1.138611426684    -0.242330440268    15.994914619570
         O            1.827591848678    -1.138408426684    -0.241907440268    15.994914619570
         O           -1.814663151322     1.138467573316    -0.241847440268    15.994914619570
         O            1.827058848678     1.138671573316    -0.242269440268    15.994914619570
         C            0.006388848678    -0.000099426684     0.864783559732    12.000000000000
         C           -1.378466951322    -0.000094626684     0.134681759732    12.000000000000
         C            1.336941848678     0.000061573316     0.039855559732    12.000000000000
         H            0.006443848678    -0.898203426684     1.496667559732     1.007825032230
         H            0.006334848678     0.897887573316     1.496809559732     1.007825032230

  Basis Set: AUG-CC-PVTZ
    Blend: AUG-CC-PVTZ
  Basis Set: (AUG-CC-PVTZ AUX)
    Blend: AUG-CC-PVTZ-JKFIT
	 Reference Energy          =    -414.3150224120492453 [Eh]
	 Singles Energy            =      -0.0000000000000000 [Eh]
	 Same-Spin Energy          =      -0.4085753047058436 [Eh]
	 Opposite-Spin Energy      =      -1.1746788884025927 [Eh]
	 Correlation Energy        =      -1.5832541931084363 [Eh]
	 Total Energy              =    -415.8982766051576618 [Eh]

	 ================> DF-SCS-MP2 Energies <==================
	-----------------------------------------------------------
	 SCS Same-Spin Scale       =       0.3333333333333333 [-]
	 SCS Opposite-Spin Scale   =       1.2000000000000000 [-]
	 SCS Same-Spin Energy      =      -0.1361917682352812 [Eh]
	 SCS Opposite-Spin Energy  =      -1.4096146660831113 [Eh]
	 SCS Correlation Energy    =      -1.5458064343183924 [Eh]
	 SCS Total Energy          =    -415.8608288463676104 [Eh]
	-----------------------------------------------------------

  Dipole Moment: [D]
     X:    -0.0135      Y:    -0.0001      Z:     2.7934     Total:     2.7934

*** Psi4 exiting successfully. Buy a developer a beer!
