                               Psi4 1.3.2 release

  ==> Input File <==

--------------------------------------------------------------------------
#psi4
#
memory 32 gb

molecule  {
-2 1
  O       -1.8208210    -1.1386100    -0.2599000
  O        1.8212030    -1.1384070    -0.2594770
  O       -1.8210520     1.1384690    -0.2594170
  O        1.8206700     1.1386730    -0.2598390
  C        0.0000000    -0.0000980     0.8472140
  C       -1.3305530    -0.0000800     0.0222880
  C        1.3305530     0.0000630     0.0222860
  H        0.0000575    -0.9400923     1.4149102
  H       -0.0000540     0.8978890     1.4792400
units angstrom
no_reorient  #important for SAPT in psi4, default
symmetry c1  #important for SAPT in psi4, default
}

set PROPERTIES_ORIGIN ["COM"]
properties('MP2/aug-cc-pvtz', properties = ['dipole'])
--------------------------------------------------------------------------

    Molecular point group: c1
  Charge       = -2
  Multiplicity = 1
  Basis Set: AUG-CC-PVTZ
    Blend: AUG-CC-PVTZ
  Basis Set: (AUG-CC-PVTZ AUX)
    Blend: AUG-CC-PVTZ-JKFIT

    Orbital Energies [Eh]
    ---------------------

    Doubly Occupied:

       1A    -20.164328     2A    -20.164326     3A    -20.163967
       4A    -20.163965     5A    -11.009991     6A    -11.009987
       7A    -10.904135     8A     -1.031797     9A     -1.024286
      10A     -0.929735    11A     -0.927468    12A     -0.657201
      13A     -0.410910    14A     -0.359364    15A     -0.296325
      16A     -0.291209    17A     -0.279832    18A     -0.260073
      19A     -0.215181    20A     -0.204035    21A     -0.202651
      22A     -0.080687    23A     -0.080158    24A     -0.075294
      25A     -0.065397    26A     -0.060305    27A     -0.052374

  @DF-RHF Final Energy:  -414.32203753842998

   => Energetics <=

    Nuclear Repulsion Energy =            271.7544509655693332
    One-Electron Energy =               -1129.9830179873449651
    Two-Electron Energy =                 443.9065294833457074
    Total Energy =                       -414.3220375384299814
  Basis Set: (AUG-CC-PVTZ AUX)
    Blend: AUG-CC-PVTZ-RI
    Molecular point group: c1

    Geometry (in Angstrom), charge = -2, multiplicity = 1:

       Center              X                  Y                   Z               Mass
    ------------   -----------------  -----------------  -----------------  -----------------
         O           -1.820821034584    -1.138199057787    -0.230539893342    15.994914619570
         O            1.821202965416    -1.137996057787    -0.230116893342    15.994914619570
         O           -1.821052034584     1.138879942213    -0.230056893342    15.994914619570
         O            1.820669965416     1.139083942213    -0.230478893342    15.994914619570
         C           -0.000000034584     0.000312942213     0.876574106658    12.000000000000
         C           -1.330553034584     0.000330942213     0.051648106658    12.000000000000
         C            1.330552965416     0.000473942213     0.051646106658    12.000000000000
         H            0.000057465416    -0.939681357787     1.444270306658     1.007825032230
         H           -0.000054034584     0.898299942213     1.508600106658     1.007825032230

  Basis Set: AUG-CC-PVTZ
    Blend: AUG-CC-PVTZ
  Basis Set: (AUG-CC-PVTZ AUX)
    Blend: AUG-CC-PVTZ-JKFIT
	 Reference Energy          =    -414.3220375384299814 [Eh]
	 Singles Energy            =      -0.0000000000000000 [Eh]
	 Same-Spin Energy          =      -0.4080296753828209 [Eh]
	 Opposite-Spin Energy      =      -1.1731580369642827 [Eh]
	 Correlation Energy        =      -1.5811877123471034 [Eh]
	 Total Energy              =    -415.9032252507770977 [Eh]

	 ================> DF-SCS-MP2 Energies <==================
	-----------------------------------------------------------
	 SCS Same-Spin Scale       =       0.3333333333333333 [-]
	 SCS Opposite-Spin Scale   =       1.2000000000000000 [-]
	 SCS Same-Spin Energy      =      -0.1360098917942736 [Eh]
	 SCS Opposite-Spin Energy  =      -1.4077896443571392 [Eh]
	 SCS Correlation Energy    =      -1.5437995361514127 [Eh]
	 SCS Total Energy          =    -415.8658370745814068 [Eh]
	-----------------------------------------------------------

  Dipole Moment: [D]
     X:     0.0000      Y:    -0.0140      Z:     2.7323     Total:     2.7323

*** Psi4 exiting successfully. Buy a developer a beer!
