                               Psi4 1.3.2 release

  ==> Input File <==

--------------------------------------------------------------------------
#psi4
#
memory 32 gb

molecule  {
-2 1
  O       -1.8208210    -1.1386100    -0.2599000
  O        1.8212030    -1.1384070    -0.2594770
  O       -1.8210520     1.1384690    -0.2594170
  O        1.8206700     1.1386730    -0.2598390
  C        0.0000000    -0.0000980     0.8472140
  C       -1.5005345    -0.0000777    -0.0830984
  C        1.3305530     0.0000630     0.0222860
  H        0.0000550    -0.8982020     1.4790980
  H       -0.0000540     0.8978890     1.4792400
units angstrom
no_reorient  #important for SAPT in psi4, default
symmetry c1  #important for SAPT in psi4, default
}

set PROPERTIES_ORIGIN ["COM"]
properties('MP2/aug-cc-pvtz', properties = ['dipole'])
--------------------------------------------------------------------------

    Molecular point group: c1
  Charge       = -2
  Multiplicity = 1
  Basis Set: AUG-CC-PVTZ
    Blend: AUG-CC-PVTZ
  Basis Set: (AUG-CC-PVTZ AUX)
    Blend: AUG-CC-PVTZ-JKFIT

    Orbital Energies [Eh]
    ---------------------

    Doubly Occupied:

       1A    -20.185923     2A    -20.185889     3A    -20.148472
       4A    -20.148439     5A    -11.021255     6A    -10.990878
       7A    -10.875017     8A     -1.085627     9A     -1.011822
      10A     -1.004841    11A     -0.912983    12A     -0.608707
      13A     -0.393625    14A     -0.359156    15A     -0.310134
      16A     -0.301206    17A     -0.280422    18A     -0.261784
      19A     -0.239649    20A     -0.202503    21A     -0.196248
      22A     -0.112660    23A     -0.102451    24A     -0.059703
      25A     -0.056876    26A     -0.050891    27A     -0.005558

  @DF-RHF Final Energy:  -414.29727479041208

   => Energetics <=

    Nuclear Repulsion Energy =            271.4875508035387384
    One-Electron Energy =               -1129.3442109399911715
    Two-Electron Energy =                 443.5593853460403579
    Total Energy =                       -414.2972747904120752
  Basis Set: (AUG-CC-PVTZ AUX)
    Blend: AUG-CC-PVTZ-RI
    Molecular point group: c1

    Geometry (in Angstrom), charge = -2, multiplicity = 1:

       Center              X                  Y                   Z               Mass
    ------------   -----------------  -----------------  -----------------  -----------------
         O           -1.800822266516    -1.138613250297    -0.218775168615    15.994914619570
         O            1.841201733484    -1.138410250297    -0.218352168615    15.994914619570
         O           -1.801053266516     1.138465749703    -0.218292168615    15.994914619570
         O            1.840668733484     1.138669749703    -0.218714168615    15.994914619570
         C            0.019998733484    -0.000101250297     0.888338831385    12.000000000000
         C           -1.480535766516    -0.000080950297    -0.041973568615    12.000000000000
         C            1.350551733484     0.000059749703     0.063410831385    12.000000000000
         H            0.020053733484    -0.898205250297     1.520222831385     1.007825032230
         H            0.019944733484     0.897885749703     1.520364831385     1.007825032230

  Basis Set: AUG-CC-PVTZ
    Blend: AUG-CC-PVTZ
  Basis Set: (AUG-CC-PVTZ AUX)
    Blend: AUG-CC-PVTZ-JKFIT
	 Reference Energy          =    -414.2972747904120752 [Eh]
	 Singles Energy            =      -0.0000000000000000 [Eh]
	 Same-Spin Energy          =      -0.4073974807545372 [Eh]
	 Opposite-Spin Energy      =      -1.1701081051528890 [Eh]
	 Correlation Energy        =      -1.5775055859074263 [Eh]
	 Total Energy              =    -415.8747803763195066 [Eh]

	 ================> DF-SCS-MP2 Energies <==================
	-----------------------------------------------------------
	 SCS Same-Spin Scale       =       0.3333333333333333 [-]
	 SCS Opposite-Spin Scale   =       1.2000000000000000 [-]
	 SCS Same-Spin Energy      =      -0.1357991602515124 [Eh]
	 SCS Opposite-Spin Energy  =      -1.4041297261834667 [Eh]
	 SCS Correlation Energy    =      -1.5399288864349789 [Eh]
	 SCS Total Energy          =    -415.8372036768470821 [Eh]
	-----------------------------------------------------------

  Dipole Moment: [D]
     X:    -1.8330      Y:    -0.0003      Z:     1.9508     Total:     2.6769

*** Psi4 exiting successfully. Buy a developer a beer!
