                               Psi4 1.3.2 release

  ==> Input File <==

--------------------------------------------------------------------------
#psi4
#
memory 32 gb

molecule  {
-2 1
  O       -1.8208210    -1.1386100    -0.2599000
  O        1.8212030    -1.1384070    -0.2594770
  O       -1.8210520     1.1384690    -0.2594170
  O        1.8206700     1.1386730    -0.2598390
  C        0.0000000    -0.0000980     0.8472140
  C       -1.2790106     0.1403691    -0.0445680
  C        1.3305530     0.0000630     0.0222860
  H        0.0000550    -0.8982020     1.4790980
  H       -0.0000540     0.8978890     1.4792400
units angstrom
no_reorient  #important for SAPT in psi4, default
symmetry c1  #important for SAPT in psi4, default
}

set PROPERTIES_ORIGIN ["COM"]
properties('MP2/aug-cc-pvtz', properties = ['dipole'])
--------------------------------------------------------------------------

    Molecular point group: c1
  Charge       = -2
  Multiplicity = 1
  Basis Set: AUG-CC-PVTZ
    Blend: AUG-CC-PVTZ
  Basis Set: (AUG-CC-PVTZ AUX)
    Blend: AUG-CC-PVTZ-JKFIT

    Orbital Energies [Eh]
    ---------------------

    Doubly Occupied:

       1A    -20.195897     2A    -20.165269     3A    -20.163675
       4A    -20.133287     5A    -11.009776     6A    -11.008963
       7A    -10.906848     8A     -1.089501     9A     -1.028393
      10A     -0.928955    11A     -0.874768    12A     -0.658686
      13A     -0.412982    14A     -0.370572    15A     -0.309550
      16A     -0.292156    17A     -0.289454    18A     -0.259965
      19A     -0.226546    20A     -0.211109    21A     -0.205440
      22A     -0.083077    23A     -0.076870    24A     -0.066818
      25A     -0.061396    26A     -0.045696    27A     -0.037457

  @DF-RHF Final Energy:  -414.29091448580925

   => Energetics <=

    Nuclear Repulsion Energy =            272.0834937139998715
    One-Electron Energy =               -1130.5226049373291062
    Two-Electron Energy =                 444.1481967375200384
    Total Energy =                       -414.2909144858092532
  Basis Set: (AUG-CC-PVTZ AUX)
    Blend: AUG-CC-PVTZ-RI
    Molecular point group: c1

    Geometry (in Angstrom), charge = -2, multiplicity = 1:

       Center              X                  Y                   Z               Mass
    ------------   -----------------  -----------------  -----------------  -----------------
         O           -1.826885100562    -1.155137163251    -0.223308365353    15.994914619570
         O            1.815138899438    -1.154934163251    -0.222885365353    15.994914619570
         O           -1.827116100562     1.121941836749    -0.222825365353    15.994914619570
         O            1.814605899438     1.122145836749    -0.223247365353    15.994914619570
         C           -0.006064100562    -0.016625163251     0.883805634647    12.000000000000
         C           -1.285074700562     0.123841936749    -0.007976365353    12.000000000000
         C            1.324488899438    -0.016464163251     0.058877634647    12.000000000000
         H           -0.006009100562    -0.914729163251     1.515689634647     1.007825032230
         H           -0.006118100562     0.881361836749     1.515831634647     1.007825032230

  Basis Set: AUG-CC-PVTZ
    Blend: AUG-CC-PVTZ
  Basis Set: (AUG-CC-PVTZ AUX)
    Blend: AUG-CC-PVTZ-JKFIT
	 Reference Energy          =    -414.2909144858092532 [Eh]
	 Singles Energy            =      -0.0000000000000000 [Eh]
	 Same-Spin Energy          =      -0.4082566935612216 [Eh]
	 Opposite-Spin Energy      =      -1.1741912513082700 [Eh]
	 Correlation Energy        =      -1.5824479448694915 [Eh]
	 Total Energy              =    -415.8733624306787533 [Eh]

	 ================> DF-SCS-MP2 Energies <==================
	-----------------------------------------------------------
	 SCS Same-Spin Scale       =       0.3333333333333333 [-]
	 SCS Opposite-Spin Scale   =       1.2000000000000000 [-]
	 SCS Same-Spin Energy      =      -0.1360855645204072 [Eh]
	 SCS Opposite-Spin Energy  =      -1.4090295015699239 [Eh]
	 SCS Correlation Energy    =      -1.5451150660903310 [Eh]
	 SCS Total Energy          =    -415.8360295518995713 [Eh]
	-----------------------------------------------------------

  Dipole Moment: [D]
     X:     0.1833      Y:     1.6362      Z:     2.7575     Total:     3.2116

*** Psi4 exiting successfully. Buy a developer a beer!
