                               Psi4 1.3.2 release

  ==> Input File <==

--------------------------------------------------------------------------
#psi4
#
memory 32 gb

molecule  {
-2 1
  O       -1.8208210    -1.1386100    -0.2599000
  O        1.8212030    -1.1384070    -0.2594770
  O       -1.8210520     1.1384690    -0.2594170
  O        1.8206700     1.1386730    -0.2598390
  C        0.0000000    -0.0000980     0.8472140
  C       -1.3447473    -0.0000833     0.0456350
  C        1.3305530     0.0000630     0.0222860
  H        0.0000550    -0.8982020     1.4790980
  H       -0.0000540     0.8978890     1.4792400
units angstrom
no_reorient  #important for SAPT in psi4, default
symmetry c1  #important for SAPT in psi4, default
}

set PROPERTIES_ORIGIN ["COM"]
properties('MP2/aug-cc-pvtz', properties = ['dipole'])
--------------------------------------------------------------------------

    Molecular point group: c1
  Charge       = -2
  Multiplicity = 1
  Basis Set: AUG-CC-PVTZ
    Blend: AUG-CC-PVTZ
  Basis Set: (AUG-CC-PVTZ AUX)
    Blend: AUG-CC-PVTZ-JKFIT

    Orbital Energies [Eh]
    ---------------------

    Doubly Occupied:

       1A    -20.164519     2A    -20.164486     3A    -20.164447
       4A    -20.164413     5A    -11.010982     6A    -11.010484
       7A    -10.904647     8A     -1.031914     9A     -1.024531
      10A     -0.929894    11A     -0.927677    12A     -0.657149
      13A     -0.411977    14A     -0.360731    15A     -0.293365
      16A     -0.291673    17A     -0.282117    18A     -0.260324
      19A     -0.211518    20A     -0.204525    21A     -0.203824
      22A     -0.081230    23A     -0.080142    24A     -0.075625
      25A     -0.065309    26A     -0.060435    27A     -0.053455

  @DF-RHF Final Energy:  -414.32191852303981

   => Energetics <=

    Nuclear Repulsion Energy =            271.5605291606754577
    One-Electron Energy =               -1129.5821097241198459
    Two-Electron Energy =                 443.6996620404045188
    Total Energy =                       -414.3219185230398125
  Basis Set: (AUG-CC-PVTZ AUX)
    Blend: AUG-CC-PVTZ-RI
    Molecular point group: c1

    Geometry (in Angstrom), charge = -2, multiplicity = 1:

       Center              X                  Y                   Z               Mass
    ------------   -----------------  -----------------  -----------------  -----------------
         O           -1.819151015423    -1.138612591444    -0.233920971124    15.994914619570
         O            1.822872984577    -1.138409591444    -0.233497971124    15.994914619570
         O           -1.819382015423     1.138466408556    -0.233437971124    15.994914619570
         O            1.822339984577     1.138670408556    -0.233859971124    15.994914619570
         C            0.001669984577    -0.000100591444     0.873193028876    12.000000000000
         C           -1.343077315423    -0.000085891444     0.071614028876    12.000000000000
         C            1.332222984577     0.000060408556     0.048265028876    12.000000000000
         H            0.001724984577    -0.898204591444     1.505077028876     1.007825032230
         H            0.001615984577     0.897886408556     1.505219028876     1.007825032230

  Basis Set: AUG-CC-PVTZ
    Blend: AUG-CC-PVTZ
  Basis Set: (AUG-CC-PVTZ AUX)
    Blend: AUG-CC-PVTZ-JKFIT
	 Reference Energy          =    -414.3219185230398125 [Eh]
	 Singles Energy            =      -0.0000000000000000 [Eh]
	 Same-Spin Energy          =      -0.4079952276261438 [Eh]
	 Opposite-Spin Energy      =      -1.1732778734529163 [Eh]
	 Correlation Energy        =      -1.5812731010790602 [Eh]
	 Total Energy              =    -415.9031916241188469 [Eh]

	 ================> DF-SCS-MP2 Energies <==================
	-----------------------------------------------------------
	 SCS Same-Spin Scale       =       0.3333333333333333 [-]
	 SCS Opposite-Spin Scale   =       1.2000000000000000 [-]
	 SCS Same-Spin Energy      =      -0.1359984092087146 [Eh]
	 SCS Opposite-Spin Energy  =      -1.4079334481434995 [Eh]
	 SCS Correlation Energy    =      -1.5439318573522141 [Eh]
	 SCS Total Energy          =    -415.8658503803920325 [Eh]
	-----------------------------------------------------------

  Dipole Moment: [D]
     X:    -0.0102      Y:    -0.0002      Z:     2.7577     Total:     2.7577

*** Psi4 exiting successfully. Buy a developer a beer!
