                               Psi4 1.3.2 release

  ==> Input File <==

--------------------------------------------------------------------------
#psi4
#
memory 32 gb

molecule  {
-2 1
  O       -1.8208210    -1.1386100    -0.2599000
  O        1.8212030    -1.1384070    -0.2594770
  O       -1.8210520     1.1384690    -0.2594170
  O        1.8206700     1.1386730    -0.2598390
  C        0.0000000    -0.0000980     0.8472140
  C       -1.3305530    -0.0000800     0.0222880
  C        1.3305530     0.0000630     0.0222860
  H        0.0000650    -1.0617732     1.5941827
  H       -0.0000540     0.8978890     1.4792400
units angstrom
no_reorient  #important for SAPT in psi4, default
symmetry c1  #important for SAPT in psi4, default
}

set PROPERTIES_ORIGIN ["COM"]
properties('MP2/aug-cc-pvtz', properties = ['dipole'])
--------------------------------------------------------------------------

    Molecular point group: c1
  Charge       = -2
  Multiplicity = 1
  Basis Set: AUG-CC-PVTZ
    Blend: AUG-CC-PVTZ
  Basis Set: (AUG-CC-PVTZ AUX)
    Blend: AUG-CC-PVTZ-JKFIT

    Orbital Energies [Eh]
    ---------------------

    Doubly Occupied:

       1A    -20.167739     2A    -20.167738     3A    -20.164996
       4A    -20.164994     5A    -11.014048     6A    -11.014044
       7A    -10.930284     8A     -1.033913     9A     -1.026531
      10A     -0.931776    11A     -0.929565    12A     -0.647149
      13A     -0.414448    14A     -0.358121    15A     -0.293915
      16A     -0.291578    17A     -0.274729    18A     -0.262061
      19A     -0.208363    20A     -0.206217    21A     -0.187253
      22A     -0.084771    23A     -0.082093    24A     -0.075161
      25A     -0.065609    26A     -0.061894    27A     -0.055672

  @DF-RHF Final Energy:  -414.30230368086779

   => Energetics <=

    Nuclear Repulsion Energy =            270.7801848563193516
    One-Electron Energy =               -1127.9356535440110747
    Two-Electron Energy =                 442.8531650068239287
    Total Energy =                       -414.3023036808677944
  Basis Set: (AUG-CC-PVTZ AUX)
    Blend: AUG-CC-PVTZ-RI
    Molecular point group: c1

    Geometry (in Angstrom), charge = -2, multiplicity = 1:

       Center              X                  Y                   Z               Mass
    ------------   -----------------  -----------------  -----------------  -----------------
         O           -1.820821108692    -1.136996717613    -0.232311301416    15.994914619570
         O            1.821202891308    -1.136793717613    -0.231888301416    15.994914619570
         O           -1.821052108692     1.140082282387    -0.231828301416    15.994914619570
         O            1.820669891308     1.140286282387    -0.232250301416    15.994914619570
         C           -0.000000108692     0.001515282387     0.874802698584    12.000000000000
         C           -1.330553108692     0.001533282387     0.049876698584    12.000000000000
         C            1.330552891308     0.001676282387     0.049874698584    12.000000000000
         H            0.000064891308    -1.060159917613     1.621771398584     1.007825032230
         H           -0.000054108692     0.899502282387     1.506828698584     1.007825032230

  Basis Set: AUG-CC-PVTZ
    Blend: AUG-CC-PVTZ
  Basis Set: (AUG-CC-PVTZ AUX)
    Blend: AUG-CC-PVTZ-JKFIT
	 Reference Energy          =    -414.3023036808677944 [Eh]
	 Singles Energy            =      -0.0000000000000000 [Eh]
	 Same-Spin Energy          =      -0.4080284158257631 [Eh]
	 Opposite-Spin Energy      =      -1.1748857754144919 [Eh]
	 Correlation Energy        =      -1.5829141912402549 [Eh]
	 Total Energy              =    -415.8852178721080577 [Eh]

	 ================> DF-SCS-MP2 Energies <==================
	-----------------------------------------------------------
	 SCS Same-Spin Scale       =       0.3333333333333333 [-]
	 SCS Opposite-Spin Scale   =       1.2000000000000000 [-]
	 SCS Same-Spin Energy      =      -0.1360094719419210 [Eh]
	 SCS Opposite-Spin Energy  =      -1.4098629304973902 [Eh]
	 SCS Correlation Energy    =      -1.5458724024393113 [Eh]
	 SCS Total Energy          =    -415.8481760833071235 [Eh]
	-----------------------------------------------------------

  Dipole Moment: [D]
     X:     0.0000      Y:     0.1654      Z:     2.5101     Total:     2.5155

*** Psi4 exiting successfully. Buy a developer a beer!
