                               Psi4 1.3.2 release

  ==> Input File <==

--------------------------------------------------------------------------
#psi4
#
memory 32 gb

molecule  {
-2 1
  O       -1.8208210    -1.1386100    -0.2599000
  O        1.8212030    -1.1384070    -0.2594770
  O       -1.8210520     1.1384690    -0.2594170
  O        1.8206700     1.1386730    -0.2598390
  C        0.0000000    -0.0000980     0.8472140
  C       -1.2455622    -0.0000811     0.0749812
  C        1.3305530     0.0000630     0.0222860
  H        0.0000550    -0.8982020     1.4790980
  H       -0.0000540     0.8978890     1.4792400
units angstrom
no_reorient  #important for SAPT in psi4, default
symmetry c1  #important for SAPT in psi4, default
}

set PROPERTIES_ORIGIN ["COM"]
properties('MP2/aug-cc-pvtz', properties = ['dipole'])
--------------------------------------------------------------------------

    Molecular point group: c1
  Charge       = -2
  Multiplicity = 1
  Basis Set: AUG-CC-PVTZ
    Blend: AUG-CC-PVTZ
  Basis Set: (AUG-CC-PVTZ AUX)
    Blend: AUG-CC-PVTZ-JKFIT

    Orbital Energies [Eh]
    ---------------------

    Doubly Occupied:

       1A    -20.171000     2A    -20.170966     3A    -20.159800
       4A    -20.159767     5A    -11.019433     6A    -11.013438
       7A    -10.911856     8A     -1.035671     9A     -0.999979
      10A     -0.935359    11A     -0.895082    12A     -0.686915
      13A     -0.427793    14A     -0.365644    15A     -0.302111
      16A     -0.295545    17A     -0.282613    18A     -0.256114
      19A     -0.207872    20A     -0.201359    21A     -0.183168
      22A     -0.091601    23A     -0.083343    24A     -0.071806
      25A     -0.064901    26A     -0.058808    27A     -0.049045

  @DF-RHF Final Energy:  -414.30542514263072

   => Energetics <=

    Nuclear Repulsion Energy =            271.7484647075359021
    One-Electron Energy =               -1129.9057991526226488
    Two-Electron Energy =                 443.8519093024559652
    Total Energy =                       -414.3054251426307246
  Basis Set: (AUG-CC-PVTZ AUX)
    Blend: AUG-CC-PVTZ-RI
    Molecular point group: c1

    Geometry (in Angstrom), charge = -2, multiplicity = 1:

       Center              X                  Y                   Z               Mass
    ------------   -----------------  -----------------  -----------------  -----------------
         O           -1.830820387446    -1.138612850279    -0.237373624045    15.994914619570
         O            1.811203612554    -1.138409850279    -0.236950624045    15.994914619570
         O           -1.831051387446     1.138466149721    -0.236890624045    15.994914619570
         O            1.810670612554     1.138670149721    -0.237312624045    15.994914619570
         C           -0.009999387446    -0.000100850279     0.869740375955    12.000000000000
         C           -1.255561587446    -0.000083950279     0.097507575955    12.000000000000
         C            1.320553612554     0.000060149721     0.044812375955    12.000000000000
         H           -0.009944387446    -0.898204850279     1.501624375955     1.007825032230
         H           -0.010053387446     0.897886149721     1.501766375955     1.007825032230

  Basis Set: AUG-CC-PVTZ
    Blend: AUG-CC-PVTZ
  Basis Set: (AUG-CC-PVTZ AUX)
    Blend: AUG-CC-PVTZ-JKFIT
	 Reference Energy          =    -414.3054251426307246 [Eh]
	 Singles Energy            =      -0.0000000000000000 [Eh]
	 Same-Spin Energy          =      -0.4101831993646464 [Eh]
	 Opposite-Spin Energy      =      -1.1779334498072045 [Eh]
	 Correlation Energy        =      -1.5881166491718508 [Eh]
	 Total Energy              =    -415.8935417918025905 [Eh]

	 ================> DF-SCS-MP2 Energies <==================
	-----------------------------------------------------------
	 SCS Same-Spin Scale       =       0.3333333333333333 [-]
	 SCS Opposite-Spin Scale   =       1.2000000000000000 [-]
	 SCS Same-Spin Energy      =      -0.1367277331215488 [Eh]
	 SCS Opposite-Spin Energy  =      -1.4135201397686454 [Eh]
	 SCS Correlation Energy    =      -1.5502478728901943 [Eh]
	 SCS Total Energy          =    -415.8556730155208925 [Eh]
	-----------------------------------------------------------

  Dipole Moment: [D]
     X:     0.7318      Y:    -0.0002      Z:     3.0353     Total:     3.1223

*** Psi4 exiting successfully. Buy a developer a beer!
