                               Psi4 1.3.2 release

  ==> Input File <==

--------------------------------------------------------------------------
#psi4
#
memory 32 gb

molecule  {
-2 1
  O       -1.8208210    -1.1386100    -0.2599000
  O        1.8212030    -1.1384070    -0.2594770
  O       -1.8210520     1.1384690    -0.2594170
  O        1.8206700     1.1386730    -0.2598390
  C        0.0000000    -0.0000980     0.8472140
  C       -1.3305530    -0.0000800     0.0222880
  C        1.3305530     0.0000630     0.0222860
  H        0.0000600    -0.9799876     1.5366403
  H       -0.0000540     0.8978890     1.4792400
units angstrom
no_reorient  #important for SAPT in psi4, default
symmetry c1  #important for SAPT in psi4, default
}

set PROPERTIES_ORIGIN ["COM"]
properties('MP2/aug-cc-pvtz', properties = ['dipole'])
--------------------------------------------------------------------------

    Molecular point group: c1
  Charge       = -2
  Multiplicity = 1
  Basis Set: AUG-CC-PVTZ
    Blend: AUG-CC-PVTZ
  Basis Set: (AUG-CC-PVTZ AUX)
    Blend: AUG-CC-PVTZ-JKFIT

    Orbital Energies [Eh]
    ---------------------

    Doubly Occupied:

       1A    -20.165836     2A    -20.165835     3A    -20.164513
       4A    -20.164511     5A    -11.012068     6A    -11.012064
       7A    -10.917704     8A     -1.032709     9A     -1.025303
      10A     -0.930635    11A     -0.928411    12A     -0.650721
      13A     -0.412510    14A     -0.358896    15A     -0.292398
      16A     -0.290777    17A     -0.278981    18A     -0.260969
      19A     -0.207643    20A     -0.205041    21A     -0.198607
      22A     -0.083317    23A     -0.080985    24A     -0.075232
      25A     -0.065504    26A     -0.060972    27A     -0.053907

  @DF-RHF Final Energy:  -414.31567445333400

   => Energetics <=

    Nuclear Repulsion Energy =            271.1985120341720972
    One-Electron Energy =               -1128.8362778961234199
    Two-Electron Energy =                 443.3220914086172684
    Total Energy =                       -414.3156744533339975
  Basis Set: (AUG-CC-PVTZ AUX)
    Blend: AUG-CC-PVTZ-RI
    Molecular point group: c1

    Geometry (in Angstrom), charge = -2, multiplicity = 1:

       Center              X                  Y                   Z               Mass
    ------------   -----------------  -----------------  -----------------  -----------------
         O           -1.820821059287    -1.137804848655    -0.231742719665    15.994914619570
         O            1.821202940713    -1.137601848655    -0.231319719665    15.994914619570
         O           -1.821052059287     1.139274151345    -0.231259719665    15.994914619570
         O            1.820669940713     1.139478151345    -0.231681719665    15.994914619570
         C           -0.000000059287     0.000707151345     0.875371280335    12.000000000000
         C           -1.330553059287     0.000725151345     0.050445280335    12.000000000000
         C            1.330552940713     0.000868151345     0.050443280335    12.000000000000
         H            0.000059940713    -0.979182448655     1.564797580335     1.007825032230
         H           -0.000054059287     0.898694151345     1.507397280335     1.007825032230

  Basis Set: AUG-CC-PVTZ
    Blend: AUG-CC-PVTZ
  Basis Set: (AUG-CC-PVTZ AUX)
    Blend: AUG-CC-PVTZ-JKFIT
	 Reference Energy          =    -414.3156744533339975 [Eh]
	 Singles Energy            =      -0.0000000000000000 [Eh]
	 Same-Spin Energy          =      -0.4079830323738831 [Eh]
	 Opposite-Spin Energy      =      -1.1739142200667811 [Eh]
	 Correlation Energy        =      -1.5818972524406643 [Eh]
	 Total Energy              =    -415.8975717057746806 [Eh]

	 ================> DF-SCS-MP2 Energies <==================
	-----------------------------------------------------------
	 SCS Same-Spin Scale       =       0.3333333333333333 [-]
	 SCS Opposite-Spin Scale   =       1.2000000000000000 [-]
	 SCS Same-Spin Energy      =      -0.1359943441246277 [Eh]
	 SCS Opposite-Spin Energy  =      -1.4086970640801373 [Eh]
	 SCS Correlation Energy    =      -1.5446914082047649 [Eh]
	 SCS Total Energy          =    -415.8603658615387531 [Eh]
	-----------------------------------------------------------

  Dipole Moment: [D]
     X:     0.0000      Y:     0.0707      Z:     2.6436     Total:     2.6446

*** Psi4 exiting successfully. Buy a developer a beer!
