                               Psi4 1.3.2 release

  ==> Input File <==

--------------------------------------------------------------------------
#psi4
#
memory 32 gb

molecule  {
-2 1
  O       -1.8208210    -1.1386100    -0.2599000
  O        1.8212030    -1.1384070    -0.2594770
  O       -1.8210520     1.1384690    -0.2594170
  O        1.8206700     1.1386730    -0.2598390
  C        0.0000000    -0.0000980     0.8472140
  C       -1.3585320    -0.0000866     0.0692262
  C        1.3305530     0.0000630     0.0222860
  H        0.0000550    -0.8982020     1.4790980
  H       -0.0000540     0.8978890     1.4792400
units angstrom
no_reorient  #important for SAPT in psi4, default
symmetry c1  #important for SAPT in psi4, default
}

set PROPERTIES_ORIGIN ["COM"]
properties('MP2/aug-cc-pvtz', properties = ['dipole'])
--------------------------------------------------------------------------

    Molecular point group: c1
  Charge       = -2
  Multiplicity = 1
  Basis Set: AUG-CC-PVTZ
    Blend: AUG-CC-PVTZ
  Basis Set: (AUG-CC-PVTZ AUX)
    Blend: AUG-CC-PVTZ-JKFIT

    Orbital Energies [Eh]
    ---------------------

    Doubly Occupied:

       1A    -20.164791     2A    -20.164758     3A    -20.164614
       4A    -20.164580     5A    -11.011518     6A    -11.010701
       7A    -10.904805     8A     -1.031811     9A     -1.024487
      10A     -0.929794    11A     -0.927553    12A     -0.657228
      13A     -0.413006    14A     -0.360185    15A     -0.293487
      16A     -0.292011    17A     -0.281210    18A     -0.260362
      19A     -0.211325    20A     -0.204721    21A     -0.203525
      22A     -0.080448    23A     -0.080107    24A     -0.075740
      25A     -0.065201    26A     -0.060464    27A     -0.054391

  @DF-RHF Final Energy:  -414.32051742674543

   => Energetics <=

    Nuclear Repulsion Energy =            271.4406192309667745
    One-Electron Energy =               -1129.3366288928182257
    Two-Electron Energy =                 443.5754922351059690
    Total Energy =                       -414.3205174267454254
  Basis Set: (AUG-CC-PVTZ AUX)
    Blend: AUG-CC-PVTZ-RI
    Molecular point group: c1

    Geometry (in Angstrom), charge = -2, multiplicity = 1:

       Center              X                  Y                   Z               Mass
    ------------   -----------------  -----------------  -----------------  -----------------
         O           -1.817529211417    -1.138612203190    -0.236696534079    15.994914619570
         O            1.824494788583    -1.138409203190    -0.236273534079    15.994914619570
         O           -1.817760211417     1.138466796810    -0.236213534079    15.994914619570
         O            1.823961788583     1.138670796810    -0.236635534079    15.994914619570
         C            0.003291788583    -0.000100203190     0.870417465921    12.000000000000
         C           -1.355240211417    -0.000088803190     0.092429665921    12.000000000000
         C            1.333844788583     0.000060796810     0.045489465921    12.000000000000
         H            0.003346788583    -0.898204203190     1.502301465921     1.007825032230
         H            0.003237788583     0.897886796810     1.502443465921     1.007825032230

  Basis Set: AUG-CC-PVTZ
    Blend: AUG-CC-PVTZ
  Basis Set: (AUG-CC-PVTZ AUX)
    Blend: AUG-CC-PVTZ-JKFIT
	 Reference Energy          =    -414.3205174267454254 [Eh]
	 Singles Energy            =      -0.0000000000000000 [Eh]
	 Same-Spin Energy          =      -0.4081197565408484 [Eh]
	 Opposite-Spin Energy      =      -1.1735777394068527 [Eh]
	 Correlation Energy        =      -1.5816974959477013 [Eh]
	 Total Energy              =    -415.9022149226931333 [Eh]

	 ================> DF-SCS-MP2 Energies <==================
	-----------------------------------------------------------
	 SCS Same-Spin Scale       =       0.3333333333333333 [-]
	 SCS Opposite-Spin Scale   =       1.2000000000000000 [-]
	 SCS Same-Spin Energy      =      -0.1360399188469495 [Eh]
	 SCS Opposite-Spin Energy  =      -1.4082932872882232 [Eh]
	 SCS Correlation Energy    =      -1.5443332061351727 [Eh]
	 SCS Total Energy          =    -415.8648506328805752 [Eh]
	-----------------------------------------------------------

  Dipole Moment: [D]
     X:    -0.0160      Y:    -0.0001      Z:     2.7689     Total:     2.7690

*** Psi4 exiting successfully. Buy a developer a beer!
