                               Psi4 1.4a3.dev225

  ==> Input File <==

--------------------------------------------------------------------------
#psi4
#
memory 32 gb

molecule  {
-2 1
  O       -2.0377940    -0.8677190     0.0023270
  O        1.3654400    -1.2166180    -0.5909880
  O       -1.3654310     1.2166410    -0.5909090
  O        2.0377700     0.8677380     0.0022990
  C        0.0000120    -0.0000340     0.9453410
  C       -1.2498860     0.1249530     0.0492540
  C        1.2498880    -0.1249550     0.0492170
  H       -0.0926845    -0.9057930     1.5891641
  H        0.0910580     0.8894280     1.5776890
units angstrom
no_reorient  #important for SAPT in psi4, default
symmetry c1  #important for SAPT in psi4, default
}

set PROPERTIES_ORIGIN ["COM"]
properties('MP2/aug-cc-pvtz', properties = ['dipole'])
--------------------------------------------------------------------------

    Molecular point group: c1
  Charge       = -2
  Multiplicity = 1
  Basis Set: AUG-CC-PVTZ
    Blend: AUG-CC-PVTZ
  Basis Set: (AUG-CC-PVTZ AUX)
    Blend: AUG-CC-PVTZ-JKFIT

    Orbital Energies [Eh]
    ---------------------

    Doubly Occupied:

       1A    -20.160214     2A    -20.159988     3A    -20.156301
       4A    -20.156046     5A    -11.003165     6A    -11.003149
       7A    -10.903820     8A     -1.030144     9A     -1.019511
      10A     -0.924712    11A     -0.922479    12A     -0.662593
      13A     -0.405373    14A     -0.361510    15A     -0.291356
      16A     -0.288246    17A     -0.287225    18A     -0.253406
      19A     -0.216718    20A     -0.203859    21A     -0.184661
      22A     -0.084358    23A     -0.071947    24A     -0.069725
      25A     -0.059188    26A     -0.055229    27A     -0.049805

  @DF-RHF Final Energy:  -414.32029130666103

   => Energetics <=

    Nuclear Repulsion Energy =            276.5918479981450560
    One-Electron Energy =               -1139.8548218109567642
    Two-Electron Energy =                 448.9426825061506179
    Total Energy =                       -414.3202913066610336
  Basis Set: (AUG-CC-PVTZ AUX)
    Blend: AUG-CC-PVTZ-RI
    Molecular point group: c1

    Geometry (in Angstrom), charge = -2, multiplicity = 1:

       Center              X                  Y                   Z               Mass
    ------------   -----------------  -----------------  -----------------  -----------------
         O           -2.037777223237    -0.867559646884     0.032847730277    15.994914619570
         O            1.365456776763    -1.216458646884    -0.560467269723    15.994914619570
         O           -1.365414223237     1.216800353116    -0.560388269723    15.994914619570
         O            2.037786776763     0.867897353116     0.032819730277    15.994914619570
         C            0.000028776763     0.000125353116     0.975861730277    12.000000000000
         C           -1.249869223237     0.125112353116     0.079774730277    12.000000000000
         C            1.249904776763    -0.124795646884     0.079737730277    12.000000000000
         H           -0.092667723237    -0.905633646884     1.619684830277     1.007825032230
         H            0.091074776763     0.889587353116     1.608209730277     1.007825032230

  Basis Set: AUG-CC-PVTZ
    Blend: AUG-CC-PVTZ
  Basis Set: (AUG-CC-PVTZ AUX)
    Blend: AUG-CC-PVTZ-JKFIT
	 Reference Energy          =    -414.3202913066610336 [Eh]
	 Singles Energy            =      -0.0000000000000000 [Eh]
	 Same-Spin Energy          =      -0.4082743162686130 [Eh]
	 Opposite-Spin Energy      =      -1.1731839273381728 [Eh]
	 Correlation Energy        =      -1.5814582436067859 [Eh]
	 Total Energy              =    -415.9017495502678230 [Eh]

	 ================> DF-SCS-MP2 Energies <==================
	-----------------------------------------------------------
	 SCS Same-Spin Scale       =       0.3333333333333333 [-]
	 SCS Opposite-Spin Scale   =       1.2000000000000000 [-]
	 SCS Same-Spin Energy      =      -0.1360914387562043 [Eh]
	 SCS Opposite-Spin Energy  =      -1.4078207128058073 [Eh]
	 SCS Correlation Energy    =      -1.5439121515620116 [Eh]
	 SCS Total Energy          =    -415.8642034582230735 [Eh]
	-----------------------------------------------------------

  Dipole Moment: [D]
     X:     0.0002      Y:     0.0128      Z:     3.0754     Total:     3.0754

*** Psi4 exiting successfully. Buy a developer a beer!
