                               Psi4 1.3.2 release

  ==> Input File <==

--------------------------------------------------------------------------
#psi4
#
memory 32 gb

molecule  {
-2 1
  O       -1.8208210    -1.1386100    -0.2599000
  O        1.8212030    -1.1384070    -0.2594770
  O       -1.8210520     1.1384690    -0.2594170
  O        1.8206700     1.1386730    -0.2598390
  C        0.0000000    -0.0000980     0.8472140
  C       -1.2370358    -0.0000604    -0.1122736
  C        1.3305530     0.0000630     0.0222860
  H        0.0000550    -0.8982020     1.4790980
  H       -0.0000540     0.8978890     1.4792400
units angstrom
no_reorient  #important for SAPT in psi4, default
symmetry c1  #important for SAPT in psi4, default
}

set PROPERTIES_ORIGIN ["COM"]
properties('MP2/aug-cc-pvtz', properties = ['dipole'])
--------------------------------------------------------------------------

    Molecular point group: c1
  Charge       = -2
  Multiplicity = 1
  Basis Set: AUG-CC-PVTZ
    Blend: AUG-CC-PVTZ
  Basis Set: (AUG-CC-PVTZ AUX)
    Blend: AUG-CC-PVTZ-JKFIT

    Orbital Energies [Eh]
    ---------------------

    Doubly Occupied:

       1A    -20.164658     2A    -20.164623     3A    -20.164323
       4A    -20.164289     5A    -11.015304     6A    -11.008671
       7A    -10.907768     8A     -1.030041     9A     -1.017802
      10A     -0.929021    11A     -0.917702    12A     -0.658739
      13A     -0.406743    14A     -0.366194    15A     -0.292334
      16A     -0.286842    17A     -0.285732    18A     -0.256267
      19A     -0.211196    20A     -0.204487    21A     -0.197235
      22A     -0.086901    23A     -0.079463    24A     -0.073367
      25A     -0.064603    26A     -0.056566    27A     -0.047658

  @DF-RHF Final Energy:  -414.30637498784688

   => Energetics <=

    Nuclear Repulsion Energy =            271.7849027951956487
    One-Electron Energy =               -1130.0654927918731119
    Two-Electron Energy =                 443.9742150088305834
    Total Energy =                       -414.3063749878468798
  Basis Set: (AUG-CC-PVTZ AUX)
    Blend: AUG-CC-PVTZ-RI
    Molecular point group: c1

    Geometry (in Angstrom), charge = -2, multiplicity = 1:

       Center              X                  Y                   Z               Mass
    ------------   -----------------  -----------------  -----------------  -----------------
         O           -1.831823539468    -1.138615285685    -0.215342634266    15.994914619570
         O            1.810200460532    -1.138412285685    -0.214919634266    15.994914619570
         O           -1.832054539468     1.138463714315    -0.214859634266    15.994914619570
         O            1.809667460532     1.138667714315    -0.215281634266    15.994914619570
         C           -0.011002539468    -0.000103285685     0.891771365734    12.000000000000
         C           -1.248038339468    -0.000065685685    -0.067716234266    12.000000000000
         C            1.319550460532     0.000057714315     0.066843365734    12.000000000000
         H           -0.010947539468    -0.898207285685     1.523655365734     1.007825032230
         H           -0.011056539468     0.897883714315     1.523797365734     1.007825032230

  Basis Set: AUG-CC-PVTZ
    Blend: AUG-CC-PVTZ
  Basis Set: (AUG-CC-PVTZ AUX)
    Blend: AUG-CC-PVTZ-JKFIT
	 Reference Energy          =    -414.3063749878468798 [Eh]
	 Singles Energy            =      -0.0000000000000000 [Eh]
	 Same-Spin Energy          =      -0.4090443778761213 [Eh]
	 Opposite-Spin Energy      =      -1.1758769235375006 [Eh]
	 Correlation Energy        =      -1.5849213014136219 [Eh]
	 Total Energy              =    -415.8912962892604810 [Eh]

	 ================> DF-SCS-MP2 Energies <==================
	-----------------------------------------------------------
	 SCS Same-Spin Scale       =       0.3333333333333333 [-]
	 SCS Opposite-Spin Scale   =       1.2000000000000000 [-]
	 SCS Same-Spin Energy      =      -0.1363481259587071 [Eh]
	 SCS Opposite-Spin Energy  =      -1.4110523082450006 [Eh]
	 SCS Correlation Energy    =      -1.5474004342037078 [Eh]
	 SCS Total Energy          =    -415.8537754220506031 [Eh]
	-----------------------------------------------------------

  Dipole Moment: [D]
     X:     0.1404      Y:    -0.0004      Z:     2.7189     Total:     2.7226

*** Psi4 exiting successfully. Buy a developer a beer!
