                               Psi4 1.3.2 release

  ==> Input File <==

--------------------------------------------------------------------------
#psi4
#
memory 32 gb

molecule  {
-2 1
  O       -1.8208210    -1.1386100    -0.2599000
  O        1.8212030    -1.1384070    -0.2594770
  O       -1.8210520     1.1384690    -0.2594170
  O        1.8206700     1.1386730    -0.2598390
  C        0.0000000    -0.0000980     0.8472140
  C       -1.3675176    -0.1405293     0.0981821
  C        1.3305530     0.0000630     0.0222860
  H        0.0000550    -0.8982020     1.4790980
  H       -0.0000540     0.8978890     1.4792400
units angstrom
no_reorient  #important for SAPT in psi4, default
symmetry c1  #important for SAPT in psi4, default
}

set PROPERTIES_ORIGIN ["COM"]
properties('MP2/aug-cc-pvtz', properties = ['dipole'])
--------------------------------------------------------------------------

    Molecular point group: c1
  Charge       = -2
  Multiplicity = 1
  Basis Set: AUG-CC-PVTZ
    Blend: AUG-CC-PVTZ
  Basis Set: (AUG-CC-PVTZ AUX)
    Blend: AUG-CC-PVTZ-JKFIT

    Orbital Energies [Eh]
    ---------------------

    Doubly Occupied:

       1A    -20.196823     2A    -20.165804     3A    -20.164362
       4A    -20.134351     5A    -11.012540     6A    -11.008279
       7A    -10.906339     8A     -1.092012     9A     -1.028746
      10A     -0.929373    11A     -0.876569    12A     -0.658508
      13A     -0.418004    14A     -0.368900    15A     -0.308781
      16A     -0.292838    17A     -0.287766    18A     -0.261351
      19A     -0.227176    20A     -0.211088    21A     -0.205344
      22A     -0.081378    23A     -0.076617    24A     -0.067208
      25A     -0.062320    26A     -0.045914    27A     -0.040939

  @DF-RHF Final Energy:  -414.28995276531560

   => Energetics <=

    Nuclear Repulsion Energy =            271.5537840513640617
    One-Electron Energy =               -1129.4288151383068453
    Two-Electron Energy =                 443.5850783216271225
    Total Energy =                       -414.2899527653156042
  Basis Set: (AUG-CC-PVTZ AUX)
    Blend: AUG-CC-PVTZ-RI
    Molecular point group: c1

    Geometry (in Angstrom), charge = -2, multiplicity = 1:

       Center              X                  Y                   Z               Mass
    ------------   -----------------  -----------------  -----------------  -----------------
         O           -1.816472033381    -1.122088772612    -0.240103267241    15.994914619570
         O            1.825551966619    -1.121885772612    -0.239680267241    15.994914619570
         O           -1.816703033381     1.154990227388    -0.239620267241    15.994914619570
         O            1.825018966619     1.155194227388    -0.240042267241    15.994914619570
         C            0.004348966619     0.016423227388     0.867010732759    12.000000000000
         C           -1.363168633381    -0.124008072612     0.117978832759    12.000000000000
         C            1.334901966619     0.016584227388     0.042082732759    12.000000000000
         H            0.004403966619    -0.881680772612     1.498894732759     1.007825032230
         H            0.004294966619     0.914410227388     1.499036732759     1.007825032230

  Basis Set: AUG-CC-PVTZ
    Blend: AUG-CC-PVTZ
  Basis Set: (AUG-CC-PVTZ AUX)
    Blend: AUG-CC-PVTZ-JKFIT
	 Reference Energy          =    -414.2899527653156042 [Eh]
	 Singles Energy            =      -0.0000000000000000 [Eh]
	 Same-Spin Energy          =      -0.4084267935601434 [Eh]
	 Opposite-Spin Energy      =      -1.1745124507773044 [Eh]
	 Correlation Energy        =      -1.5829392443374477 [Eh]
	 Total Energy              =    -415.8728920096530715 [Eh]

	 ================> DF-SCS-MP2 Energies <==================
	-----------------------------------------------------------
	 SCS Same-Spin Scale       =       0.3333333333333333 [-]
	 SCS Opposite-Spin Scale   =       1.2000000000000000 [-]
	 SCS Same-Spin Energy      =      -0.1361422645200478 [Eh]
	 SCS Opposite-Spin Energy  =      -1.4094149409327652 [Eh]
	 SCS Correlation Energy    =      -1.5455572054528131 [Eh]
	 SCS Total Energy          =    -415.8355099707684417 [Eh]
	-----------------------------------------------------------

  Dipole Moment: [D]
     X:     0.1096      Y:    -1.6382      Z:     2.8082     Total:     3.2530

*** Psi4 exiting successfully. Buy a developer a beer!
