                               Psi4 1.3.2 release

  ==> Input File <==

--------------------------------------------------------------------------
#psi4
#
memory 32 gb

molecule  {
-2 1
  O       -1.8208210    -1.1386100    -0.2599000
  O        1.8212030    -1.1384070    -0.2594770
  O       -1.8210520     1.1384690    -0.2594170
  O        1.8206700     1.1386730    -0.2598390
  C        0.0000000    -0.0000980     0.8472140
  C       -1.3305530    -0.0000800     0.0222880
  C        1.3305530     0.0000630     0.0222860
  H        0.0000522    -0.8519363     1.5402073
  H       -0.0000540     0.8978890     1.4792400
units angstrom
no_reorient  #important for SAPT in psi4, default
symmetry c1  #important for SAPT in psi4, default
}

set PROPERTIES_ORIGIN ["COM"]
properties('MP2/aug-cc-pvtz', properties = ['dipole'])
--------------------------------------------------------------------------

    Molecular point group: c1
  Charge       = -2
  Multiplicity = 1
  Basis Set: AUG-CC-PVTZ
    Blend: AUG-CC-PVTZ
  Basis Set: (AUG-CC-PVTZ AUX)
    Blend: AUG-CC-PVTZ-JKFIT

    Orbital Energies [Eh]
    ---------------------

    Doubly Occupied:

       1A    -20.164621     2A    -20.164619     3A    -20.164310
       4A    -20.164308     5A    -11.011022     6A    -11.011019
       7A    -10.905082     8A     -1.031931     9A     -1.024511
      10A     -0.929863    11A     -0.927644    12A     -0.657234
      13A     -0.411134    14A     -0.363514    15A     -0.291293
      16A     -0.290519    17A     -0.285872    18A     -0.260255
      19A     -0.207587    20A     -0.205086    21A     -0.204302
      22A     -0.083546    23A     -0.080133    24A     -0.075311
      25A     -0.065215    26A     -0.060315    27A     -0.052727

  @DF-RHF Final Energy:  -414.32168039889365

   => Energetics <=

    Nuclear Repulsion Energy =            271.5697402922666015
    One-Electron Energy =               -1129.5968910234735176
    Two-Electron Energy =                 443.7054703323132685
    Total Energy =                       -414.3216803988936476
  Basis Set: (AUG-CC-PVTZ AUX)
    Blend: AUG-CC-PVTZ-RI
    Molecular point group: c1

    Geometry (in Angstrom), charge = -2, multiplicity = 1:

       Center              X                  Y                   Z               Mass
    ------------   -----------------  -----------------  -----------------  -----------------
         O           -1.820820982214    -1.139070135337    -0.231777965520    15.994914619570
         O            1.821203017786    -1.138867135337    -0.231354965520    15.994914619570
         O           -1.821051982214     1.138008864663    -0.231294965520    15.994914619570
         O            1.820670017786     1.138212864663    -0.231716965520    15.994914619570
         C            0.000000017786    -0.000558135337     0.875336034480    12.000000000000
         C           -1.330552982214    -0.000540135337     0.050410034480    12.000000000000
         C            1.330553017786    -0.000397135337     0.050408034480    12.000000000000
         H            0.000052217786    -0.852396435337     1.568329334480     1.007825032230
         H           -0.000053982214     0.897428864663     1.507362034480     1.007825032230

  Basis Set: AUG-CC-PVTZ
    Blend: AUG-CC-PVTZ
  Basis Set: (AUG-CC-PVTZ AUX)
    Blend: AUG-CC-PVTZ-JKFIT
	 Reference Energy          =    -414.3216803988936476 [Eh]
	 Singles Energy            =      -0.0000000000000000 [Eh]
	 Same-Spin Energy          =      -0.4079087691195943 [Eh]
	 Opposite-Spin Energy      =      -1.1732162893825027 [Eh]
	 Correlation Energy        =      -1.5811250585020971 [Eh]
	 Total Energy              =    -415.9028054573957434 [Eh]

	 ================> DF-SCS-MP2 Energies <==================
	-----------------------------------------------------------
	 SCS Same-Spin Scale       =       0.3333333333333333 [-]
	 SCS Opposite-Spin Scale   =       1.2000000000000000 [-]
	 SCS Same-Spin Energy      =      -0.1359695897065314 [Eh]
	 SCS Opposite-Spin Energy  =      -1.4078595472590032 [Eh]
	 SCS Correlation Energy    =      -1.5438291369655346 [Eh]
	 SCS Total Energy          =    -415.8655095358591893 [Eh]
	-----------------------------------------------------------

  Dipole Moment: [D]
     X:     0.0000      Y:     0.0162      Z:     2.7604     Total:     2.7605

*** Psi4 exiting successfully. Buy a developer a beer!
