                               Psi4 1.4a2.dev612

  ==> Input File <==

--------------------------------------------------------------------------
#psi4
#
memory 32 gb

molecule  {
0 1
  O       -0.0649480    -2.0007500    -0.4572220
  N        2.4573690    -1.4749290     0.4038410
  C        0.8099710     0.2105070    -0.2160820
  C        2.1525410    -0.1743900     0.0797160
  C       -0.2789970    -0.7898520    -0.2615780
  C       -1.6728058    -0.3738943     0.1380168
  C        0.5343510     1.5458860    -0.5628900
  C        3.1364470     0.8361460     0.1179860
  C        1.5277130     2.5174420    -0.5614560
  C        2.8303350     2.1515420    -0.2122750
  C       -2.0336590     0.6403590     0.8794580
  C       -2.7013800    -1.0161980    -0.7629970
  C       -3.3755740     0.9555500     1.0975090
  C       -4.0377320    -0.6802290    -0.5577760
  C        3.8275740    -1.9241930     0.5318010
  C       -4.3779170     0.3056950     0.3735650
  H       -0.4794410     1.8136050    -0.8470490
  H        4.1617050     0.5791300     0.3641360
  H        1.7801010    -2.1461120     0.0568400
  H        1.2958720     3.5406330    -0.8437660
  H        3.6204230     2.8995150    -0.1925990
  H       -1.2541740     1.1373190     1.4511930
  H       -2.4205700    -1.7983260    -1.4636490
  H       -3.6394530     1.7093650     1.8355280
  H       -4.8171580    -1.1915530    -1.1177270
  H        4.4331860    -1.7182640    -0.3623870
  H        3.8136890    -3.0019290     0.7024740
  H        4.3131750    -1.4541550     1.3926990
  H       -5.4217990     0.5615290     0.5392290
units angstrom
no_reorient  #important for SAPT in psi4, default
symmetry c1  #important for SAPT in psi4, default
}

set PROPERTIES_ORIGIN ["COM"]
properties('MP2/aug-cc-pvtz', properties = ['dipole'])
--------------------------------------------------------------------------

    Molecular point group: c1
  Charge       = 0
  Multiplicity = 1
  Basis Set: AUG-CC-PVTZ
    Blend: AUG-CC-PVTZ
  Basis Set: (AUG-CC-PVTZ AUX)
    Blend: AUG-CC-PVTZ-JKFIT

    Orbital Energies [Eh]
    ---------------------

    Doubly Occupied:

       1A    -20.541271     2A    -15.562044     3A    -11.342435
       4A    -11.297526     5A    -11.257276     6A    -11.256392
       7A    -11.252988     8A    -11.252565     9A    -11.250442
      10A    -11.249907    11A    -11.244864    12A    -11.242761
      13A    -11.239798    14A    -11.239033    15A    -11.229159
      16A    -11.226069    17A     -1.373402    18A     -1.244607
      19A     -1.165651    20A     -1.142116    21A     -1.059574
      22A     -1.028822    23A     -1.013597    24A     -1.010249
      25A     -0.929404    26A     -0.888002    27A     -0.842057
      28A     -0.836258    29A     -0.808920    30A     -0.770853
      31A     -0.717424    32A     -0.701837    33A     -0.685348
      34A     -0.657071    35A     -0.644007    36A     -0.634031
      37A     -0.617791    38A     -0.615394    39A     -0.612404
      40A     -0.600500    41A     -0.590110    42A     -0.578097
      43A     -0.544961    44A     -0.542444    45A     -0.530943
      46A     -0.520967    47A     -0.514842    48A     -0.504780
      49A     -0.495936    50A     -0.482210    51A     -0.429606
      52A     -0.416392    53A     -0.362184    54A     -0.348187
      55A     -0.331713    56A     -0.292288

  @DF-RHF Final Energy:  -667.23972026804199

   => Energetics <=

    Nuclear Repulsion Energy =           1002.3071471132782335
    One-Electron Energy =               -2895.5547089158235394
    Two-Electron Energy =                1226.0078415345033136
    Total Energy =                       -667.2397202680419923
  Basis Set: (AUG-CC-PVTZ AUX)
    Blend: AUG-CC-PVTZ-RI
    Molecular point group: c1

    Geometry (in Angstrom), charge = 0, multiplicity = 1:

       Center              X                  Y                   Z               Mass
    ------------   -----------------  -----------------  -----------------  -----------------
         O           -0.040741367483    -1.994758155030    -0.461317403323    15.994914619570
         N            2.481575632517    -1.468937155030     0.399745596677    14.003074004430
         C            0.834177632517     0.216498844970    -0.220177403323    12.000000000000
         C            2.176747632517    -0.168398155030     0.075620596677    12.000000000000
         C           -0.254790367483    -0.783860155030    -0.265673403323    12.000000000000
         C           -1.648599167483    -0.367902455030     0.133921396677    12.000000000000
         C            0.558557632517     1.551877844970    -0.566985403323    12.000000000000
         C            3.160653632517     0.842137844970     0.113890596677    12.000000000000
         C            1.551919632517     2.523433844970    -0.565551403323    12.000000000000
         C            2.854541632517     2.157533844970    -0.216370403323    12.000000000000
         C           -2.009452367483     0.646350844970     0.875362596677    12.000000000000
         C           -2.677173367483    -1.010206155030    -0.767092403323    12.000000000000
         C           -3.351367367483     0.961541844970     1.093413596677    12.000000000000
         C           -4.013525367483    -0.674237155030    -0.561871403323    12.000000000000
         C            3.851780632517    -1.918201155030     0.527705596677    12.000000000000
         C           -4.353710367483     0.311686844970     0.369469596677    12.000000000000
         H           -0.455234367483     1.819596844970    -0.851144403323     1.007825032230
         H            4.185911632517     0.585121844970     0.360040596677     1.007825032230
         H            1.804307632517    -2.140120155030     0.052744596677     1.007825032230
         H            1.320078632517     3.546624844970    -0.847861403323     1.007825032230
         H            3.644629632517     2.905506844970    -0.196694403323     1.007825032230
         H           -1.229967367483     1.143310844970     1.447097596677     1.007825032230
         H           -2.396363367483    -1.792334155030    -1.467744403323     1.007825032230
         H           -3.615246367483     1.715356844970     1.831432596677     1.007825032230
         H           -4.792951367483    -1.185561155030    -1.121822403323     1.007825032230
         H            4.457392632517    -1.712272155030    -0.366482403323     1.007825032230
         H            3.837895632517    -2.995937155030     0.698378596677     1.007825032230
         H            4.337381632517    -1.448163155030     1.388603596677     1.007825032230
         H           -5.397592367483     0.567520844970     0.535133596677     1.007825032230

  Basis Set: AUG-CC-PVTZ
    Blend: AUG-CC-PVTZ
  Basis Set: (AUG-CC-PVTZ AUX)
    Blend: AUG-CC-PVTZ-JKFIT
	 Reference Energy          =    -667.2397202680419923 [Eh]
	 Singles Energy            =      -0.0000000000000000 [Eh]
	 Same-Spin Energy          =      -0.7343718413055509 [Eh]
	 Opposite-Spin Energy      =      -2.2665520128134755 [Eh]
	 Correlation Energy        =      -3.0009238541190264 [Eh]
	 Total Energy              =    -670.2406441221610294 [Eh]

	 ================> DF-SCS-MP2 Energies <==================
	-----------------------------------------------------------
	 SCS Same-Spin Scale       =       0.3333333333333333 [-]
	 SCS Opposite-Spin Scale   =       1.2000000000000000 [-]
	 SCS Same-Spin Energy      =      -0.2447906137685170 [Eh]
	 SCS Opposite-Spin Energy  =      -2.7198624153761704 [Eh]
	 SCS Correlation Energy    =      -2.9646530291446873 [Eh]
	 SCS Total Energy          =    -670.2043732971866348 [Eh]
	-----------------------------------------------------------

  Dipole Moment: [D]
     X:     0.3133      Y:     1.2047      Z:     0.3338     Total:     1.2887

*** Psi4 exiting successfully. Buy a developer a beer!
