                               Psi4 1.4a2.dev612

  ==> Input File <==

--------------------------------------------------------------------------
#psi4
#
memory 32 gb

molecule  {
0 1
  O       -0.0649480    -2.0007500    -0.4572220
  N        2.4573690    -1.4749290     0.4038410
  C        0.8099710     0.2105070    -0.2160820
  C        2.1525410    -0.1743900     0.0797160
  C       -0.2789970    -0.7898520    -0.2615780
  C       -1.6915990    -0.3449750    -0.0589870
  C        0.5343510     1.5458860    -0.5628900
  C        3.1364470     0.8361460     0.1179860
  C        1.5277130     2.5174420    -0.5614560
  C        2.8303350     2.1515420    -0.2122750
  C       -2.0336590     0.6403590     0.8794580
  C       -2.7186007    -1.1529473    -0.6180727
  C       -3.3755740     0.9555500     1.0975090
  C       -4.0377320    -0.6802290    -0.5577760
  C        3.8275740    -1.9241930     0.5318010
  C       -4.3779170     0.3056950     0.3735650
  H       -0.4794410     1.8136050    -0.8470490
  H        4.1617050     0.5791300     0.3641360
  H        1.7801010    -2.1461120     0.0568400
  H        1.2958720     3.5406330    -0.8437660
  H        3.6204230     2.8995150    -0.1925990
  H       -1.2541740     1.1373190     1.4511930
  H       -2.4205700    -1.7983260    -1.4636490
  H       -3.6394530     1.7093650     1.8355280
  H       -4.8171580    -1.1915530    -1.1177270
  H        4.4331860    -1.7182640    -0.3623870
  H        3.8136890    -3.0019290     0.7024740
  H        4.3131750    -1.4541550     1.3926990
  H       -5.4217990     0.5615290     0.5392290
units angstrom
no_reorient  #important for SAPT in psi4, default
symmetry c1  #important for SAPT in psi4, default
}

set PROPERTIES_ORIGIN ["COM"]
properties('MP2/aug-cc-pvtz', properties = ['dipole'])
--------------------------------------------------------------------------

    Molecular point group: c1
  Charge       = 0
  Multiplicity = 1
  Basis Set: AUG-CC-PVTZ
    Blend: AUG-CC-PVTZ
  Basis Set: (AUG-CC-PVTZ AUX)
    Blend: AUG-CC-PVTZ-JKFIT

    Orbital Energies [Eh]
    ---------------------

    Doubly Occupied:

       1A    -20.538174     2A    -15.561614     3A    -11.339457
       4A    -11.297033     5A    -11.256882     6A    -11.252620
       7A    -11.252591     8A    -11.252491     9A    -11.251541
      10A    -11.250907    11A    -11.250686    12A    -11.246277
      13A    -11.245983    14A    -11.238533    15A    -11.228782
      16A    -11.225832    17A     -1.371477    18A     -1.244139
      19A     -1.162335    20A     -1.141924    21A     -1.055754
      22A     -1.023651    23A     -1.020670    24A     -1.009870
      25A     -0.929228    26A     -0.888480    27A     -0.844035
      28A     -0.833552    29A     -0.807312    30A     -0.770370
      31A     -0.716886    32A     -0.701058    33A     -0.682495
      34A     -0.655389    35A     -0.644216    36A     -0.631387
      37A     -0.618272    38A     -0.615052    39A     -0.606835
      40A     -0.599236    41A     -0.594070    42A     -0.577359
      43A     -0.545695    44A     -0.542067    45A     -0.530134
      46A     -0.520363    47A     -0.509576    48A     -0.503415
      49A     -0.499716    50A     -0.485401    51A     -0.429151
      52A     -0.419060    53A     -0.349991    54A     -0.344535
      55A     -0.342546    56A     -0.291776

  @DF-RHF Final Energy:  -667.24975367782486

   => Energetics <=

    Nuclear Repulsion Energy =           1001.9502015804546318
    One-Electron Energy =               -2894.9041409001429201
    Two-Electron Energy =                1225.7041856418634325
    Total Energy =                       -667.2497536778248559
  Basis Set: (AUG-CC-PVTZ AUX)
    Blend: AUG-CC-PVTZ-RI
    Molecular point group: c1

    Geometry (in Angstrom), charge = 0, multiplicity = 1:

       Center              X                  Y                   Z               Mass
    ------------   -----------------  -----------------  -----------------  -----------------
         O           -0.038694151067    -1.988628539905    -0.458356935077    15.994914619570
         N            2.483622848933    -1.462807539905     0.402706064923    14.003074004430
         C            0.836224848933     0.222628460095    -0.217216935077    12.000000000000
         C            2.178794848933    -0.162268539905     0.078581064923    12.000000000000
         C           -0.252743151067    -0.777730539905    -0.262712935077    12.000000000000
         C           -1.665345151067    -0.332853539905    -0.060121935077    12.000000000000
         C            0.560604848933     1.558007460095    -0.564024935077    12.000000000000
         C            3.162700848933     0.848267460095     0.116851064923    12.000000000000
         C            1.553966848933     2.529563460095    -0.562590935077    12.000000000000
         C            2.856588848933     2.163663460095    -0.213409935077    12.000000000000
         C           -2.007405151067     0.652480460095     0.878323064923    12.000000000000
         C           -2.692346851067    -1.140825839905    -0.619207635077    12.000000000000
         C           -3.349320151067     0.967671460095     1.096374064923    12.000000000000
         C           -4.011478151067    -0.668107539905    -0.558910935077    12.000000000000
         C            3.853827848933    -1.912071539905     0.530666064923    12.000000000000
         C           -4.351663151067     0.317816460095     0.372430064923    12.000000000000
         H           -0.453187151067     1.825726460095    -0.848183935077     1.007825032230
         H            4.187958848933     0.591251460095     0.363001064923     1.007825032230
         H            1.806354848933    -2.133990539905     0.055705064923     1.007825032230
         H            1.322125848933     3.552754460095    -0.844900935077     1.007825032230
         H            3.646676848933     2.911636460095    -0.193733935077     1.007825032230
         H           -1.227920151067     1.149440460095     1.450058064923     1.007825032230
         H           -2.394316151067    -1.786204539905    -1.464783935077     1.007825032230
         H           -3.613199151067     1.721486460095     1.834393064923     1.007825032230
         H           -4.790904151067    -1.179431539905    -1.118861935077     1.007825032230
         H            4.459439848933    -1.706142539905    -0.363521935077     1.007825032230
         H            3.839942848933    -2.989807539905     0.701339064923     1.007825032230
         H            4.339428848933    -1.442033539905     1.391564064923     1.007825032230
         H           -5.395545151067     0.573650460095     0.538094064923     1.007825032230

  Basis Set: AUG-CC-PVTZ
    Blend: AUG-CC-PVTZ
  Basis Set: (AUG-CC-PVTZ AUX)
    Blend: AUG-CC-PVTZ-JKFIT
	 Reference Energy          =    -667.2497536778248559 [Eh]
	 Singles Energy            =      -0.0000000000000000 [Eh]
	 Same-Spin Energy          =      -0.7353566239175995 [Eh]
	 Opposite-Spin Energy      =      -2.2672498292420671 [Eh]
	 Correlation Energy        =      -3.0026064531596663 [Eh]
	 Total Energy              =    -670.2523601309844707 [Eh]

	 ================> DF-SCS-MP2 Energies <==================
	-----------------------------------------------------------
	 SCS Same-Spin Scale       =       0.3333333333333333 [-]
	 SCS Opposite-Spin Scale   =       1.2000000000000000 [-]
	 SCS Same-Spin Energy      =      -0.2451188746391998 [Eh]
	 SCS Opposite-Spin Energy  =      -2.7206997950904803 [Eh]
	 SCS Correlation Energy    =      -2.9658186697296802 [Eh]
	 SCS Total Energy          =    -670.2155723475544846 [Eh]
	-----------------------------------------------------------

  Dipole Moment: [D]
     X:     0.2563      Y:     1.3114      Z:     0.3261     Total:     1.3754

*** Psi4 exiting successfully. Buy a developer a beer!
