                               Psi4 1.4a2.dev612

  ==> Input File <==

--------------------------------------------------------------------------
#psi4
#
memory 32 gb

molecule  {
0 1
  O       -0.0649480    -2.0007500    -0.4572220
  N        2.4573690    -1.4749290     0.4038410
  C        0.8099710     0.2105070    -0.2160820
  C        2.1525410    -0.1743900     0.0797160
  C       -0.2789970    -0.7898520    -0.2615780
  C       -1.6915990    -0.3449750    -0.0589870
  C        0.5343510     1.5458860    -0.5628900
  C        3.1364470     0.8361460     0.1179860
  C        1.5277130     2.5174420    -0.5614560
  C        2.8303350     2.1515420    -0.2122750
  C       -2.0336590     0.6403590     0.8794580
  C       -2.7013800    -1.0161980    -0.7629970
  C       -3.3755740     0.9555500     1.0975090
  C       -4.0377320    -0.6802290    -0.5577760
  C        3.8275740    -1.9241930     0.5318010
  C       -4.3779170     0.3056950     0.3735650
  H       -0.4794410     1.8136050    -0.8470490
  H        4.1617050     0.5791300     0.3641360
  H        1.7801010    -2.1461120     0.0568400
  H        1.2958720     3.5406330    -0.8437660
  H        3.6204230     2.8995150    -0.1925990
  H       -1.2541740     1.1373190     1.4511930
  H       -2.4205700    -1.7983260    -1.4636490
  H       -3.6394530     1.7093650     1.8355280
  H       -4.8171580    -1.1915530    -1.1177270
  H        4.4331860    -1.7182640    -0.3623870
  H        3.8136890    -3.0019290     0.7024740
  H        4.3131750    -1.4541550     1.3926990
  H       -5.4217990     0.5615290     0.5392290
units angstrom
no_reorient  #important for SAPT in psi4, default
symmetry c1  #important for SAPT in psi4, default
}

set PROPERTIES_ORIGIN ["COM"]
properties('MP2/aug-cc-pvtz', properties = ['dipole'])
--------------------------------------------------------------------------

    Molecular point group: c1
  Charge       = 0
  Multiplicity = 1
  Basis Set: AUG-CC-PVTZ
    Blend: AUG-CC-PVTZ
  Basis Set: (AUG-CC-PVTZ AUX)
    Blend: AUG-CC-PVTZ-JKFIT

    Orbital Energies [Eh]
    ---------------------

    Doubly Occupied:

       1A    -20.539730     2A    -15.561923     3A    -11.340140
       4A    -11.297253     5A    -11.257103     6A    -11.252676
       7A    -11.252627     8A    -11.251400     9A    -11.250230
      10A    -11.249323    11A    -11.247021    12A    -11.244962
      13A    -11.243544    14A    -11.238602    15A    -11.228905
      16A    -11.225906    17A     -1.372498    18A     -1.244417
      19A     -1.163516    20A     -1.142074    21A     -1.056107
      22A     -1.025533    23A     -1.020644    24A     -1.010004
      25A     -0.929458    26A     -0.888753    27A     -0.845179
      28A     -0.834572    29A     -0.807547    30A     -0.771541
      31A     -0.717979    32A     -0.701537    33A     -0.683506
      34A     -0.655838    35A     -0.645005    36A     -0.633351
      37A     -0.619253    38A     -0.615235    39A     -0.608080
      40A     -0.601505    41A     -0.596066    42A     -0.577656
      43A     -0.545126    44A     -0.542244    45A     -0.530872
      46A     -0.520262    47A     -0.512843    48A     -0.503931
      49A     -0.501259    50A     -0.486517    51A     -0.429362
      52A     -0.419059    53A     -0.350512    54A     -0.345151
      55A     -0.343233    56A     -0.292103

  @DF-RHF Final Energy:  -667.26292349012851

   => Energetics <=

    Nuclear Repulsion Energy =           1002.5127861894751504
    One-Electron Energy =               -2896.0100745846257269
    Two-Electron Energy =                1226.2343649050219483
    Total Energy =                       -667.2629234901285145
  Basis Set: (AUG-CC-PVTZ AUX)
    Blend: AUG-CC-PVTZ-RI
    Molecular point group: c1

    Geometry (in Angstrom), charge = 0, multiplicity = 1:

       Center              X                  Y                   Z               Mass
    ------------   -----------------  -----------------  -----------------  -----------------
         O           -0.039673064757    -1.996402077673    -0.450118688011    15.994914619570
         N            2.482643935243    -1.470581077673     0.410944311989    14.003074004430
         C            0.835245935243     0.214854922327    -0.208978688011    12.000000000000
         C            2.177815935243    -0.170042077673     0.086819311989    12.000000000000
         C           -0.253722064757    -0.785504077673    -0.254474688011    12.000000000000
         C           -1.666324064757    -0.340627077673    -0.051883688011    12.000000000000
         C            0.559625935243     1.550233922327    -0.555786688011    12.000000000000
         C            3.161721935243     0.840493922327     0.125089311989    12.000000000000
         C            1.552987935243     2.521789922327    -0.554352688011    12.000000000000
         C            2.855609935243     2.155889922327    -0.205171688011    12.000000000000
         C           -2.008384064757     0.644706922327     0.886561311989    12.000000000000
         C           -2.676105064757    -1.011850077673    -0.755893688011    12.000000000000
         C           -3.350299064757     0.959897922327     1.104612311989    12.000000000000
         C           -4.012457064757    -0.675881077673    -0.550672688011    12.000000000000
         C            3.852848935243    -1.919845077673     0.538904311989    12.000000000000
         C           -4.352642064757     0.310042922327     0.380668311989    12.000000000000
         H           -0.454166064757     1.817952922327    -0.839945688011     1.007825032230
         H            4.186979935243     0.583477922327     0.371239311989     1.007825032230
         H            1.805375935243    -2.141764077673     0.063943311989     1.007825032230
         H            1.321146935243     3.544980922327    -0.836662688011     1.007825032230
         H            3.645697935243     2.903862922327    -0.185495688011     1.007825032230
         H           -1.228899064757     1.141666922327     1.458296311989     1.007825032230
         H           -2.395295064757    -1.793978077673    -1.456545688011     1.007825032230
         H           -3.614178064757     1.713712922327     1.842631311989     1.007825032230
         H           -4.791883064757    -1.187205077673    -1.110623688011     1.007825032230
         H            4.458460935243    -1.713916077673    -0.355283688011     1.007825032230
         H            3.838963935243    -2.997581077673     0.709577311989     1.007825032230
         H            4.338449935243    -1.449807077673     1.399802311989     1.007825032230
         H           -5.396524064757     0.565876922327     0.546332311989     1.007825032230

  Basis Set: AUG-CC-PVTZ
    Blend: AUG-CC-PVTZ
  Basis Set: (AUG-CC-PVTZ AUX)
    Blend: AUG-CC-PVTZ-JKFIT
	 Reference Energy          =    -667.2629234901285145 [Eh]
	 Singles Energy            =      -0.0000000000000000 [Eh]
	 Same-Spin Energy          =      -0.7346007580648524 [Eh]
	 Opposite-Spin Energy      =      -2.2652717822776904 [Eh]
	 Correlation Energy        =      -2.9998725403425430 [Eh]
	 Total Energy              =    -670.2627960304710086 [Eh]

	 ================> DF-SCS-MP2 Energies <==================
	-----------------------------------------------------------
	 SCS Same-Spin Scale       =       0.3333333333333333 [-]
	 SCS Opposite-Spin Scale   =       1.2000000000000000 [-]
	 SCS Same-Spin Energy      =      -0.2448669193549508 [Eh]
	 SCS Opposite-Spin Energy  =      -2.7183261387332283 [Eh]
	 SCS Correlation Energy    =      -2.9631930580881791 [Eh]
	 SCS Total Energy          =    -670.2261165482167371 [Eh]
	-----------------------------------------------------------

  Dipole Moment: [D]
     X:     0.3213      Y:     1.2032      Z:     0.3456     Total:     1.2924

*** Psi4 exiting successfully. Buy a developer a beer!
