                               Psi4 1.4a2.dev612

  ==> Input File <==

--------------------------------------------------------------------------
#psi4
#
memory 32 gb

molecule  {
0 1
  O       -0.0649480    -2.0007500    -0.4572220
  N        2.4573690    -1.4749290     0.4038410
  C        0.8099710     0.2105070    -0.2160820
  C        2.1525410    -0.1743900     0.0797160
  C       -0.2789970    -0.7898520    -0.2615780
  C       -1.6915990    -0.3449750    -0.0589870
  C        0.5343510     1.5458860    -0.5628900
  C        3.1364470     0.8361460     0.1179860
  C        1.5277130     2.5174420    -0.5614560
  C        2.8303350     2.1515420    -0.2122750
  C       -2.0336590     0.6403590     0.8794580
  C       -2.7013800    -1.0161980    -0.7629970
  C       -3.3755740     0.9555500     1.0975090
  C       -4.0377320    -0.6802290    -0.5577760
  C        3.8275740    -1.9241930     0.5318010
  C       -4.3779170     0.3056950     0.3735650
  H       -0.4898870     1.8240078    -0.7992718
  H        4.1617050     0.5791300     0.3641360
  H        1.7801010    -2.1461120     0.0568400
  H        1.2958720     3.5406330    -0.8437660
  H        3.6204230     2.8995150    -0.1925990
  H       -1.2541740     1.1373190     1.4511930
  H       -2.4205700    -1.7983260    -1.4636490
  H       -3.6394530     1.7093650     1.8355280
  H       -4.8171580    -1.1915530    -1.1177270
  H        4.4331860    -1.7182640    -0.3623870
  H        3.8136890    -3.0019290     0.7024740
  H        4.3131750    -1.4541550     1.3926990
  H       -5.4217990     0.5615290     0.5392290
units angstrom
no_reorient  #important for SAPT in psi4, default
symmetry c1  #important for SAPT in psi4, default
}

set PROPERTIES_ORIGIN ["COM"]
properties('MP2/aug-cc-pvtz', properties = ['dipole'])
--------------------------------------------------------------------------

    Molecular point group: c1
  Charge       = 0
  Multiplicity = 1
  Basis Set: AUG-CC-PVTZ
    Blend: AUG-CC-PVTZ
  Basis Set: (AUG-CC-PVTZ AUX)
    Blend: AUG-CC-PVTZ-JKFIT

    Orbital Energies [Eh]
    ---------------------

    Doubly Occupied:

       1A    -20.539842     2A    -15.561919     3A    -11.340250
       4A    -11.297225     5A    -11.257098     6A    -11.252662
       7A    -11.252639     8A    -11.251500     9A    -11.250291
      10A    -11.249429    11A    -11.247075    12A    -11.245104
      13A    -11.243634    14A    -11.238651    15A    -11.228889
      16A    -11.225897    17A     -1.372585    18A     -1.244414
      19A     -1.163628    20A     -1.142061    21A     -1.056184
      22A     -1.025623    23A     -1.020696    24A     -1.009967
      25A     -0.929464    26A     -0.888795    27A     -0.845193
      28A     -0.834773    29A     -0.807474    30A     -0.771603
      31A     -0.717931    32A     -0.701632    33A     -0.683615
      34A     -0.655769    35A     -0.645075    36A     -0.633430
      37A     -0.619466    38A     -0.615143    39A     -0.607960
      40A     -0.601553    41A     -0.596053    42A     -0.577664
      43A     -0.545451    44A     -0.542218    45A     -0.530892
      46A     -0.520542    47A     -0.512832    48A     -0.503277
      49A     -0.501359    50A     -0.486807    51A     -0.429421
      52A     -0.419047    53A     -0.350354    54A     -0.345415
      55A     -0.343336    56A     -0.292095

  @DF-RHF Final Energy:  -667.26274370822318

   => Energetics <=

    Nuclear Repulsion Energy =           1002.5425305260826008
    One-Electron Energy =               -2896.0647500506320284
    Two-Electron Energy =                1226.2594758163261304
    Total Energy =                       -667.2627437082232973
  Basis Set: (AUG-CC-PVTZ AUX)
    Blend: AUG-CC-PVTZ-RI
    Molecular point group: c1

    Geometry (in Angstrom), charge = 0, multiplicity = 1:

       Center              X                  Y                   Z               Mass
    ------------   -----------------  -----------------  -----------------  -----------------
         O           -0.039623193821    -1.996451742365    -0.450346784284    15.994914619570
         N            2.482693806179    -1.470630742365     0.410716215716    14.003074004430
         C            0.835295806179     0.214805257635    -0.209206784284    12.000000000000
         C            2.177865806179    -0.170091742365     0.086591215716    12.000000000000
         C           -0.253672193821    -0.785553742365    -0.254702784284    12.000000000000
         C           -1.666274193821    -0.340676742365    -0.052111784284    12.000000000000
         C            0.559675806179     1.550184257635    -0.556014784284    12.000000000000
         C            3.161771806179     0.840444257635     0.124861215716    12.000000000000
         C            1.553037806179     2.521740257635    -0.554580784284    12.000000000000
         C            2.855659806179     2.155840257635    -0.205399784284    12.000000000000
         C           -2.008334193821     0.644657257635     0.886333215716    12.000000000000
         C           -2.676055193821    -1.011899742365    -0.756121784284    12.000000000000
         C           -3.350249193821     0.959848257635     1.104384215716    12.000000000000
         C           -4.012407193821    -0.675930742365    -0.550900784284    12.000000000000
         C            3.852898806179    -1.919894742365     0.538676215716    12.000000000000
         C           -4.352592193821     0.309993257635     0.380440215716    12.000000000000
         H           -0.464562193821     1.828306057635    -0.792396584284     1.007825032230
         H            4.187029806179     0.583428257635     0.371011215716     1.007825032230
         H            1.805425806179    -2.141813742365     0.063715215716     1.007825032230
         H            1.321196806179     3.544931257635    -0.836890784284     1.007825032230
         H            3.645747806179     2.903813257635    -0.185723784284     1.007825032230
         H           -1.228849193821     1.141617257635     1.458068215716     1.007825032230
         H           -2.395245193821    -1.794027742365    -1.456773784284     1.007825032230
         H           -3.614128193821     1.713663257635     1.842403215716     1.007825032230
         H           -4.791833193821    -1.187254742365    -1.110851784284     1.007825032230
         H            4.458510806179    -1.713965742365    -0.355511784284     1.007825032230
         H            3.839013806179    -2.997630742365     0.709349215716     1.007825032230
         H            4.338499806179    -1.449856742365     1.399574215716     1.007825032230
         H           -5.396474193821     0.565827257635     0.546104215716     1.007825032230

  Basis Set: AUG-CC-PVTZ
    Blend: AUG-CC-PVTZ
  Basis Set: (AUG-CC-PVTZ AUX)
    Blend: AUG-CC-PVTZ-JKFIT
	 Reference Energy          =    -667.2627437082231836 [Eh]
	 Singles Energy            =      -0.0000000000000000 [Eh]
	 Same-Spin Energy          =      -0.7346330694374943 [Eh]
	 Opposite-Spin Energy      =      -2.2653209561582184 [Eh]
	 Correlation Energy        =      -2.9999540255957129 [Eh]
	 Total Energy              =    -670.2626977338188681 [Eh]

	 ================> DF-SCS-MP2 Energies <==================
	-----------------------------------------------------------
	 SCS Same-Spin Scale       =       0.3333333333333333 [-]
	 SCS Opposite-Spin Scale   =       1.2000000000000000 [-]
	 SCS Same-Spin Energy      =      -0.2448776898124981 [Eh]
	 SCS Opposite-Spin Energy  =      -2.7183851473898621 [Eh]
	 SCS Correlation Energy    =      -2.9632628372023602 [Eh]
	 SCS Total Energy          =    -670.2260065454255482 [Eh]
	-----------------------------------------------------------

  Dipole Moment: [D]
     X:     0.3133      Y:     1.2020      Z:     0.3709     Total:     1.2963

*** Psi4 exiting successfully. Buy a developer a beer!
