                               Psi4 1.4a2.dev612

  ==> Input File <==

--------------------------------------------------------------------------
#psi4
#
memory 32 gb

molecule  {
0 1
  O       -0.0649480    -2.0007500    -0.4572220
  N        2.4573690    -1.4749290     0.4038410
  C        0.8099710     0.2105070    -0.2160820
  C        2.1525410    -0.1743900     0.0797160
  C       -0.2789970    -0.7898520    -0.2615780
  C       -1.6822024    -0.3594346     0.0395149
  C        0.5343510     1.5458860    -0.5628900
  C        3.1364470     0.8361460     0.1179860
  C        1.5277130     2.5174420    -0.5614560
  C        2.8303350     2.1515420    -0.2122750
  C       -2.0336590     0.6403590     0.8794580
  C       -2.7013800    -1.0161980    -0.7629970
  C       -3.3755740     0.9555500     1.0975090
  C       -4.0377320    -0.6802290    -0.5577760
  C        3.8275740    -1.9241930     0.5318010
  C       -4.3779170     0.3056950     0.3735650
  H       -0.4794410     1.8136050    -0.8470490
  H        4.1617050     0.5791300     0.3641360
  H        1.7801010    -2.1461120     0.0568400
  H        1.2958720     3.5406330    -0.8437660
  H        3.6204230     2.8995150    -0.1925990
  H       -1.2541740     1.1373190     1.4511930
  H       -2.4205700    -1.7983260    -1.4636490
  H       -3.6394530     1.7093650     1.8355280
  H       -4.8171580    -1.1915530    -1.1177270
  H        4.4331860    -1.7182640    -0.3623870
  H        3.8136890    -3.0019290     0.7024740
  H        4.3131750    -1.4541550     1.3926990
  H       -5.4217990     0.5615290     0.5392290
units angstrom
no_reorient  #important for SAPT in psi4, default
symmetry c1  #important for SAPT in psi4, default
}

set PROPERTIES_ORIGIN ["COM"]
properties('MP2/aug-cc-pvtz', properties = ['dipole'])
--------------------------------------------------------------------------

    Molecular point group: c1
  Charge       = 0
  Multiplicity = 1
  Basis Set: AUG-CC-PVTZ
    Blend: AUG-CC-PVTZ
  Basis Set: (AUG-CC-PVTZ AUX)
    Blend: AUG-CC-PVTZ-JKFIT

    Orbital Energies [Eh]
    ---------------------

    Doubly Occupied:

       1A    -20.540409     2A    -15.561974     3A    -11.340896
       4A    -11.297374     5A    -11.257181     6A    -11.252799
       7A    -11.252629     8A    -11.252016     9A    -11.250161
      10A    -11.249565    11A    -11.245719    12A    -11.244497
      13A    -11.243235    14A    -11.238733    15A    -11.229012
      16A    -11.225967    17A     -1.372961    18A     -1.244498
      19A     -1.164383    20A     -1.142071    21A     -1.057601
      22A     -1.025058    23A     -1.019537    24A     -1.010128
      25A     -0.929427    26A     -0.888592    27A     -0.843098
      28A     -0.836160    29A     -0.808336    30A     -0.771670
      31A     -0.717890    32A     -0.701627    33A     -0.684224
      34A     -0.656560    35A     -0.644472    36A     -0.633757
      37A     -0.618441    38A     -0.615316    39A     -0.609839
      40A     -0.601041    41A     -0.594418    42A     -0.577879
      43A     -0.544934    44A     -0.542346    45A     -0.530844
      46A     -0.519330    47A     -0.514569    48A     -0.504328
      49A     -0.500000    50A     -0.485244    51A     -0.429501
      52A     -0.418300    53A     -0.355089    54A     -0.347628
      55A     -0.337320    56A     -0.292199

  @DF-RHF Final Energy:  -667.25732805492919

   => Energetics <=

    Nuclear Repulsion Energy =           1002.4931713186874731
    One-Electron Energy =               -2895.9554323454863152
    Two-Electron Energy =                1226.2049329718697663
    Total Energy =                       -667.2573280549290757
  Basis Set: (AUG-CC-PVTZ AUX)
    Blend: AUG-CC-PVTZ-RI
    Molecular point group: c1

    Geometry (in Angstrom), charge = 0, multiplicity = 1:

       Center              X                  Y                   Z               Mass
    ------------   -----------------  -----------------  -----------------  -----------------
         O           -0.040207216120    -1.995580119194    -0.455718045667    15.994914619570
         N            2.482109783880    -1.469759119194     0.405344954333    14.003074004430
         C            0.834711783880     0.215676880806    -0.214578045667    12.000000000000
         C            2.177281783880    -0.169220119194     0.081219954333    12.000000000000
         C           -0.254256216120    -0.784682119194    -0.260074045667    12.000000000000
         C           -1.657461616120    -0.354264719194     0.041018854333    12.000000000000
         C            0.559091783880     1.551055880806    -0.561386045667    12.000000000000
         C            3.161187783880     0.841315880806     0.119489954333    12.000000000000
         C            1.552453783880     2.522611880806    -0.559952045667    12.000000000000
         C            2.855075783880     2.156711880806    -0.210771045667    12.000000000000
         C           -2.008918216120     0.645528880806     0.880961954333    12.000000000000
         C           -2.676639216120    -1.011028119194    -0.761493045667    12.000000000000
         C           -3.350833216120     0.960719880806     1.099012954333    12.000000000000
         C           -4.012991216120    -0.675059119194    -0.556272045667    12.000000000000
         C            3.852314783880    -1.919023119194     0.533304954333    12.000000000000
         C           -4.353176216120     0.310864880806     0.375068954333    12.000000000000
         H           -0.454700216120     1.818774880806    -0.845545045667     1.007825032230
         H            4.186445783880     0.584299880806     0.365639954333     1.007825032230
         H            1.804841783880    -2.140942119194     0.058343954333     1.007825032230
         H            1.320612783880     3.545802880806    -0.842262045667     1.007825032230
         H            3.645163783880     2.904684880806    -0.191095045667     1.007825032230
         H           -1.229433216120     1.142488880806     1.452696954333     1.007825032230
         H           -2.395829216120    -1.793156119194    -1.462145045667     1.007825032230
         H           -3.614712216120     1.714534880806     1.837031954333     1.007825032230
         H           -4.792417216120    -1.186383119194    -1.116223045667     1.007825032230
         H            4.457926783880    -1.713094119194    -0.360883045667     1.007825032230
         H            3.838429783880    -2.996759119194     0.703977954333     1.007825032230
         H            4.337915783880    -1.448985119194     1.394202954333     1.007825032230
         H           -5.397058216120     0.566698880806     0.540732954333     1.007825032230

  Basis Set: AUG-CC-PVTZ
    Blend: AUG-CC-PVTZ
  Basis Set: (AUG-CC-PVTZ AUX)
    Blend: AUG-CC-PVTZ-JKFIT
	 Reference Energy          =    -667.2573280549291894 [Eh]
	 Singles Energy            =      -0.0000000000000000 [Eh]
	 Same-Spin Energy          =      -0.7344668062591811 [Eh]
	 Opposite-Spin Energy      =      -2.2655037975928987 [Eh]
	 Correlation Energy        =      -2.9999706038520797 [Eh]
	 Total Energy              =    -670.2572986587812238 [Eh]

	 ================> DF-SCS-MP2 Energies <==================
	-----------------------------------------------------------
	 SCS Same-Spin Scale       =       0.3333333333333333 [-]
	 SCS Opposite-Spin Scale   =       1.2000000000000000 [-]
	 SCS Same-Spin Energy      =      -0.2448222687530604 [Eh]
	 SCS Opposite-Spin Energy  =      -2.7186045571114783 [Eh]
	 SCS Correlation Energy    =      -2.9634268258645386 [Eh]
	 SCS Total Energy          =    -670.2207548807937201 [Eh]
	-----------------------------------------------------------

  Dipole Moment: [D]
     X:     0.3203      Y:     1.2033      Z:     0.3382     Total:     1.2903

*** Psi4 exiting successfully. Buy a developer a beer!
