                               Psi4 1.4a2.dev612

  ==> Input File <==

--------------------------------------------------------------------------
#psi4
#
memory 32 gb

molecule  {
0 1
  O       -0.0649480    -2.0007500    -0.4572220
  N        2.4573690    -1.4749290     0.4038410
  C        0.8099710     0.2105070    -0.2160820
  C        2.1525410    -0.1743900     0.0797160
  C       -0.2789970    -0.7898520    -0.2615780
  C       -1.6869007    -0.3522048    -0.0097361
  C        0.5343510     1.5458860    -0.5628900
  C        3.1364470     0.8361460     0.1179860
  C        1.5277130     2.5174420    -0.5614560
  C        2.8303350     2.1515420    -0.2122750
  C       -2.0336590     0.6403590     0.8794580
  C       -2.7013800    -1.0161980    -0.7629970
  C       -3.3755740     0.9555500     1.0975090
  C       -4.0377320    -0.6802290    -0.5577760
  C        3.8275740    -1.9241930     0.5318010
  C       -4.3779170     0.3056950     0.3735650
  H       -0.4794410     1.8136050    -0.8470490
  H        4.1617050     0.5791300     0.3641360
  H        1.7801010    -2.1461120     0.0568400
  H        1.2958720     3.5406330    -0.8437660
  H        3.6204230     2.8995150    -0.1925990
  H       -1.2541740     1.1373190     1.4511930
  H       -2.4205700    -1.7983260    -1.4636490
  H       -3.6394530     1.7093650     1.8355280
  H       -4.8171580    -1.1915530    -1.1177270
  H        4.4331860    -1.7182640    -0.3623870
  H        3.8136890    -3.0019290     0.7024740
  H        4.3131750    -1.4541550     1.3926990
  H       -5.4217990     0.5615290     0.5392290
units angstrom
no_reorient  #important for SAPT in psi4, default
symmetry c1  #important for SAPT in psi4, default
}

set PROPERTIES_ORIGIN ["COM"]
properties('MP2/aug-cc-pvtz', properties = ['dipole'])
--------------------------------------------------------------------------

    Molecular point group: c1
  Charge       = 0
  Multiplicity = 1
  Basis Set: AUG-CC-PVTZ
    Blend: AUG-CC-PVTZ
  Basis Set: (AUG-CC-PVTZ AUX)
    Blend: AUG-CC-PVTZ-JKFIT

    Orbital Energies [Eh]
    ---------------------

    Doubly Occupied:

       1A    -20.540042     2A    -15.561945     3A    -11.340417
       4A    -11.297310     5A    -11.257139     6A    -11.252713
       7A    -11.252653     8A    -11.250187     9A    -11.250102
      10A    -11.249203    11A    -11.248027    12A    -11.244889
      13A    -11.243421    14A    -11.238648    15A    -11.228954
      16A    -11.225932    17A     -1.372728    18A     -1.244454
      19A     -1.163899    20A     -1.142067    21A     -1.056793
      22A     -1.023189    23A     -1.022275    24A     -1.010068
      25A     -0.929442    26A     -0.888729    27A     -0.844115
      28A     -0.835429    29A     -0.807966    30A     -0.771736
      31A     -0.717982    32A     -0.701568    33A     -0.683796
      34A     -0.656224    35A     -0.644740    36A     -0.633566
      37A     -0.618834    38A     -0.615276    39A     -0.608694
      40A     -0.601440    41A     -0.595613    42A     -0.577769
      43A     -0.545003    44A     -0.542295    45A     -0.530838
      46A     -0.519467    47A     -0.513819    48A     -0.504048
      49A     -0.501227    50A     -0.486027    51A     -0.429434
      52A     -0.418808    53A     -0.352190    54A     -0.346810
      55A     -0.340339    56A     -0.292152

  @DF-RHF Final Energy:  -667.26165163460826

   => Energetics <=

    Nuclear Repulsion Energy =           1002.5237035827248064
    One-Electron Energy =               -2896.0258475730970531
    Two-Electron Energy =                1226.2404923557637630
    Total Energy =                       -667.2616516346083699
  Basis Set: (AUG-CC-PVTZ AUX)
    Blend: AUG-CC-PVTZ-RI
    Molecular point group: c1

    Geometry (in Angstrom), charge = 0, multiplicity = 1:

       Center              X                  Y                   Z               Mass
    ------------   -----------------  -----------------  -----------------  -----------------
         O           -0.039940140439    -1.995991098433    -0.452918363996    15.994914619570
         N            2.482376859561    -1.470170098433     0.408144636004    14.003074004430
         C            0.834978859561     0.215265901567    -0.211778363996    12.000000000000
         C            2.177548859561    -0.169631098433     0.084019636004    12.000000000000
         C           -0.253989140439    -0.785093098433    -0.257274363996    12.000000000000
         C           -1.661892840439    -0.347445898433    -0.005432463996    12.000000000000
         C            0.559358859561     1.550644901567    -0.558586363996    12.000000000000
         C            3.161454859561     0.840904901567     0.122289636004    12.000000000000
         C            1.552720859561     2.522200901567    -0.557152363996    12.000000000000
         C            2.855342859561     2.156300901567    -0.207971363996    12.000000000000
         C           -2.008651140439     0.645117901567     0.883761636004    12.000000000000
         C           -2.676372140439    -1.011439098433    -0.758693363996    12.000000000000
         C           -3.350566140439     0.960308901567     1.101812636004    12.000000000000
         C           -4.012724140439    -0.675470098433    -0.553472363996    12.000000000000
         C            3.852581859561    -1.919434098433     0.536104636004    12.000000000000
         C           -4.352909140439     0.310453901567     0.377868636004    12.000000000000
         H           -0.454433140439     1.818363901567    -0.842745363996     1.007825032230
         H            4.186712859561     0.583888901567     0.368439636004     1.007825032230
         H            1.805108859561    -2.141353098433     0.061143636004     1.007825032230
         H            1.320879859561     3.545391901567    -0.839462363996     1.007825032230
         H            3.645430859561     2.904273901567    -0.188295363996     1.007825032230
         H           -1.229166140439     1.142077901567     1.455496636004     1.007825032230
         H           -2.395562140439    -1.793567098433    -1.459345363996     1.007825032230
         H           -3.614445140439     1.714123901567     1.839831636004     1.007825032230
         H           -4.792150140439    -1.186794098433    -1.113423363996     1.007825032230
         H            4.458193859561    -1.713505098433    -0.358083363996     1.007825032230
         H            3.838696859561    -2.997170098433     0.706777636004     1.007825032230
         H            4.338182859561    -1.449396098433     1.397002636004     1.007825032230
         H           -5.396791140439     0.566287901567     0.543532636004     1.007825032230

  Basis Set: AUG-CC-PVTZ
    Blend: AUG-CC-PVTZ
  Basis Set: (AUG-CC-PVTZ AUX)
    Blend: AUG-CC-PVTZ-JKFIT
	 Reference Energy          =    -667.2616516346082562 [Eh]
	 Singles Energy            =      -0.0000000000000000 [Eh]
	 Same-Spin Energy          =      -0.7345360426278338 [Eh]
	 Opposite-Spin Energy      =      -2.2652917526813261 [Eh]
	 Correlation Energy        =      -2.9998277953091597 [Eh]
	 Total Energy              =    -670.2614794299174719 [Eh]

	 ================> DF-SCS-MP2 Energies <==================
	-----------------------------------------------------------
	 SCS Same-Spin Scale       =       0.3333333333333333 [-]
	 SCS Opposite-Spin Scale   =       1.2000000000000000 [-]
	 SCS Same-Spin Energy      =      -0.2448453475426113 [Eh]
	 SCS Opposite-Spin Energy  =      -2.7183501032175914 [Eh]
	 SCS Correlation Energy    =      -2.9631954507602027 [Eh]
	 SCS Total Energy          =    -670.2248470853684239 [Eh]
	-----------------------------------------------------------

  Dipole Moment: [D]
     X:     0.3217      Y:     1.2033      Z:     0.3417     Total:     1.2915

*** Psi4 exiting successfully. Buy a developer a beer!
