                               Psi4 1.4a2.dev612

  ==> Input File <==

--------------------------------------------------------------------------
#psi4
#
memory 32 gb

molecule  {
0 1
  O       -0.0649480    -2.0007500    -0.4572220
  N        2.4573690    -1.4749290     0.4038410
  C        0.8099710     0.2105070    -0.2160820
  C        2.1525410    -0.1743900     0.0797160
  C       -0.2789970    -0.7898520    -0.2615780
  C       -1.6915990    -0.3449750    -0.0589870
  C        0.5343510     1.5458860    -0.5628900
  C        3.1364470     0.8361460     0.1179860
  C        1.5277130     2.5174420    -0.5614560
  C        2.8303350     2.1515420    -0.2122750
  C       -2.0336590     0.6403590     0.8794580
  C       -2.7142955    -1.1187600    -0.6543037
  C       -3.3755740     0.9555500     1.0975090
  C       -4.0377320    -0.6802290    -0.5577760
  C        3.8275740    -1.9241930     0.5318010
  C       -4.3779170     0.3056950     0.3735650
  H       -0.4794410     1.8136050    -0.8470490
  H        4.1617050     0.5791300     0.3641360
  H        1.7801010    -2.1461120     0.0568400
  H        1.2958720     3.5406330    -0.8437660
  H        3.6204230     2.8995150    -0.1925990
  H       -1.2541740     1.1373190     1.4511930
  H       -2.4205700    -1.7983260    -1.4636490
  H       -3.6394530     1.7093650     1.8355280
  H       -4.8171580    -1.1915530    -1.1177270
  H        4.4331860    -1.7182640    -0.3623870
  H        3.8136890    -3.0019290     0.7024740
  H        4.3131750    -1.4541550     1.3926990
  H       -5.4217990     0.5615290     0.5392290
units angstrom
no_reorient  #important for SAPT in psi4, default
symmetry c1  #important for SAPT in psi4, default
}

set PROPERTIES_ORIGIN ["COM"]
properties('MP2/aug-cc-pvtz', properties = ['dipole'])
--------------------------------------------------------------------------

    Molecular point group: c1
  Charge       = 0
  Multiplicity = 1
  Basis Set: AUG-CC-PVTZ
    Blend: AUG-CC-PVTZ
  Basis Set: (AUG-CC-PVTZ AUX)
    Blend: AUG-CC-PVTZ-JKFIT

    Orbital Energies [Eh]
    ---------------------

    Doubly Occupied:

       1A    -20.538511     2A    -15.561679     3A    -11.339606
       4A    -11.297073     5A    -11.256931     6A    -11.252585
       7A    -11.252524     8A    -11.252009     9A    -11.250726
      10A    -11.250674    11A    -11.249383    12A    -11.245598
      13A    -11.244763    14A    -11.238527    15A    -11.228800
      16A    -11.225836    17A     -1.371711    18A     -1.244197
      19A     -1.162857    20A     -1.141965    21A     -1.055836
      22A     -1.024486    23A     -1.020718    24A     -1.009891
      25A     -0.929285    26A     -0.888574    27A     -0.844528
      28A     -0.833939    29A     -0.807377    30A     -0.770823
      31A     -0.717298    32A     -0.701233    33A     -0.682893
      34A     -0.655572    35A     -0.644456    36A     -0.632077
      37A     -0.618615    38A     -0.615101    39A     -0.607119
      40A     -0.599883    41A     -0.595269    42A     -0.577419
      43A     -0.545580    44A     -0.542104    45A     -0.530414
      46A     -0.520464    47A     -0.510439    48A     -0.503575
      49A     -0.500789    50A     -0.485937    51A     -0.429192
      52A     -0.419027    53A     -0.350151    54A     -0.344814
      55A     -0.342809    56A     -0.291850

  @DF-RHF Final Energy:  -667.25553760974583

   => Energetics <=

    Nuclear Repulsion Energy =           1002.1771645557081456
    One-Electron Energy =               -2895.3544205415241777
    Two-Electron Energy =                1225.9217183760702028
    Total Energy =                       -667.2555376097457156
  Basis Set: (AUG-CC-PVTZ AUX)
    Blend: AUG-CC-PVTZ-RI
    Molecular point group: c1

    Geometry (in Angstrom), charge = 0, multiplicity = 1:

       Center              X                  Y                   Z               Mass
    ------------   -----------------  -----------------  -----------------  -----------------
         O           -0.038938880911    -1.990571922926    -0.456297377574    15.994914619570
         N            2.483378119089    -1.464750922926     0.404765622426    14.003074004430
         C            0.835980119089     0.220685077074    -0.215157377574    12.000000000000
         C            2.178550119089    -0.164211922926     0.080640622426    12.000000000000
         C           -0.252987880911    -0.779673922926    -0.260653377574    12.000000000000
         C           -1.665589880911    -0.334796922926    -0.058062377574    12.000000000000
         C            0.560360119089     1.556064077074    -0.561965377574    12.000000000000
         C            3.162456119089     0.846324077074     0.118910622426    12.000000000000
         C            1.553722119089     2.527620077074    -0.560531377574    12.000000000000
         C            2.856344119089     2.161720077074    -0.211350377574    12.000000000000
         C           -2.007649880911     0.650537077074     0.880382622426    12.000000000000
         C           -2.688286380911    -1.108581922926    -0.653379077574    12.000000000000
         C           -3.349564880911     0.965728077074     1.098433622426    12.000000000000
         C           -4.011722880911    -0.670050922926    -0.556851377574    12.000000000000
         C            3.853583119089    -1.914014922926     0.532725622426    12.000000000000
         C           -4.351907880911     0.315873077074     0.374489622426    12.000000000000
         H           -0.453431880911     1.823783077074    -0.846124377574     1.007825032230
         H            4.187714119089     0.589308077074     0.365060622426     1.007825032230
         H            1.806110119089    -2.135933922926     0.057764622426     1.007825032230
         H            1.321881119089     3.550811077074    -0.842841377574     1.007825032230
         H            3.646432119089     2.909693077074    -0.191674377574     1.007825032230
         H           -1.228164880911     1.147497077074     1.452117622426     1.007825032230
         H           -2.394560880911    -1.788147922926    -1.462724377574     1.007825032230
         H           -3.613443880911     1.719543077074     1.836452622426     1.007825032230
         H           -4.791148880911    -1.181374922926    -1.116802377574     1.007825032230
         H            4.459195119089    -1.708085922926    -0.361462377574     1.007825032230
         H            3.839698119089    -2.991750922926     0.703398622426     1.007825032230
         H            4.339184119089    -1.443976922926     1.393623622426     1.007825032230
         H           -5.395789880911     0.571707077074     0.540153622426     1.007825032230

  Basis Set: AUG-CC-PVTZ
    Blend: AUG-CC-PVTZ
  Basis Set: (AUG-CC-PVTZ AUX)
    Blend: AUG-CC-PVTZ-JKFIT
	 Reference Energy          =    -667.2555376097458293 [Eh]
	 Singles Energy            =      -0.0000000000000000 [Eh]
	 Same-Spin Energy          =      -0.7350281367646645 [Eh]
	 Opposite-Spin Energy      =      -2.2663355864283625 [Eh]
	 Correlation Energy        =      -3.0013637231930268 [Eh]
	 Total Energy              =    -670.2569013329388099 [Eh]

	 ================> DF-SCS-MP2 Energies <==================
	-----------------------------------------------------------
	 SCS Same-Spin Scale       =       0.3333333333333333 [-]
	 SCS Opposite-Spin Scale   =       1.2000000000000000 [-]
	 SCS Same-Spin Energy      =      -0.2450093789215548 [Eh]
	 SCS Opposite-Spin Energy  =      -2.7196027037140351 [Eh]
	 SCS Correlation Energy    =      -2.9646120826355897 [Eh]
	 SCS Total Energy          =    -670.2201496923813693 [Eh]
	-----------------------------------------------------------

  Dipole Moment: [D]
     X:     0.2739      Y:     1.2747      Z:     0.3223     Total:     1.3430

*** Psi4 exiting successfully. Buy a developer a beer!
