                               Psi4 1.4a2.dev612

  ==> Input File <==

--------------------------------------------------------------------------
#psi4
#
memory 32 gb

molecule  {
0 1
  O       -0.0649480    -2.0007500    -0.4572220
  N        2.4573690    -1.4749290     0.4038410
  C        0.8099710     0.2105070    -0.2160820
  C        2.1525410    -0.1743900     0.0797160
  C       -0.2789970    -0.7898520    -0.2615780
  C       -1.6915990    -0.3449750    -0.0589870
  C        0.5343510     1.5458860    -0.5628900
  C        3.1364470     0.8361460     0.1179860
  C        1.5277130     2.5174420    -0.5614560
  C        2.8303350     2.1515420    -0.2122750
  C       -2.0336590     0.6403590     0.8794580
  C       -2.7056852    -1.0503853    -0.7267659
  C       -3.3755740     0.9555500     1.0975090
  C       -4.0377320    -0.6802290    -0.5577760
  C        3.8275740    -1.9241930     0.5318010
  C       -4.3779170     0.3056950     0.3735650
  H       -0.4794410     1.8136050    -0.8470490
  H        4.1617050     0.5791300     0.3641360
  H        1.7801010    -2.1461120     0.0568400
  H        1.2958720     3.5406330    -0.8437660
  H        3.6204230     2.8995150    -0.1925990
  H       -1.2541740     1.1373190     1.4511930
  H       -2.4205700    -1.7983260    -1.4636490
  H       -3.6394530     1.7093650     1.8355280
  H       -4.8171580    -1.1915530    -1.1177270
  H        4.4331860    -1.7182640    -0.3623870
  H        3.8136890    -3.0019290     0.7024740
  H        4.3131750    -1.4541550     1.3926990
  H       -5.4217990     0.5615290     0.5392290
units angstrom
no_reorient  #important for SAPT in psi4, default
symmetry c1  #important for SAPT in psi4, default
}

set PROPERTIES_ORIGIN ["COM"]
properties('MP2/aug-cc-pvtz', properties = ['dipole'])
--------------------------------------------------------------------------

    Molecular point group: c1
  Charge       = 0
  Multiplicity = 1
  Basis Set: AUG-CC-PVTZ
    Blend: AUG-CC-PVTZ
  Basis Set: (AUG-CC-PVTZ AUX)
    Blend: AUG-CC-PVTZ-JKFIT

    Orbital Energies [Eh]
    ---------------------

    Doubly Occupied:

       1A    -20.539289     2A    -15.561834     3A    -11.339947
       4A    -11.297184     5A    -11.257041     6A    -11.252622
       7A    -11.252599     8A    -11.251598     9A    -11.250438
      10A    -11.249440    11A    -11.247403    12A    -11.244952
      13A    -11.243524    14A    -11.238563    15A    -11.228862
      16A    -11.225874    17A     -1.372221    18A     -1.244336
      19A     -1.163456    20A     -1.142041    21A     -1.056015
      22A     -1.025421    23A     -1.020709    24A     -1.009959
      25A     -0.929400    26A     -0.888711    27A     -0.845118
      28A     -0.834447    29A     -0.807496    30A     -0.771424
      31A     -0.717870    32A     -0.701479    33A     -0.683411
      34A     -0.655802    35A     -0.644864    36A     -0.633089
      37A     -0.619102    38A     -0.615192    39A     -0.607783
      40A     -0.601020    41A     -0.596229    42A     -0.577568
      43A     -0.545299    44A     -0.542193    45A     -0.530782
      46A     -0.520410    47A     -0.512098    48A     -0.503825
      49A     -0.501544    50A     -0.486457    51A     -0.429298
      52A     -0.419022    53A     -0.350421    54A     -0.345141
      55A     -0.343145    56A     -0.292014

  @DF-RHF Final Energy:  -667.26209538205899

   => Energetics <=

    Nuclear Repulsion Energy =           1002.4594913827226037
    One-Electron Energy =               -2895.9092103779157696
    Two-Electron Energy =                1226.1876236131340647
    Total Energy =                       -667.2620953820589875
  Basis Set: (AUG-CC-PVTZ AUX)
    Blend: AUG-CC-PVTZ-RI
    Molecular point group: c1

    Geometry (in Angstrom), charge = 0, multiplicity = 1:

       Center              X                  Y                   Z               Mass
    ------------   -----------------  -----------------  -----------------  -----------------
         O           -0.039428334913    -1.994458694652    -0.452178251199    15.994914619570
         N            2.482888665087    -1.468637694652     0.408884748801    14.003074004430
         C            0.835490665087     0.216798305348    -0.211038251199    12.000000000000
         C            2.178060665087    -0.168098694652     0.084759748801    12.000000000000
         C           -0.253477334913    -0.783560694652    -0.256534251199    12.000000000000
         C           -1.666079334913    -0.338683694652    -0.053943251199    12.000000000000
         C            0.559870665087     1.552177305348    -0.557846251199    12.000000000000
         C            3.161966665087     0.842437305348     0.123029748801    12.000000000000
         C            1.553232665087     2.523733305348    -0.556412251199    12.000000000000
         C            2.855854665087     2.157833305348    -0.207231251199    12.000000000000
         C           -2.008139334913     0.646650305348     0.884501748801    12.000000000000
         C           -2.680165534913    -1.044093994652    -0.721722151199    12.000000000000
         C           -3.350054334913     0.961841305348     1.102552748801    12.000000000000
         C           -4.012212334913    -0.673937694652    -0.552732251199    12.000000000000
         C            3.853093665087    -1.917901694652     0.536844748801    12.000000000000
         C           -4.352397334913     0.311986305348     0.378608748801    12.000000000000
         H           -0.453921334913     1.819896305348    -0.842005251199     1.007825032230
         H            4.187224665087     0.585421305348     0.369179748801     1.007825032230
         H            1.805620665087    -2.139820694652     0.061883748801     1.007825032230
         H            1.321391665087     3.546924305348    -0.838722251199     1.007825032230
         H            3.645942665087     2.905806305348    -0.187555251199     1.007825032230
         H           -1.228654334913     1.143610305348     1.456236748801     1.007825032230
         H           -2.395050334913    -1.792034694652    -1.458605251199     1.007825032230
         H           -3.613933334913     1.715656305348     1.840571748801     1.007825032230
         H           -4.791638334913    -1.185261694652    -1.112683251199     1.007825032230
         H            4.458705665087    -1.711972694652    -0.357343251199     1.007825032230
         H            3.839208665087    -2.995637694652     0.707517748801     1.007825032230
         H            4.338694665087    -1.447863694652     1.397742748801     1.007825032230
         H           -5.396279334913     0.567820305348     0.544272748801     1.007825032230

  Basis Set: AUG-CC-PVTZ
    Blend: AUG-CC-PVTZ
  Basis Set: (AUG-CC-PVTZ AUX)
    Blend: AUG-CC-PVTZ-JKFIT
	 Reference Energy          =    -667.2620953820589875 [Eh]
	 Singles Energy            =      -0.0000000000000000 [Eh]
	 Same-Spin Energy          =      -0.7346487951911896 [Eh]
	 Opposite-Spin Energy      =      -2.2653431043648244 [Eh]
	 Correlation Energy        =      -2.9999918995560142 [Eh]
	 Total Energy              =    -670.2620872816149813 [Eh]

	 ================> DF-SCS-MP2 Energies <==================
	-----------------------------------------------------------
	 SCS Same-Spin Scale       =       0.3333333333333333 [-]
	 SCS Opposite-Spin Scale   =       1.2000000000000000 [-]
	 SCS Same-Spin Energy      =      -0.2448829317303965 [Eh]
	 SCS Opposite-Spin Energy  =      -2.7184117252377891 [Eh]
	 SCS Correlation Energy    =      -2.9632946569681855 [Eh]
	 SCS Total Energy          =    -670.2253900390271610 [Eh]
	-----------------------------------------------------------

  Dipole Moment: [D]
     X:     0.3065      Y:     1.2208      Z:     0.3317     Total:     1.3017

*** Psi4 exiting successfully. Buy a developer a beer!
