                               Psi4 1.4a2.dev612

  ==> Input File <==

--------------------------------------------------------------------------
#psi4
#
memory 32 gb

molecule  {
0 1
  O       -0.0649480    -2.0007500    -0.4572220
  N        2.4573690    -1.4749290     0.4038410
  C        0.8099710     0.2105070    -0.2160820
  C        2.1525410    -0.1743900     0.0797160
  C       -0.2789970    -0.7898520    -0.2615780
  C       -1.6915990    -0.3449750    -0.0589870
  C        0.5343510     1.5458860    -0.5628900
  C        3.1828726     0.7926012    -0.1237753
  C        1.5277130     2.5174420    -0.5614560
  C        2.8303350     2.1515420    -0.2122750
  C       -2.0336590     0.6403590     0.8794580
  C       -2.7013800    -1.0161980    -0.7629970
  C       -3.3755740     0.9555500     1.0975090
  C       -4.0377320    -0.6802290    -0.5577760
  C        3.8275740    -1.9241930     0.5318010
  C       -4.3779170     0.3056950     0.3735650
  H       -0.4794410     1.8136050    -0.8470490
  H        4.1617050     0.5791300     0.3641360
  H        1.7801010    -2.1461120     0.0568400
  H        1.2958720     3.5406330    -0.8437660
  H        3.6204230     2.8995150    -0.1925990
  H       -1.2541740     1.1373190     1.4511930
  H       -2.4205700    -1.7983260    -1.4636490
  H       -3.6394530     1.7093650     1.8355280
  H       -4.8171580    -1.1915530    -1.1177270
  H        4.4331860    -1.7182640    -0.3623870
  H        3.8136890    -3.0019290     0.7024740
  H        4.3131750    -1.4541550     1.3926990
  H       -5.4217990     0.5615290     0.5392290
units angstrom
no_reorient  #important for SAPT in psi4, default
symmetry c1  #important for SAPT in psi4, default
}

set PROPERTIES_ORIGIN ["COM"]
properties('MP2/aug-cc-pvtz', properties = ['dipole'])
--------------------------------------------------------------------------

    Molecular point group: c1
  Charge       = 0
  Multiplicity = 1
  Basis Set: AUG-CC-PVTZ
    Blend: AUG-CC-PVTZ
  Basis Set: (AUG-CC-PVTZ AUX)
    Blend: AUG-CC-PVTZ-JKFIT

    Orbital Energies [Eh]
    ---------------------

    Doubly Occupied:

       1A    -20.540384     2A    -15.562626     3A    -11.340785
       4A    -11.300326     5A    -11.256393     6A    -11.256276
       7A    -11.255615     8A    -11.251988     9A    -11.250717
      10A    -11.249746    11A    -11.247430    12A    -11.245514
      13A    -11.244002    14A    -11.238828    15A    -11.232301
      16A    -11.226352    17A     -1.373056    18A     -1.244157
      19A     -1.164008    20A     -1.141639    21A     -1.055827
      22A     -1.025863    23A     -1.020721    24A     -1.008166
      25A     -0.928965    26A     -0.888348    27A     -0.844800
      28A     -0.834698    29A     -0.805737    30A     -0.770925
      31A     -0.716985    32A     -0.702658    33A     -0.683027
      34A     -0.655133    35A     -0.645455    36A     -0.633265
      37A     -0.617832    38A     -0.615920    39A     -0.608379
      40A     -0.598252    41A     -0.595899    42A     -0.574334
      43A     -0.544197    44A     -0.541627    45A     -0.530857
      46A     -0.521573    47A     -0.513895    48A     -0.501830
      49A     -0.495982    50A     -0.486300    51A     -0.426407
      52A     -0.419072    53A     -0.350644    54A     -0.345668
      55A     -0.343690    56A     -0.293999

  @DF-RHF Final Energy:  -667.24752170742272

   => Energetics <=

    Nuclear Repulsion Energy =           1001.8652459208730079
    One-Electron Energy =               -2894.6873981925109547
    Two-Electron Energy =                1225.5746305642153402
    Total Energy =                       -667.2475217074227203
  Basis Set: (AUG-CC-PVTZ AUX)
    Blend: AUG-CC-PVTZ-RI
    Molecular point group: c1

    Geometry (in Angstrom), charge = 0, multiplicity = 1:

       Center              X                  Y                   Z               Mass
    ------------   -----------------  -----------------  -----------------  -----------------
         O           -0.042312136072    -1.993926765936    -0.436375724818    15.994914619570
         N            2.480004863928    -1.468105765936     0.424687275182    14.003074004430
         C            0.832606863928     0.217330234064    -0.195235724818    12.000000000000
         C            2.175176863928    -0.167566765936     0.100562275182    12.000000000000
         C           -0.256361136072    -0.783028765936    -0.240731724818    12.000000000000
         C           -1.668963136072    -0.338151765936    -0.038140724818    12.000000000000
         C            0.556986863928     1.552709234064    -0.542043724818    12.000000000000
         C            3.205508463928     0.799424434064    -0.102929024818    12.000000000000
         C            1.550348863928     2.524265234064    -0.540609724818    12.000000000000
         C            2.852970863928     2.158365234064    -0.191428724818    12.000000000000
         C           -2.011023136072     0.647182234064     0.900304275182    12.000000000000
         C           -2.678744136072    -1.009374765936    -0.742150724818    12.000000000000
         C           -3.352938136072     0.962373234064     1.118355275182    12.000000000000
         C           -4.015096136072    -0.673405765936    -0.536929724818    12.000000000000
         C            3.850209863928    -1.917369765936     0.552647275182    12.000000000000
         C           -4.355281136072     0.312518234064     0.394411275182    12.000000000000
         H           -0.456805136072     1.820428234064    -0.826202724818     1.007825032230
         H            4.184340863928     0.585953234064     0.384982275182     1.007825032230
         H            1.802736863928    -2.139288765936     0.077686275182     1.007825032230
         H            1.318507863928     3.547456234064    -0.822919724818     1.007825032230
         H            3.643058863928     2.906338234064    -0.171752724818     1.007825032230
         H           -1.231538136072     1.144142234064     1.472039275182     1.007825032230
         H           -2.397934136072    -1.791502765936    -1.442802724818     1.007825032230
         H           -3.616817136072     1.716188234064     1.856374275182     1.007825032230
         H           -4.794522136072    -1.184729765936    -1.096880724818     1.007825032230
         H            4.455821863928    -1.711440765936    -0.341540724818     1.007825032230
         H            3.836324863928    -2.995105765936     0.723320275182     1.007825032230
         H            4.335810863928    -1.447331765936     1.413545275182     1.007825032230
         H           -5.399163136072     0.568352234064     0.560075275182     1.007825032230

  Basis Set: AUG-CC-PVTZ
    Blend: AUG-CC-PVTZ
  Basis Set: (AUG-CC-PVTZ AUX)
    Blend: AUG-CC-PVTZ-JKFIT
	 Reference Energy          =    -667.2475217074227203 [Eh]
	 Singles Energy            =      -0.0000000000000000 [Eh]
	 Same-Spin Energy          =      -0.7351775087313752 [Eh]
	 Opposite-Spin Energy      =      -2.2672664008409478 [Eh]
	 Correlation Energy        =      -3.0024439095723228 [Eh]
	 Total Energy              =    -670.2499656169950413 [Eh]

	 ================> DF-SCS-MP2 Energies <==================
	-----------------------------------------------------------
	 SCS Same-Spin Scale       =       0.3333333333333333 [-]
	 SCS Opposite-Spin Scale   =       1.2000000000000000 [-]
	 SCS Same-Spin Energy      =      -0.2450591695771251 [Eh]
	 SCS Opposite-Spin Energy  =      -2.7207196810091374 [Eh]
	 SCS Correlation Energy    =      -2.9657788505862626 [Eh]
	 SCS Total Energy          =    -670.2133005580089957 [Eh]
	-----------------------------------------------------------

  Dipole Moment: [D]
     X:     0.1179      Y:     1.2380      Z:     0.4944     Total:     1.3383

*** Psi4 exiting successfully. Buy a developer a beer!
