                               Psi4 1.4a2.dev612

  ==> Input File <==

--------------------------------------------------------------------------
#psi4
#
memory 32 gb

molecule  {
0 1
  O       -0.0649480    -2.0007500    -0.4572220
  N        2.4573690    -1.4749290     0.4038410
  C        0.8099710     0.2105070    -0.2160820
  C        2.1525410    -0.1743900     0.0797160
  C       -0.2789970    -0.7898520    -0.2615780
  C       -1.6915990    -0.3449750    -0.0589870
  C        0.5343510     1.5458860    -0.5628900
  C        3.1364470     0.8361460     0.1179860
  C        1.5277130     2.5174420    -0.5614560
  C        2.8303350     2.1515420    -0.2122750
  C       -2.0336590     0.6403590     0.8794580
  C       -2.7272111    -1.2213220    -0.5456105
  C       -3.3755740     0.9555500     1.0975090
  C       -4.0377320    -0.6802290    -0.5577760
  C        3.8275740    -1.9241930     0.5318010
  C       -4.3779170     0.3056950     0.3735650
  H       -0.4794410     1.8136050    -0.8470490
  H        4.1617050     0.5791300     0.3641360
  H        1.7801010    -2.1461120     0.0568400
  H        1.2958720     3.5406330    -0.8437660
  H        3.6204230     2.8995150    -0.1925990
  H       -1.2541740     1.1373190     1.4511930
  H       -2.4205700    -1.7983260    -1.4636490
  H       -3.6394530     1.7093650     1.8355280
  H       -4.8171580    -1.1915530    -1.1177270
  H        4.4331860    -1.7182640    -0.3623870
  H        3.8136890    -3.0019290     0.7024740
  H        4.3131750    -1.4541550     1.3926990
  H       -5.4217990     0.5615290     0.5392290
units angstrom
no_reorient  #important for SAPT in psi4, default
symmetry c1  #important for SAPT in psi4, default
}

set PROPERTIES_ORIGIN ["COM"]
properties('MP2/aug-cc-pvtz', properties = ['dipole'])
--------------------------------------------------------------------------

    Molecular point group: c1
  Charge       = 0
  Multiplicity = 1
  Basis Set: AUG-CC-PVTZ
    Blend: AUG-CC-PVTZ
  Basis Set: (AUG-CC-PVTZ AUX)
    Blend: AUG-CC-PVTZ-JKFIT

    Orbital Energies [Eh]
    ---------------------

    Doubly Occupied:

       1A    -20.537612     2A    -15.561511     3A    -11.339206
       4A    -11.296987     5A    -11.256798     6A    -11.255987
       7A    -11.255023     8A    -11.252647     9A    -11.252456
      10A    -11.251761    11A    -11.250904    12A    -11.249488
      13A    -11.248207    14A    -11.238593    15A    -11.228777
      16A    -11.225863    17A     -1.371041    18A     -1.244048
      19A     -1.160922    20A     -1.141837    21A     -1.055631
      22A     -1.021338    23A     -1.020377    24A     -1.009860
      25A     -0.929110    26A     -0.888234    27A     -0.842786
      28A     -0.832502    29A     -0.807175    30A     -0.769257
      31A     -0.715989    32A     -0.700647    33A     -0.681521
      34A     -0.654931    35A     -0.643758    36A     -0.629849
      37A     -0.617364    38A     -0.614948    39A     -0.606476
      40A     -0.597682    41A     -0.590336    42A     -0.577272
      43A     -0.545909    44A     -0.542010    45A     -0.529409
      46A     -0.519861    47A     -0.507814    48A     -0.502889
      49A     -0.496397    50A     -0.483361    51A     -0.429095
      52A     -0.419160    53A     -0.349689    54A     -0.343993
      55A     -0.341687    56A     -0.291650

  @DF-RHF Final Energy:  -667.23302055661748

   => Energetics <=

    Nuclear Repulsion Energy =           1001.3335617327030604
    One-Electron Energy =               -2893.6738965950289639
    Two-Electron Energy =                1225.1073143057085417
    Total Energy =                       -667.2330205566174754
  Basis Set: (AUG-CC-PVTZ AUX)
    Blend: AUG-CC-PVTZ-RI
    Molecular point group: c1

    Geometry (in Angstrom), charge = 0, multiplicity = 1:

       Center              X                  Y                   Z               Mass
    ------------   -----------------  -----------------  -----------------  -----------------
         O           -0.038204691380    -1.984741768178    -0.462476061453    15.994914619570
         N            2.484112308620    -1.458920768178     0.398586938547    14.003074004430
         C            0.836714308620     0.226515231822    -0.221336061453    12.000000000000
         C            2.179284308620    -0.158381768178     0.074461938547    12.000000000000
         C           -0.252253691380    -0.773843768178    -0.266832061453    12.000000000000
         C           -1.664855691380    -0.328966768178    -0.064241061453    12.000000000000
         C            0.561094308620     1.561894231822    -0.568144061453    12.000000000000
         C            3.163190308620     0.852154231822     0.112731938547    12.000000000000
         C            1.554456308620     2.533450231822    -0.566710061453    12.000000000000
         C            2.857078308620     2.167550231822    -0.217529061453    12.000000000000
         C           -2.006915691380     0.656367231822     0.874203938547    12.000000000000
         C           -2.700467791380    -1.205313768178    -0.550864561453    12.000000000000
         C           -3.348830691380     0.971558231822     1.092254938547    12.000000000000
         C           -4.010988691380    -0.664220768178    -0.563030061453    12.000000000000
         C            3.854317308620    -1.908184768178     0.526546938547    12.000000000000
         C           -4.351173691380     0.321703231822     0.368310938547    12.000000000000
         H           -0.452697691380     1.829613231822    -0.852303061453     1.007825032230
         H            4.188448308620     0.595138231822     0.358881938547     1.007825032230
         H            1.806844308620    -2.130103768178     0.051585938547     1.007825032230
         H            1.322615308620     3.556641231822    -0.849020061453     1.007825032230
         H            3.647166308620     2.915523231822    -0.197853061453     1.007825032230
         H           -1.227430691380     1.153327231822     1.445938938547     1.007825032230
         H           -2.393826691380    -1.782317768178    -1.468903061453     1.007825032230
         H           -3.612709691380     1.725373231822     1.830273938547     1.007825032230
         H           -4.790414691380    -1.175544768178    -1.122981061453     1.007825032230
         H            4.459929308620    -1.702255768178    -0.367641061453     1.007825032230
         H            3.840432308620    -2.985920768178     0.697219938547     1.007825032230
         H            4.339918308620    -1.438146768178     1.387444938547     1.007825032230
         H           -5.395055691380     0.577537231822     0.533974938547     1.007825032230

  Basis Set: AUG-CC-PVTZ
    Blend: AUG-CC-PVTZ
  Basis Set: (AUG-CC-PVTZ AUX)
    Blend: AUG-CC-PVTZ-JKFIT
	 Reference Energy          =    -667.2330205566174754 [Eh]
	 Singles Energy            =      -0.0000000000000000 [Eh]
	 Same-Spin Energy          =      -0.7362760109104565 [Eh]
	 Opposite-Spin Energy      =      -2.2698528153322033 [Eh]
	 Correlation Energy        =      -3.0061288262426595 [Eh]
	 Total Energy              =    -670.2391493828600915 [Eh]

	 ================> DF-SCS-MP2 Energies <==================
	-----------------------------------------------------------
	 SCS Same-Spin Scale       =       0.3333333333333333 [-]
	 SCS Opposite-Spin Scale   =       1.2000000000000000 [-]
	 SCS Same-Spin Energy      =      -0.2454253369701521 [Eh]
	 SCS Opposite-Spin Energy  =      -2.7238233783986439 [Eh]
	 SCS Correlation Energy    =      -2.9692487153687961 [Eh]
	 SCS Total Energy          =    -670.2022692719863244 [Eh]
	-----------------------------------------------------------

  Dipole Moment: [D]
     X:     0.2185      Y:     1.4044      Z:     0.3492     Total:     1.4635

*** Psi4 exiting successfully. Buy a developer a beer!
