                               Psi4 1.4a2.dev612

  ==> Input File <==

--------------------------------------------------------------------------
#psi4
#
memory 32 gb

molecule  {
0 1
  O       -0.0649480    -2.0007500    -0.4572220
  N        2.4573690    -1.4749290     0.4038410
  C        0.8099710     0.2105070    -0.2160820
  C        2.1525410    -0.1743900     0.0797160
  C       -0.2789970    -0.7898520    -0.2615780
  C       -1.6915990    -0.3449750    -0.0589870
  C        0.5435050     1.5364747    -0.6111355
  C        3.1364470     0.8361460     0.1179860
  C        1.5277130     2.5174420    -0.5614560
  C        2.8303350     2.1515420    -0.2122750
  C       -2.0336590     0.6403590     0.8794580
  C       -2.7013800    -1.0161980    -0.7629970
  C       -3.3755740     0.9555500     1.0975090
  C       -4.0377320    -0.6802290    -0.5577760
  C        3.8275740    -1.9241930     0.5318010
  C       -4.3779170     0.3056950     0.3735650
  H       -0.4794410     1.8136050    -0.8470490
  H        4.1617050     0.5791300     0.3641360
  H        1.7801010    -2.1461120     0.0568400
  H        1.2958720     3.5406330    -0.8437660
  H        3.6204230     2.8995150    -0.1925990
  H       -1.2541740     1.1373190     1.4511930
  H       -2.4205700    -1.7983260    -1.4636490
  H       -3.6394530     1.7093650     1.8355280
  H       -4.8171580    -1.1915530    -1.1177270
  H        4.4331860    -1.7182640    -0.3623870
  H        3.8136890    -3.0019290     0.7024740
  H        4.3131750    -1.4541550     1.3926990
  H       -5.4217990     0.5615290     0.5392290
units angstrom
no_reorient  #important for SAPT in psi4, default
symmetry c1  #important for SAPT in psi4, default
}

set PROPERTIES_ORIGIN ["COM"]
properties('MP2/aug-cc-pvtz', properties = ['dipole'])
--------------------------------------------------------------------------

    Molecular point group: c1
  Charge       = 0
  Multiplicity = 1
  Basis Set: AUG-CC-PVTZ
    Blend: AUG-CC-PVTZ
  Basis Set: (AUG-CC-PVTZ AUX)
    Blend: AUG-CC-PVTZ-JKFIT

    Orbital Energies [Eh]
    ---------------------

    Doubly Occupied:

       1A    -20.540127     2A    -15.561770     3A    -11.340329
       4A    -11.297053     5A    -11.257060     6A    -11.252834
       7A    -11.252450     8A    -11.251568     9A    -11.250362
      10A    -11.249476    11A    -11.247138    12A    -11.245129
      13A    -11.243695    14A    -11.238707    15A    -11.228866
      16A    -11.226023    17A     -1.372773    18A     -1.244298
      19A     -1.163595    20A     -1.141763    21A     -1.055991
      22A     -1.025613    23A     -1.020712    24A     -1.009827
      25A     -0.929352    26A     -0.888765    27A     -0.845272
      28A     -0.834565    29A     -0.807457    30A     -0.771549
      31A     -0.718009    32A     -0.701265    33A     -0.683462
      34A     -0.655766    35A     -0.645152    36A     -0.633388
      37A     -0.619202    38A     -0.615104    39A     -0.608127
      40A     -0.601566    41A     -0.596091    42A     -0.577490
      43A     -0.545389    44A     -0.542059    45A     -0.530744
      46A     -0.520347    47A     -0.512842    48A     -0.503259
      49A     -0.501324    50A     -0.486773    51A     -0.429411
      52A     -0.419162    53A     -0.350411    54A     -0.345129
      55A     -0.343368    56A     -0.291944

  @DF-RHF Final Energy:  -667.26196802691629

   => Energetics <=

    Nuclear Repulsion Energy =           1002.3512474976049589
    One-Electron Energy =               -2895.6846229156503796
    Two-Electron Energy =                1226.0714073911290143
    Total Energy =                       -667.2619680269162927
  Basis Set: (AUG-CC-PVTZ AUX)
    Blend: AUG-CC-PVTZ-RI
    Molecular point group: c1

    Geometry (in Angstrom), charge = 0, multiplicity = 1:

       Center              X                  Y                   Z               Mass
    ------------   -----------------  -----------------  -----------------  -----------------
         O           -0.040193425481    -1.995867090686    -0.447376164163    15.994914619570
         N            2.482123574519    -1.470046090686     0.413686835837    14.003074004430
         C            0.834725574519     0.215389909314    -0.206236164163    12.000000000000
         C            2.177295574519    -0.169507090686     0.089561835837    12.000000000000
         C           -0.254242425481    -0.784969090686    -0.251732164163    12.000000000000
         C           -1.666844425481    -0.340092090686    -0.049141164163    12.000000000000
         C            0.568259574519     1.541357609314    -0.601289664163    12.000000000000
         C            3.161201574519     0.841028909314     0.127831835837    12.000000000000
         C            1.552467574519     2.522324909314    -0.551610164163    12.000000000000
         C            2.855089574519     2.156424909314    -0.202429164163    12.000000000000
         C           -2.008904425481     0.645241909314     0.889303835837    12.000000000000
         C           -2.676625425481    -1.011315090686    -0.753151164163    12.000000000000
         C           -3.350819425481     0.960432909314     1.107354835837    12.000000000000
         C           -4.012977425481    -0.675346090686    -0.547930164163    12.000000000000
         C            3.852328574519    -1.919310090686     0.541646835837    12.000000000000
         C           -4.353162425481     0.310577909314     0.383410835837    12.000000000000
         H           -0.454686425481     1.818487909314    -0.837203164163     1.007825032230
         H            4.186459574519     0.584012909314     0.373981835837     1.007825032230
         H            1.804855574519    -2.141229090686     0.066685835837     1.007825032230
         H            1.320626574519     3.545515909314    -0.833920164163     1.007825032230
         H            3.645177574519     2.904397909314    -0.182753164163     1.007825032230
         H           -1.229419425481     1.142201909314     1.461038835837     1.007825032230
         H           -2.395815425481    -1.793443090686    -1.453803164163     1.007825032230
         H           -3.614698425481     1.714247909314     1.845373835837     1.007825032230
         H           -4.792403425481    -1.186670090686    -1.107881164163     1.007825032230
         H            4.457940574519    -1.713381090686    -0.352541164163     1.007825032230
         H            3.838443574519    -2.997046090686     0.712319835837     1.007825032230
         H            4.337929574519    -1.449272090686     1.402544835837     1.007825032230
         H           -5.397044425481     0.566411909314     0.549074835837     1.007825032230

  Basis Set: AUG-CC-PVTZ
    Blend: AUG-CC-PVTZ
  Basis Set: (AUG-CC-PVTZ AUX)
    Blend: AUG-CC-PVTZ-JKFIT
	 Reference Energy          =    -667.2619680269162927 [Eh]
	 Singles Energy            =      -0.0000000000000000 [Eh]
	 Same-Spin Energy          =      -0.7345876241694952 [Eh]
	 Opposite-Spin Energy      =      -2.2653201786949722 [Eh]
	 Correlation Energy        =      -2.9999078028644672 [Eh]
	 Total Energy              =    -670.2618758297807062 [Eh]

	 ================> DF-SCS-MP2 Energies <==================
	-----------------------------------------------------------
	 SCS Same-Spin Scale       =       0.3333333333333333 [-]
	 SCS Opposite-Spin Scale   =       1.2000000000000000 [-]
	 SCS Same-Spin Energy      =      -0.2448625413898317 [Eh]
	 SCS Opposite-Spin Energy  =      -2.7183842144339665 [Eh]
	 SCS Correlation Energy    =      -2.9632467558237980 [Eh]
	 SCS Total Energy          =    -670.2252147827400677 [Eh]
	-----------------------------------------------------------

  Dipole Moment: [D]
     X:     0.2901      Y:     1.1908      Z:     0.3723     Total:     1.2809

*** Psi4 exiting successfully. Buy a developer a beer!
