                               Psi4 1.4a2.dev612

  ==> Input File <==

--------------------------------------------------------------------------
#psi4
#
memory 32 gb

molecule  {
0 1
  O       -0.0649480    -2.0007500    -0.4572220
  N        2.4573690    -1.4749290     0.4038410
  C        0.8099710     0.2105070    -0.2160820
  C        2.1525410    -0.1743900     0.0797160
  C       -0.2789970    -0.7898520    -0.2615780
  C       -1.6915990    -0.3449750    -0.0589870
  C        0.5343510     1.5458860    -0.5628900
  C        3.1364470     0.8361460     0.1179860
  C        1.5277130     2.5174420    -0.5614560
  C        2.8303350     2.1515420    -0.2122750
  C       -2.0336590     0.6403590     0.8794580
  C       -2.7013800    -1.0161980    -0.7629970
  C       -3.3755740     0.9555500     1.0975090
  C       -4.0377320    -0.6802290    -0.5577760
  C        3.8275740    -1.9241930     0.5318010
  C       -4.3779170     0.3056950     0.3735650
  H       -0.5107790     1.8448133    -0.7037173
  H        4.1617050     0.5791300     0.3641360
  H        1.7801010    -2.1461120     0.0568400
  H        1.2958720     3.5406330    -0.8437660
  H        3.6204230     2.8995150    -0.1925990
  H       -1.2541740     1.1373190     1.4511930
  H       -2.4205700    -1.7983260    -1.4636490
  H       -3.6394530     1.7093650     1.8355280
  H       -4.8171580    -1.1915530    -1.1177270
  H        4.4331860    -1.7182640    -0.3623870
  H        3.8136890    -3.0019290     0.7024740
  H        4.3131750    -1.4541550     1.3926990
  H       -5.4217990     0.5615290     0.5392290
units angstrom
no_reorient  #important for SAPT in psi4, default
symmetry c1  #important for SAPT in psi4, default
}

set PROPERTIES_ORIGIN ["COM"]
properties('MP2/aug-cc-pvtz', properties = ['dipole'])
--------------------------------------------------------------------------

    Molecular point group: c1
  Charge       = 0
  Multiplicity = 1
  Basis Set: AUG-CC-PVTZ
    Blend: AUG-CC-PVTZ
  Basis Set: (AUG-CC-PVTZ AUX)
    Blend: AUG-CC-PVTZ-JKFIT

    Orbital Energies [Eh]
    ---------------------

    Doubly Occupied:

       1A    -20.540080     2A    -15.561929     3A    -11.340467
       4A    -11.297208     5A    -11.257115     6A    -11.253237
       7A    -11.252660     8A    -11.251666     9A    -11.250372
      10A    -11.249613    11A    -11.247143    12A    -11.245358
      13A    -11.243783    14A    -11.238820    15A    -11.228974
      16A    -11.225997    17A     -1.372768    18A     -1.244440
      19A     -1.163815    20A     -1.142027    21A     -1.056307
      22A     -1.025772    23A     -1.020782    24A     -1.009798
      25A     -0.929502    26A     -0.888833    27A     -0.845147
      28A     -0.835061    29A     -0.807000    30A     -0.771701
      31A     -0.717698    32A     -0.701713    33A     -0.683811
      34A     -0.655504    35A     -0.645179    36A     -0.633609
      37A     -0.619556    38A     -0.614964    39A     -0.607613
      40A     -0.601394    41A     -0.595852    42A     -0.577712
      43A     -0.546084    44A     -0.542105    45A     -0.530962
      46A     -0.521123    47A     -0.512961    48A     -0.501843
      49A     -0.501090    50A     -0.487312    51A     -0.429468
      52A     -0.418996    53A     -0.350025    54A     -0.345856
      55A     -0.343444    56A     -0.292102

  @DF-RHF Final Energy:  -667.26128951053795

   => Energetics <=

    Nuclear Repulsion Energy =           1002.5734087033606556
    One-Electron Energy =               -2896.1186966470095285
    Two-Electron Energy =                1226.2839984331110372
    Total Energy =                       -667.2612895105378357
  Basis Set: (AUG-CC-PVTZ AUX)
    Blend: AUG-CC-PVTZ-RI
    Molecular point group: c1

    Geometry (in Angstrom), charge = 0, multiplicity = 1:

       Center              X                  Y                   Z               Mass
    ------------   -----------------  -----------------  -----------------  -----------------
         O           -0.039523451950    -1.996551071271    -0.450802977309    15.994914619570
         N            2.482793548050    -1.470730071271     0.410260022691    14.003074004430
         C            0.835395548050     0.214705928729    -0.209662977309    12.000000000000
         C            2.177965548050    -0.170191071271     0.086135022691    12.000000000000
         C           -0.253572451950    -0.785653071271    -0.255158977309    12.000000000000
         C           -1.666174451950    -0.340776071271    -0.052567977309    12.000000000000
         C            0.559775548050     1.550084928729    -0.556470977309    12.000000000000
         C            3.161871548050     0.840344928729     0.124405022691    12.000000000000
         C            1.553137548050     2.521640928729    -0.555036977309    12.000000000000
         C            2.855759548050     2.155740928729    -0.205855977309    12.000000000000
         C           -2.008234451950     0.644557928729     0.885877022691    12.000000000000
         C           -2.675955451950    -1.011999071271    -0.756577977309    12.000000000000
         C           -3.350149451950     0.959748928729     1.103928022691    12.000000000000
         C           -4.012307451950    -0.676030071271    -0.551356977309    12.000000000000
         C            3.852998548050    -1.919994071271     0.538220022691    12.000000000000
         C           -4.352492451950     0.309893928729     0.379984022691    12.000000000000
         H           -0.485354451950     1.849012228729    -0.697298277309     1.007825032230
         H            4.187129548050     0.583328928729     0.370555022691     1.007825032230
         H            1.805525548050    -2.141913071271     0.063259022691     1.007825032230
         H            1.321296548050     3.544831928729    -0.837346977309     1.007825032230
         H            3.645847548050     2.903713928729    -0.186179977309     1.007825032230
         H           -1.228749451950     1.141517928729     1.457612022691     1.007825032230
         H           -2.395145451950    -1.794127071271    -1.457229977309     1.007825032230
         H           -3.614028451950     1.713563928729     1.841947022691     1.007825032230
         H           -4.791733451950    -1.187354071271    -1.111307977309     1.007825032230
         H            4.458610548050    -1.714065071271    -0.355967977309     1.007825032230
         H            3.839113548050    -2.997730071271     0.708893022691     1.007825032230
         H            4.338599548050    -1.449956071271     1.399118022691     1.007825032230
         H           -5.396374451950     0.565727928729     0.545648022691     1.007825032230

  Basis Set: AUG-CC-PVTZ
    Blend: AUG-CC-PVTZ
  Basis Set: (AUG-CC-PVTZ AUX)
    Blend: AUG-CC-PVTZ-JKFIT
	 Reference Energy          =    -667.2612895105379494 [Eh]
	 Singles Energy            =      -0.0000000000000000 [Eh]
	 Same-Spin Energy          =      -0.7347911134515680 [Eh]
	 Opposite-Spin Energy      =      -2.2656001225089502 [Eh]
	 Correlation Energy        =      -3.0003912359605183 [Eh]
	 Total Energy              =    -670.2616807464984277 [Eh]

	 ================> DF-SCS-MP2 Energies <==================
	-----------------------------------------------------------
	 SCS Same-Spin Scale       =       0.3333333333333333 [-]
	 SCS Opposite-Spin Scale   =       1.2000000000000000 [-]
	 SCS Same-Spin Energy      =      -0.2449303711505227 [Eh]
	 SCS Opposite-Spin Energy  =      -2.7187201470107403 [Eh]
	 SCS Correlation Energy    =      -2.9636505181612631 [Eh]
	 SCS Total Energy          =    -670.2249400286991659 [Eh]
	-----------------------------------------------------------

  Dipole Moment: [D]
     X:     0.3079      Y:     1.1971      Z:     0.4231     Total:     1.3065

*** Psi4 exiting successfully. Buy a developer a beer!
