                               Psi4 1.4a2.dev612

  ==> Input File <==

--------------------------------------------------------------------------
#psi4
#
memory 32 gb

molecule  {
0 1
  O       -0.0649480    -2.0007500    -0.4572220
  N        2.4573690    -1.4749290     0.4038410
  C        0.8099710     0.2105070    -0.2160820
  C        2.1525410    -0.1743900     0.0797160
  C       -0.2789970    -0.7898520    -0.2615780
  C       -1.6915990    -0.3449750    -0.0589870
  C        0.5343510     1.5458860    -0.5628900
  C        3.1735875     0.8013102    -0.0754230
  C        1.5277130     2.5174420    -0.5614560
  C        2.8303350     2.1515420    -0.2122750
  C       -2.0336590     0.6403590     0.8794580
  C       -2.7013800    -1.0161980    -0.7629970
  C       -3.3755740     0.9555500     1.0975090
  C       -4.0377320    -0.6802290    -0.5577760
  C        3.8275740    -1.9241930     0.5318010
  C       -4.3779170     0.3056950     0.3735650
  H       -0.4794410     1.8136050    -0.8470490
  H        4.1617050     0.5791300     0.3641360
  H        1.7801010    -2.1461120     0.0568400
  H        1.2958720     3.5406330    -0.8437660
  H        3.6204230     2.8995150    -0.1925990
  H       -1.2541740     1.1373190     1.4511930
  H       -2.4205700    -1.7983260    -1.4636490
  H       -3.6394530     1.7093650     1.8355280
  H       -4.8171580    -1.1915530    -1.1177270
  H        4.4331860    -1.7182640    -0.3623870
  H        3.8136890    -3.0019290     0.7024740
  H        4.3131750    -1.4541550     1.3926990
  H       -5.4217990     0.5615290     0.5392290
units angstrom
no_reorient  #important for SAPT in psi4, default
symmetry c1  #important for SAPT in psi4, default
}

set PROPERTIES_ORIGIN ["COM"]
properties('MP2/aug-cc-pvtz', properties = ['dipole'])
--------------------------------------------------------------------------

    Molecular point group: c1
  Charge       = 0
  Multiplicity = 1
  Basis Set: AUG-CC-PVTZ
    Blend: AUG-CC-PVTZ
  Basis Set: (AUG-CC-PVTZ AUX)
    Blend: AUG-CC-PVTZ-JKFIT

    Orbital Energies [Eh]
    ---------------------

    Doubly Occupied:

       1A    -20.540237     2A    -15.562153     3A    -11.340610
       4A    -11.299024     5A    -11.256442     6A    -11.254930
       7A    -11.254519     8A    -11.251802     9A    -11.250563
      10A    -11.249599    11A    -11.247291    12A    -11.245339
      13A    -11.243852    14A    -11.238750    15A    -11.230977
      16A    -11.226256    17A     -1.372907    18A     -1.244135
      19A     -1.163849    20A     -1.141844    21A     -1.055998
      22A     -1.025766    23A     -1.020729    24A     -1.008851
      25A     -0.929082    26A     -0.888539    27A     -0.844957
      28A     -0.834663    29A     -0.806369    30A     -0.771127
      31A     -0.717308    32A     -0.702293    33A     -0.683158
      34A     -0.655393    35A     -0.645314    36A     -0.633378
      37A     -0.618344    38A     -0.615924    39A     -0.608349
      40A     -0.599161    41A     -0.596185    42A     -0.575398
      43A     -0.544335    44A     -0.541814    45A     -0.531094
      46A     -0.521469    47A     -0.513673    48A     -0.501677
      49A     -0.498072    50A     -0.486764    51A     -0.426921
      52A     -0.419362    53A     -0.350638    54A     -0.345507
      55A     -0.343550    56A     -0.293432

  @DF-RHF Final Energy:  -667.25348397342032

   => Energetics <=

    Nuclear Repulsion Energy =           1002.1115293025665096
    One-Electron Energy =               -2895.1906754780534357
    Two-Electron Energy =                1225.8256622020667237
    Total Energy =                       -667.2534839734203160
  Basis Set: (AUG-CC-PVTZ AUX)
    Blend: AUG-CC-PVTZ-RI
    Molecular point group: c1

    Geometry (in Angstrom), charge = 0, multiplicity = 1:

       Center              X                  Y                   Z               Mass
    ------------   -----------------  -----------------  -----------------  -----------------
         O           -0.041784322946    -1.994421830557    -0.439124319731    15.994914619570
         N            2.480532677054    -1.468600830557     0.421938680269    14.003074004430
         C            0.833134677054     0.216835169443    -0.197984319731    12.000000000000
         C            2.175704677054    -0.168061830557     0.097813680269    12.000000000000
         C           -0.255833322946    -0.783523830557    -0.243480319731    12.000000000000
         C           -1.668435322946    -0.338646830557    -0.040889319731    12.000000000000
         C            0.557514677054     1.552214169443    -0.544792319731    12.000000000000
         C            3.196751177054     0.807638369443    -0.057325319731    12.000000000000
         C            1.550876677054     2.523770169443    -0.543358319731    12.000000000000
         C            2.853498677054     2.157870169443    -0.194177319731    12.000000000000
         C           -2.010495322946     0.646687169443     0.897555680269    12.000000000000
         C           -2.678216322946    -1.009869830557    -0.744899319731    12.000000000000
         C           -3.352410322946     0.961878169443     1.115606680269    12.000000000000
         C           -4.014568322946    -0.673900830557    -0.539678319731    12.000000000000
         C            3.850737677054    -1.917864830557     0.549898680269    12.000000000000
         C           -4.354753322946     0.312023169443     0.391662680269    12.000000000000
         H           -0.456277322946     1.819933169443    -0.828951319731     1.007825032230
         H            4.184868677054     0.585458169443     0.382233680269     1.007825032230
         H            1.803264677054    -2.139783830557     0.074937680269     1.007825032230
         H            1.319035677054     3.546961169443    -0.825668319731     1.007825032230
         H            3.643586677054     2.905843169443    -0.174501319731     1.007825032230
         H           -1.231010322946     1.143647169443     1.469290680269     1.007825032230
         H           -2.397406322946    -1.791997830557    -1.445551319731     1.007825032230
         H           -3.616289322946     1.715693169443     1.853625680269     1.007825032230
         H           -4.793994322946    -1.185224830557    -1.099629319731     1.007825032230
         H            4.456349677054    -1.711935830557    -0.344289319731     1.007825032230
         H            3.836852677054    -2.995600830557     0.720571680269     1.007825032230
         H            4.336338677054    -1.447826830557     1.410796680269     1.007825032230
         H           -5.398635322946     0.567857169443     0.557326680269     1.007825032230

  Basis Set: AUG-CC-PVTZ
    Blend: AUG-CC-PVTZ
  Basis Set: (AUG-CC-PVTZ AUX)
    Blend: AUG-CC-PVTZ-JKFIT
	 Reference Energy          =    -667.2534839734203160 [Eh]
	 Singles Energy            =      -0.0000000000000000 [Eh]
	 Same-Spin Energy          =      -0.7349696476004215 [Eh]
	 Opposite-Spin Energy      =      -2.2665048310682501 [Eh]
	 Correlation Energy        =      -3.0014744786686718 [Eh]
	 Total Energy              =    -670.2549584520889994 [Eh]

	 ================> DF-SCS-MP2 Energies <==================
	-----------------------------------------------------------
	 SCS Same-Spin Scale       =       0.3333333333333333 [-]
	 SCS Opposite-Spin Scale   =       1.2000000000000000 [-]
	 SCS Same-Spin Energy      =      -0.2449898825334738 [Eh]
	 SCS Opposite-Spin Energy  =      -2.7198057972819001 [Eh]
	 SCS Correlation Energy    =      -2.9647956798153738 [Eh]
	 SCS Total Energy          =    -670.2182796532356406 [Eh]
	-----------------------------------------------------------

  Dipole Moment: [D]
     X:     0.1796      Y:     1.2364      Z:     0.4653     Total:     1.3332

*** Psi4 exiting successfully. Buy a developer a beer!
