                               Psi4 1.4a2.dev612

  ==> Input File <==

--------------------------------------------------------------------------
#psi4
#
memory 32 gb

molecule  {
0 1
  O       -0.0649480    -2.0007500    -0.4572220
  N        2.4573690    -1.4749290     0.4038410
  C        0.8099710     0.2105070    -0.2160820
  C        2.1525410    -0.1743900     0.0797160
  C       -0.2789970    -0.7898520    -0.2615780
  C       -1.6915990    -0.3449750    -0.0589870
  C        0.5801208     1.4988295    -0.8041177
  C        3.1364470     0.8361460     0.1179860
  C        1.5277130     2.5174420    -0.5614560
  C        2.8303350     2.1515420    -0.2122750
  C       -2.0336590     0.6403590     0.8794580
  C       -2.7013800    -1.0161980    -0.7629970
  C       -3.3755740     0.9555500     1.0975090
  C       -4.0377320    -0.6802290    -0.5577760
  C        3.8275740    -1.9241930     0.5318010
  C       -4.3779170     0.3056950     0.3735650
  H       -0.4794410     1.8136050    -0.8470490
  H        4.1617050     0.5791300     0.3641360
  H        1.7801010    -2.1461120     0.0568400
  H        1.2958720     3.5406330    -0.8437660
  H        3.6204230     2.8995150    -0.1925990
  H       -1.2541740     1.1373190     1.4511930
  H       -2.4205700    -1.7983260    -1.4636490
  H       -3.6394530     1.7093650     1.8355280
  H       -4.8171580    -1.1915530    -1.1177270
  H        4.4331860    -1.7182640    -0.3623870
  H        3.8136890    -3.0019290     0.7024740
  H        4.3131750    -1.4541550     1.3926990
  H       -5.4217990     0.5615290     0.5392290
units angstrom
no_reorient  #important for SAPT in psi4, default
symmetry c1  #important for SAPT in psi4, default
}

set PROPERTIES_ORIGIN ["COM"]
properties('MP2/aug-cc-pvtz', properties = ['dipole'])
--------------------------------------------------------------------------

    Molecular point group: c1
  Charge       = 0
  Multiplicity = 1
  Basis Set: AUG-CC-PVTZ
    Blend: AUG-CC-PVTZ
  Basis Set: (AUG-CC-PVTZ AUX)
    Blend: AUG-CC-PVTZ-JKFIT

    Orbital Energies [Eh]
    ---------------------

    Doubly Occupied:

       1A    -20.542170     2A    -15.561089     3A    -11.341107
       4A    -11.296026     5A    -11.257663     6A    -11.257130
       7A    -11.252013     8A    -11.251235     9A    -11.250643
      10A    -11.249908    11A    -11.247384    12A    -11.245513
      13A    -11.244033    14A    -11.242284    15A    -11.231130
      16A    -11.230968    17A     -1.374170    18A     -1.243911
      19A     -1.163591    20A     -1.138518    21A     -1.055119
      22A     -1.025636    23A     -1.020407    24A     -1.007534
      25A     -0.928629    26A     -0.888443    27A     -0.845037
      28A     -0.834097    29A     -0.805686    30A     -0.770970
      31A     -0.717373    32A     -0.698628    33A     -0.682564
      34A     -0.654304    35A     -0.645587    36A     -0.632893
      37A     -0.617481    38A     -0.614138    39A     -0.607893
      40A     -0.599410    41A     -0.595416    42A     -0.575913
      43A     -0.545635    44A     -0.540536    45A     -0.529453
      46A     -0.520446    47A     -0.512391    48A     -0.501698
      49A     -0.496649    50A     -0.486858    51A     -0.429124
      52A     -0.419337    53A     -0.350093    54A     -0.344473
      55A     -0.343355    56A     -0.290250

  @DF-RHF Final Energy:  -667.24103974704337

   => Energetics <=

    Nuclear Repulsion Energy =           1001.1215855669244092
    One-Electron Energy =               -2893.2173664259667021
    Two-Electron Energy =                1224.8547411119989192
    Total Energy =                       -667.2410397470434873
  Basis Set: (AUG-CC-PVTZ AUX)
    Blend: AUG-CC-PVTZ-RI
    Molecular point group: c1

    Geometry (in Angstrom), charge = 0, multiplicity = 1:

       Center              X                  Y                   Z               Mass
    ------------   -----------------  -----------------  -----------------  -----------------
         O           -0.042274857007    -1.993727142738    -0.436406057403    15.994914619570
         N            2.480042142993    -1.467906142738     0.424656942597    14.003074004430
         C            0.832644142993     0.217529857262    -0.195266057403    12.000000000000
         C            2.175214142993    -0.167367142738     0.100531942597    12.000000000000
         C           -0.256323857007    -0.782829142738    -0.240762057403    12.000000000000
         C           -1.668925857007    -0.337952142738    -0.038171057403    12.000000000000
         C            0.602793942993     1.505852357262    -0.783301757403    12.000000000000
         C            3.159120142993     0.843168857262     0.138801942597    12.000000000000
         C            1.550386142993     2.524464857262    -0.540640057403    12.000000000000
         C            2.853008142993     2.158564857262    -0.191459057403    12.000000000000
         C           -2.010985857007     0.647381857262     0.900273942597    12.000000000000
         C           -2.678706857007    -1.009175142738    -0.742181057403    12.000000000000
         C           -3.352900857007     0.962572857262     1.118324942597    12.000000000000
         C           -4.015058857007    -0.673206142738    -0.536960057403    12.000000000000
         C            3.850247142993    -1.917170142738     0.552616942597    12.000000000000
         C           -4.355243857007     0.312717857262     0.394380942597    12.000000000000
         H           -0.456767857007     1.820627857262    -0.826233057403     1.007825032230
         H            4.184378142993     0.586152857262     0.384951942597     1.007825032230
         H            1.802774142993    -2.139089142738     0.077655942597     1.007825032230
         H            1.318545142993     3.547655857262    -0.822950057403     1.007825032230
         H            3.643096142993     2.906537857262    -0.171783057403     1.007825032230
         H           -1.231500857007     1.144341857262     1.472008942597     1.007825032230
         H           -2.397896857007    -1.791303142738    -1.442833057403     1.007825032230
         H           -3.616779857007     1.716387857262     1.856343942597     1.007825032230
         H           -4.794484857007    -1.184530142738    -1.096911057403     1.007825032230
         H            4.455859142993    -1.711241142738    -0.341571057403     1.007825032230
         H            3.836362142993    -2.994906142738     0.723289942597     1.007825032230
         H            4.335848142993    -1.447132142738     1.413514942597     1.007825032230
         H           -5.399125857007     0.568551857262     0.560044942597     1.007825032230

  Basis Set: AUG-CC-PVTZ
    Blend: AUG-CC-PVTZ
  Basis Set: (AUG-CC-PVTZ AUX)
    Blend: AUG-CC-PVTZ-JKFIT
	 Reference Energy          =    -667.2410397470433736 [Eh]
	 Singles Energy            =      -0.0000000000000000 [Eh]
	 Same-Spin Energy          =      -0.7357752252370046 [Eh]
	 Opposite-Spin Energy      =      -2.2687571894288263 [Eh]
	 Correlation Energy        =      -3.0045324146658308 [Eh]
	 Total Energy              =    -670.2455721617092195 [Eh]

	 ================> DF-SCS-MP2 Energies <==================
	-----------------------------------------------------------
	 SCS Same-Spin Scale       =       0.3333333333333333 [-]
	 SCS Opposite-Spin Scale   =       1.2000000000000000 [-]
	 SCS Same-Spin Energy      =      -0.2452584084123348 [Eh]
	 SCS Opposite-Spin Energy  =      -2.7225086273145913 [Eh]
	 SCS Correlation Energy    =      -2.9677670357269261 [Eh]
	 SCS Total Energy          =    -670.2088067827703526 [Eh]
	-----------------------------------------------------------

  Dipole Moment: [D]
     X:     0.2672      Y:     1.1129      Z:     0.5194     Total:     1.2569

*** Psi4 exiting successfully. Buy a developer a beer!
