                               Psi4 1.4a2.dev612

  ==> Input File <==

--------------------------------------------------------------------------
#psi4
#
memory 32 gb

molecule  {
0 1
  O       -0.0649480    -2.0007500    -0.4572220
  N        2.4573690    -1.4749290     0.4038410
  C        0.8099710     0.2105070    -0.2160820
  C        2.1525410    -0.1743900     0.0797160
  C       -0.2789970    -0.7898520    -0.2615780
  C       -1.6915990    -0.3449750    -0.0589870
  C        0.5343510     1.5458860    -0.5628900
  C        3.1364470     0.8361460     0.1179860
  C        1.5277130     2.5174420    -0.5614560
  C        2.8303350     2.1515420    -0.2122750
  C       -2.0336590     0.6403590     0.8794580
  C       -2.7229059    -1.1871347    -0.5818416
  C       -3.3755740     0.9555500     1.0975090
  C       -4.0377320    -0.6802290    -0.5577760
  C        3.8275740    -1.9241930     0.5318010
  C       -4.3779170     0.3056950     0.3735650
  H       -0.4794410     1.8136050    -0.8470490
  H        4.1617050     0.5791300     0.3641360
  H        1.7801010    -2.1461120     0.0568400
  H        1.2958720     3.5406330    -0.8437660
  H        3.6204230     2.8995150    -0.1925990
  H       -1.2541740     1.1373190     1.4511930
  H       -2.4205700    -1.7983260    -1.4636490
  H       -3.6394530     1.7093650     1.8355280
  H       -4.8171580    -1.1915530    -1.1177270
  H        4.4331860    -1.7182640    -0.3623870
  H        3.8136890    -3.0019290     0.7024740
  H        4.3131750    -1.4541550     1.3926990
  H       -5.4217990     0.5615290     0.5392290
units angstrom
no_reorient  #important for SAPT in psi4, default
symmetry c1  #important for SAPT in psi4, default
}

set PROPERTIES_ORIGIN ["COM"]
properties('MP2/aug-cc-pvtz', properties = ['dipole'])
--------------------------------------------------------------------------

    Molecular point group: c1
  Charge       = 0
  Multiplicity = 1
  Basis Set: AUG-CC-PVTZ
    Blend: AUG-CC-PVTZ
  Basis Set: (AUG-CC-PVTZ AUX)
    Blend: AUG-CC-PVTZ-JKFIT

    Orbital Energies [Eh]
    ---------------------

    Doubly Occupied:

       1A    -20.537874     2A    -15.561558     3A    -11.339324
       4A    -11.297004     5A    -11.256838     6A    -11.254047
       7A    -11.252931     8A    -11.252611     9A    -11.252468
      10A    -11.251628    11A    -11.250749    12A    -11.247644
      13A    -11.247112    14A    -11.238554    15A    -11.228774
      16A    -11.225841    17A     -1.371253    18A     -1.244089
      19A     -1.161683    20A     -1.141881    21A     -1.055684
      22A     -1.022574    23A     -1.020584    24A     -1.009859
      25A     -0.929170    26A     -0.888366    27A     -0.843444
      28A     -0.833074    29A     -0.807244    30A     -0.769840
      31A     -0.716436    32A     -0.700859    33A     -0.682029
      34A     -0.655171    35A     -0.643976    36A     -0.630627
      37A     -0.617856    38A     -0.615000    39A     -0.606619
      40A     -0.598514    41A     -0.592402    42A     -0.577310
      43A     -0.545802    44A     -0.542036    45A     -0.529795
      46A     -0.520166    47A     -0.508702    48A     -0.503203
      49A     -0.498217    50A     -0.484587    51A     -0.429118
      52A     -0.419107    53A     -0.349833    54A     -0.344238
      55A     -0.342186    56A     -0.291710

  @DF-RHF Final Energy:  -667.24225725003578

   => Energetics <=

    Nuclear Repulsion Energy =           1001.6682601371156807
    One-Electron Energy =               -2894.3426263754026877
    Two-Electron Energy =                1225.4321089882510023
    Total Energy =                       -667.2422572500358910
  Basis Set: (AUG-CC-PVTZ AUX)
    Blend: AUG-CC-PVTZ-RI
    Molecular point group: c1

    Geometry (in Angstrom), charge = 0, multiplicity = 1:

       Center              X                  Y                   Z               Mass
    ------------   -----------------  -----------------  -----------------  -----------------
         O           -0.038449421224    -1.986685151199    -0.460416498265    15.994914619570
         N            2.483867578776    -1.460864151199     0.400646501735    14.003074004430
         C            0.836469578776     0.224571848801    -0.219276498265    12.000000000000
         C            2.179039578776    -0.160325151199     0.076521501735    12.000000000000
         C           -0.252498421224    -0.775787151199    -0.264772498265    12.000000000000
         C           -1.665100421224    -0.330910151199    -0.062181498265    12.000000000000
         C            0.560849578776     1.559950848801    -0.566084498265    12.000000000000
         C            3.162945578776     0.850210848801     0.114791501735    12.000000000000
         C            1.554211578776     2.531506848801    -0.564650498265    12.000000000000
         C            2.856833578776     2.165606848801    -0.215469498265    12.000000000000
         C           -2.007160421224     0.654423848801     0.876263501735    12.000000000000
         C           -2.696407321224    -1.173069851199    -0.585036098265    12.000000000000
         C           -3.349075421224     0.969614848801     1.094314501735    12.000000000000
         C           -4.011233421224    -0.666164151199    -0.560970498265    12.000000000000
         C            3.854072578776    -1.910128151199     0.528606501735    12.000000000000
         C           -4.351418421224     0.319759848801     0.370370501735    12.000000000000
         H           -0.452942421224     1.827669848801    -0.850243498265     1.007825032230
         H            4.188203578776     0.593194848801     0.360941501735     1.007825032230
         H            1.806599578776    -2.132047151199     0.053645501735     1.007825032230
         H            1.322370578776     3.554697848801    -0.846960498265     1.007825032230
         H            3.646921578776     2.913579848801    -0.195793498265     1.007825032230
         H           -1.227675421224     1.151383848801     1.447998501735     1.007825032230
         H           -2.394071421224    -1.784261151199    -1.466843498265     1.007825032230
         H           -3.612954421224     1.723429848801     1.832333501735     1.007825032230
         H           -4.790659421224    -1.177488151199    -1.120921498265     1.007825032230
         H            4.459684578776    -1.704199151199    -0.365581498265     1.007825032230
         H            3.840187578776    -2.987864151199     0.699279501735     1.007825032230
         H            4.339673578776    -1.440090151199     1.389504501735     1.007825032230
         H           -5.395300421224     0.575593848801     0.536034501735     1.007825032230

  Basis Set: AUG-CC-PVTZ
    Blend: AUG-CC-PVTZ
  Basis Set: (AUG-CC-PVTZ AUX)
    Blend: AUG-CC-PVTZ-JKFIT
	 Reference Energy          =    -667.2422572500357774 [Eh]
	 Singles Energy            =      -0.0000000000000000 [Eh]
	 Same-Spin Energy          =      -0.7357741256470924 [Eh]
	 Opposite-Spin Energy      =      -2.2684258005465310 [Eh]
	 Correlation Energy        =      -3.0041999261936234 [Eh]
	 Total Energy              =    -670.2464571762294554 [Eh]

	 ================> DF-SCS-MP2 Energies <==================
	-----------------------------------------------------------
	 SCS Same-Spin Scale       =       0.3333333333333333 [-]
	 SCS Opposite-Spin Scale   =       1.2000000000000000 [-]
	 SCS Same-Spin Energy      =      -0.2452580418823641 [Eh]
	 SCS Opposite-Spin Energy  =      -2.7221109606558369 [Eh]
	 SCS Correlation Energy    =      -2.9673690025382009 [Eh]
	 SCS Total Energy          =    -670.2096262525740258 [Eh]
	-----------------------------------------------------------

  Dipole Moment: [D]
     X:     0.2379      Y:     1.3547      Z:     0.3351     Total:     1.4156

*** Psi4 exiting successfully. Buy a developer a beer!
