                               Psi4 1.4a2.dev612

  ==> Input File <==

--------------------------------------------------------------------------
#psi4
#
memory 32 gb

molecule  {
0 1
  O       -0.0649480    -2.0007500    -0.4572220
  N        2.4573690    -1.4749290     0.4038410
  C        0.8099710     0.2105070    -0.2160820
  C        2.1525410    -0.1743900     0.0797160
  C       -0.2789970    -0.7898520    -0.2615780
  C       -1.6915990    -0.3449750    -0.0589870
  C        0.5343510     1.5458860    -0.5628900
  C        3.1643024     0.8100191    -0.0270708
  C        1.5277130     2.5174420    -0.5614560
  C        2.8303350     2.1515420    -0.2122750
  C       -2.0336590     0.6403590     0.8794580
  C       -2.7013800    -1.0161980    -0.7629970
  C       -3.3755740     0.9555500     1.0975090
  C       -4.0377320    -0.6802290    -0.5577760
  C        3.8275740    -1.9241930     0.5318010
  C       -4.3779170     0.3056950     0.3735650
  H       -0.4794410     1.8136050    -0.8470490
  H        4.1617050     0.5791300     0.3641360
  H        1.7801010    -2.1461120     0.0568400
  H        1.2958720     3.5406330    -0.8437660
  H        3.6204230     2.8995150    -0.1925990
  H       -1.2541740     1.1373190     1.4511930
  H       -2.4205700    -1.7983260    -1.4636490
  H       -3.6394530     1.7093650     1.8355280
  H       -4.8171580    -1.1915530    -1.1177270
  H        4.4331860    -1.7182640    -0.3623870
  H        3.8136890    -3.0019290     0.7024740
  H        4.3131750    -1.4541550     1.3926990
  H       -5.4217990     0.5615290     0.5392290
units angstrom
no_reorient  #important for SAPT in psi4, default
symmetry c1  #important for SAPT in psi4, default
}

set PROPERTIES_ORIGIN ["COM"]
properties('MP2/aug-cc-pvtz', properties = ['dipole'])
--------------------------------------------------------------------------

    Molecular point group: c1
  Charge       = 0
  Multiplicity = 1
  Basis Set: AUG-CC-PVTZ
    Blend: AUG-CC-PVTZ
  Basis Set: (AUG-CC-PVTZ AUX)
    Blend: AUG-CC-PVTZ-JKFIT

    Orbital Energies [Eh]
    ---------------------

    Doubly Occupied:

       1A    -20.540101     2A    -15.561851     3A    -11.340460
       4A    -11.298048     5A    -11.256608     6A    -11.253806
       7A    -11.253672     8A    -11.251651     9A    -11.250439
      10A    -11.249485    11A    -11.247183    12A    -11.245197
      13A    -11.243732    14A    -11.238694    15A    -11.229962
      16A    -11.226170    17A     -1.372780    18A     -1.244154
      19A     -1.163722    20A     -1.141999    21A     -1.056118
      22A     -1.025689    23A     -1.020729    24A     -1.009366
      25A     -0.929188    26A     -0.888686    27A     -0.845083
      28A     -0.834633    29A     -0.806882    30A     -0.771304
      31A     -0.717597    32A     -0.701996    33A     -0.683291
      34A     -0.655610    35A     -0.645200    36A     -0.633457
      37A     -0.618754    38A     -0.615893    39A     -0.608318
      40A     -0.600059    41A     -0.596218    42A     -0.576268
      43A     -0.544491    44A     -0.541979    45A     -0.531198
      46A     -0.521270    47A     -0.513451    48A     -0.501579
      49A     -0.499945    50A     -0.486936    51A     -0.427507
      52A     -0.419475    53A     -0.350632    54A     -0.345377
      55A     -0.343437    56A     -0.292963

  @DF-RHF Final Energy:  -667.25797774626722

   => Energetics <=

    Nuclear Repulsion Energy =           1002.3007880429772740
    One-Electron Energy =               -2895.5769460409692329
    Two-Electron Energy =                1226.0181802517247434
    Total Energy =                       -667.2579777462672155
  Basis Set: (AUG-CC-PVTZ AUX)
    Blend: AUG-CC-PVTZ-RI
    Molecular point group: c1

    Geometry (in Angstrom), charge = 0, multiplicity = 1:

       Center              X                  Y                   Z               Mass
    ------------   -----------------  -----------------  -----------------  -----------------
         O           -0.041256509820    -1.994916889494    -0.441872908958    15.994914619570
         N            2.481060490180    -1.469095889494     0.419190091042    14.003074004430
         C            0.833662490180     0.216340110506    -0.200732908958    12.000000000000
         C            2.176232490180    -0.168556889494     0.095065091042    12.000000000000
         C           -0.255305509820    -0.784018889494    -0.246228908958    12.000000000000
         C           -1.667907509820    -0.339141889494    -0.043637908958    12.000000000000
         C            0.558042490180     1.551719110506    -0.547540908958    12.000000000000
         C            3.187993890180     0.815852210506    -0.011721708958    12.000000000000
         C            1.551404490180     2.523275110506    -0.546106908958    12.000000000000
         C            2.854026490180     2.157375110506    -0.196925908958    12.000000000000
         C           -2.009967509820     0.646192110506     0.894807091042    12.000000000000
         C           -2.677688509820    -1.010364889494    -0.747647908958    12.000000000000
         C           -3.351882509820     0.961383110506     1.112858091042    12.000000000000
         C           -4.014040509820    -0.674395889494    -0.542426908958    12.000000000000
         C            3.851265490180    -1.918359889494     0.547150091042    12.000000000000
         C           -4.354225509820     0.311528110506     0.388914091042    12.000000000000
         H           -0.455749509820     1.819438110506    -0.831699908958     1.007825032230
         H            4.185396490180     0.584963110506     0.379485091042     1.007825032230
         H            1.803792490180    -2.140278889494     0.072189091042     1.007825032230
         H            1.319563490180     3.546466110506    -0.828416908958     1.007825032230
         H            3.644114490180     2.905348110506    -0.177249908958     1.007825032230
         H           -1.230482509820     1.143152110506     1.466542091042     1.007825032230
         H           -2.396878509820    -1.792492889494    -1.448299908958     1.007825032230
         H           -3.615761509820     1.715198110506     1.850877091042     1.007825032230
         H           -4.793466509820    -1.185719889494    -1.102377908958     1.007825032230
         H            4.456877490180    -1.712430889494    -0.347037908958     1.007825032230
         H            3.837380490180    -2.996095889494     0.717823091042     1.007825032230
         H            4.336866490180    -1.448321889494     1.408048091042     1.007825032230
         H           -5.398107509820     0.567362110506     0.554578091042     1.007825032230

  Basis Set: AUG-CC-PVTZ
    Blend: AUG-CC-PVTZ
  Basis Set: (AUG-CC-PVTZ AUX)
    Blend: AUG-CC-PVTZ-JKFIT
	 Reference Energy          =    -667.2579777462672155 [Eh]
	 Singles Energy            =      -0.0000000000000000 [Eh]
	 Same-Spin Energy          =      -0.7348047739591227 [Eh]
	 Opposite-Spin Energy      =      -2.2659319221384440 [Eh]
	 Correlation Energy        =      -3.0007366960975665 [Eh]
	 Total Energy              =    -670.2587144423647487 [Eh]

	 ================> DF-SCS-MP2 Energies <==================
	-----------------------------------------------------------
	 SCS Same-Spin Scale       =       0.3333333333333333 [-]
	 SCS Opposite-Spin Scale   =       1.2000000000000000 [-]
	 SCS Same-Spin Energy      =      -0.2449349246530409 [Eh]
	 SCS Opposite-Spin Energy  =      -2.7191183065661328 [Eh]
	 SCS Correlation Energy    =      -2.9640532312191739 [Eh]
	 SCS Total Energy          =    -670.2220309774863836 [Eh]
	-----------------------------------------------------------

  Dipole Moment: [D]
     X:     0.2311      Y:     1.2318      Z:     0.4363     Total:     1.3271

*** Psi4 exiting successfully. Buy a developer a beer!
