                               Psi4 1.4a2.dev612

  ==> Input File <==

--------------------------------------------------------------------------
#psi4
#
memory 32 gb

molecule  {
0 1
  O       -0.0649480    -2.0007500    -0.4572220
  N        2.4573690    -1.4749290     0.4038410
  C        0.8099710     0.2105070    -0.2160820
  C        2.1525410    -0.1743900     0.0797160
  C       -0.2789970    -0.7898520    -0.2615780
  C       -1.6681075    -0.3811241     0.1872677
  C        0.5343510     1.5458860    -0.5628900
  C        3.1364470     0.8361460     0.1179860
  C        1.5277130     2.5174420    -0.5614560
  C        2.8303350     2.1515420    -0.2122750
  C       -2.0336590     0.6403590     0.8794580
  C       -2.7013800    -1.0161980    -0.7629970
  C       -3.3755740     0.9555500     1.0975090
  C       -4.0377320    -0.6802290    -0.5577760
  C        3.8275740    -1.9241930     0.5318010
  C       -4.3779170     0.3056950     0.3735650
  H       -0.4794410     1.8136050    -0.8470490
  H        4.1617050     0.5791300     0.3641360
  H        1.7801010    -2.1461120     0.0568400
  H        1.2958720     3.5406330    -0.8437660
  H        3.6204230     2.8995150    -0.1925990
  H       -1.2541740     1.1373190     1.4511930
  H       -2.4205700    -1.7983260    -1.4636490
  H       -3.6394530     1.7093650     1.8355280
  H       -4.8171580    -1.1915530    -1.1177270
  H        4.4331860    -1.7182640    -0.3623870
  H        3.8136890    -3.0019290     0.7024740
  H        4.3131750    -1.4541550     1.3926990
  H       -5.4217990     0.5615290     0.5392290
units angstrom
no_reorient  #important for SAPT in psi4, default
symmetry c1  #important for SAPT in psi4, default
}

set PROPERTIES_ORIGIN ["COM"]
properties('MP2/aug-cc-pvtz', properties = ['dipole'])
--------------------------------------------------------------------------

    Molecular point group: c1
  Charge       = 0
  Multiplicity = 1
  Basis Set: AUG-CC-PVTZ
    Blend: AUG-CC-PVTZ
  Basis Set: (AUG-CC-PVTZ AUX)
    Blend: AUG-CC-PVTZ-JKFIT

    Orbital Energies [Eh]
    ---------------------

    Doubly Occupied:

       1A    -20.541745     2A    -15.562084     3A    -11.343480
       4A    -11.297615     5A    -11.258378     6A    -11.257329
       7A    -11.253093     8A    -11.252527     9A    -11.250716
      10A    -11.250171    11A    -11.244761    12A    -11.242493
      13A    -11.239257    14A    -11.237384    15A    -11.229249
      16A    -11.226138    17A     -1.373596    18A     -1.244670
      19A     -1.166424    20A     -1.142160    21A     -1.060729
      22A     -1.030446    23A     -1.010740    24A     -1.010268
      25A     -0.929394    26A     -0.887563    27A     -0.842405
      28A     -0.835170    29A     -0.809142    30A     -0.770174
      31A     -0.717051    32A     -0.701989    33A     -0.685960
      34A     -0.657247    35A     -0.643829    36A     -0.634097
      37A     -0.617547    38A     -0.615435    39A     -0.613553
      40A     -0.600421    41A     -0.587406    42A     -0.578205
      43A     -0.545052    44A     -0.542491    45A     -0.531027
      46A     -0.522106    47A     -0.514723    48A     -0.504956
      49A     -0.493910    50A     -0.479563    51A     -0.429643
      52A     -0.414902    53A     -0.365829    54A     -0.348312
      55A     -0.329184    56A     -0.292329

  @DF-RHF Final Energy:  -667.22666704988160

   => Energetics <=

    Nuclear Repulsion Energy =           1002.1510036141071396
    One-Electron Energy =               -2895.2232067213199116
    Two-Electron Energy =                1225.8455360573311737
    Total Energy =                       -667.2266670498815984
  Basis Set: (AUG-CC-PVTZ AUX)
    Blend: AUG-CC-PVTZ-RI
    Molecular point group: c1

    Geometry (in Angstrom), charge = 0, multiplicity = 1:

       Center              X                  Y                   Z               Mass
    ------------   -----------------  -----------------  -----------------  -----------------
         O           -0.041008443165    -1.994347175790    -0.464117079308    15.994914619570
         N            2.481308556835    -1.468526175790     0.396945920692    14.003074004430
         C            0.833910556835     0.216909824210    -0.222977079308    12.000000000000
         C            2.176480556835    -0.167987175790     0.072820920692    12.000000000000
         C           -0.255057443165    -0.783449175790    -0.268473079308    12.000000000000
         C           -1.644167943165    -0.374721275790     0.180372620692    12.000000000000
         C            0.558290556835     1.552288824210    -0.569785079308    12.000000000000
         C            3.160386556835     0.842548824210     0.111090920692    12.000000000000
         C            1.551652556835     2.523844824210    -0.568351079308    12.000000000000
         C            2.854274556835     2.157944824210    -0.219170079308    12.000000000000
         C           -2.009719443165     0.646761824210     0.872562920692    12.000000000000
         C           -2.677440443165    -1.009795175790    -0.769892079308    12.000000000000
         C           -3.351634443165     0.961952824210     1.090613920692    12.000000000000
         C           -4.013792443165    -0.673826175790    -0.564671079308    12.000000000000
         C            3.851513556835    -1.917790175790     0.524905920692    12.000000000000
         C           -4.353977443165     0.312097824210     0.366669920692    12.000000000000
         H           -0.455501443165     1.820007824210    -0.853944079308     1.007825032230
         H            4.185644556835     0.585532824210     0.357240920692     1.007825032230
         H            1.804040556835    -2.139709175790     0.049944920692     1.007825032230
         H            1.319811556835     3.547035824210    -0.850661079308     1.007825032230
         H            3.644362556835     2.905917824210    -0.199494079308     1.007825032230
         H           -1.230234443165     1.143721824210     1.444297920692     1.007825032230
         H           -2.396630443165    -1.791923175790    -1.470544079308     1.007825032230
         H           -3.615513443165     1.715767824210     1.828632920692     1.007825032230
         H           -4.793218443165    -1.185150175790    -1.124622079308     1.007825032230
         H            4.457125556835    -1.711861175790    -0.369282079308     1.007825032230
         H            3.837628556835    -2.995526175790     0.695578920692     1.007825032230
         H            4.337114556835    -1.447752175790     1.385803920692     1.007825032230
         H           -5.397859443165     0.567931824210     0.532333920692     1.007825032230

  Basis Set: AUG-CC-PVTZ
    Blend: AUG-CC-PVTZ
  Basis Set: (AUG-CC-PVTZ AUX)
    Blend: AUG-CC-PVTZ-JKFIT
	 Reference Energy          =    -667.2266670498815984 [Eh]
	 Singles Energy            =      -0.0000000000000000 [Eh]
	 Same-Spin Energy          =      -0.7343856662550128 [Eh]
	 Opposite-Spin Energy      =      -2.2674112387628940 [Eh]
	 Correlation Energy        =      -3.0017969050179065 [Eh]
	 Total Energy              =    -670.2284639548995528 [Eh]

	 ================> DF-SCS-MP2 Energies <==================
	-----------------------------------------------------------
	 SCS Same-Spin Scale       =       0.3333333333333333 [-]
	 SCS Opposite-Spin Scale   =       1.2000000000000000 [-]
	 SCS Same-Spin Energy      =      -0.2447952220850043 [Eh]
	 SCS Opposite-Spin Energy  =      -2.7208934865154726 [Eh]
	 SCS Correlation Energy    =      -2.9656887086004771 [Eh]
	 SCS Total Energy          =    -670.1923557584821083 [Eh]
	-----------------------------------------------------------

  Dipole Moment: [D]
     X:     0.3083      Y:     1.2068      Z:     0.3330     Total:     1.2893

*** Psi4 exiting successfully. Buy a developer a beer!
