                               Psi4 1.4a2.dev612

  ==> Input File <==

--------------------------------------------------------------------------
#psi4
#
memory 32 gb

molecule  {
0 1
  O       -0.0649480    -2.0007500    -0.4572220
  N        2.4573690    -1.4749290     0.4038410
  C        0.8099710     0.2105070    -0.2160820
  C        2.1525410    -0.1743900     0.0797160
  C       -0.2789970    -0.7898520    -0.2615780
  C       -1.6915990    -0.3449750    -0.0589870
  C        0.5343510     1.5458860    -0.5628900
  C        3.1364470     0.8361460     0.1179860
  C        1.5277130     2.5174420    -0.5614560
  C        2.8303350     2.1515420    -0.2122750
  C       -2.0336590     0.6403590     0.8794580
  C       -2.7013800    -1.0161980    -0.7629970
  C       -3.3755740     0.9555500     1.0975090
  C       -4.0377320    -0.6802290    -0.5577760
  C        3.8275740    -1.9241930     0.5318010
  C       -4.3779170     0.3056950     0.3735650
  H       -0.5003330     1.8344106    -0.7514945
  H        4.1617050     0.5791300     0.3641360
  H        1.7801010    -2.1461120     0.0568400
  H        1.2958720     3.5406330    -0.8437660
  H        3.6204230     2.8995150    -0.1925990
  H       -1.2541740     1.1373190     1.4511930
  H       -2.4205700    -1.7983260    -1.4636490
  H       -3.6394530     1.7093650     1.8355280
  H       -4.8171580    -1.1915530    -1.1177270
  H        4.4331860    -1.7182640    -0.3623870
  H        3.8136890    -3.0019290     0.7024740
  H        4.3131750    -1.4541550     1.3926990
  H       -5.4217990     0.5615290     0.5392290
units angstrom
no_reorient  #important for SAPT in psi4, default
symmetry c1  #important for SAPT in psi4, default
}

set PROPERTIES_ORIGIN ["COM"]
properties('MP2/aug-cc-pvtz', properties = ['dipole'])
--------------------------------------------------------------------------

    Molecular point group: c1
  Charge       = 0
  Multiplicity = 1
  Basis Set: AUG-CC-PVTZ
    Blend: AUG-CC-PVTZ
  Basis Set: (AUG-CC-PVTZ AUX)
    Blend: AUG-CC-PVTZ-JKFIT

    Orbital Energies [Eh]
    ---------------------

    Doubly Occupied:

       1A    -20.539958     2A    -15.561921     3A    -11.340359
       4A    -11.297210     5A    -11.257102     6A    -11.252848
       7A    -11.252653     8A    -11.251588     9A    -11.250338
      10A    -11.249525    11A    -11.247115    12A    -11.245236
      13A    -11.243714    14A    -11.238724    15A    -11.228912
      16A    -11.225928    17A     -1.372675    18A     -1.244422
      19A     -1.163728    20A     -1.142045    21A     -1.056250
      22A     -1.025702    23A     -1.020741    24A     -1.009899
      25A     -0.929479    26A     -0.888821    27A     -0.845181
      28A     -0.834936    29A     -0.807290    30A     -0.771657
      31A     -0.717835    32A     -0.701691    33A     -0.683716
      34A     -0.655655    35A     -0.645133    36A     -0.633517
      37A     -0.619562    38A     -0.615053    39A     -0.607801
      40A     -0.601517    41A     -0.595988    42A     -0.577683
      43A     -0.545774    44A     -0.542168    45A     -0.530922
      46A     -0.520829    47A     -0.512876    48A     -0.502473
      49A     -0.501407    50A     -0.487072    51A     -0.429456
      52A     -0.419026    53A     -0.350190    54A     -0.345653
      55A     -0.343406    56A     -0.292095

  @DF-RHF Final Energy:  -667.26220676961702

   => Energetics <=

    Nuclear Repulsion Energy =           1002.5626880331789152
    One-Electron Energy =               -2896.1008786440193035
    Two-Electron Energy =                1226.2759838412234785
    Total Energy =                       -667.2622067696170234
  Basis Set: (AUG-CC-PVTZ AUX)
    Blend: AUG-CC-PVTZ-RI
    Molecular point group: c1

    Geometry (in Angstrom), charge = 0, multiplicity = 1:

       Center              X                  Y                   Z               Mass
    ------------   -----------------  -----------------  -----------------  -----------------
         O           -0.039573322885    -1.996501407057    -0.450574881035    15.994914619570
         N            2.482743677115    -1.470680407057     0.410488118965    14.003074004430
         C            0.835345677115     0.214755592943    -0.209434881035    12.000000000000
         C            2.177915677115    -0.170141407057     0.086363118965    12.000000000000
         C           -0.253622322885    -0.785603407057    -0.254930881035    12.000000000000
         C           -1.666224322885    -0.340726407057    -0.052339881035    12.000000000000
         C            0.559725677115     1.550134592943    -0.556242881035    12.000000000000
         C            3.161821677115     0.840394592943     0.124633118965    12.000000000000
         C            1.553087677115     2.521690592943    -0.554808881035    12.000000000000
         C            2.855709677115     2.155790592943    -0.205627881035    12.000000000000
         C           -2.008284322885     0.644607592943     0.886105118965    12.000000000000
         C           -2.676005322885    -1.011949407057    -0.756349881035    12.000000000000
         C           -3.350199322885     0.959798592943     1.104156118965    12.000000000000
         C           -4.012357322885    -0.675980407057    -0.551128881035    12.000000000000
         C            3.852948677115    -1.919944407057     0.538448118965    12.000000000000
         C           -4.352542322885     0.309943592943     0.380212118965    12.000000000000
         H           -0.474958322885     1.838659192943    -0.744847381035     1.007825032230
         H            4.187079677115     0.583378592943     0.370783118965     1.007825032230
         H            1.805475677115    -2.141863407057     0.063487118965     1.007825032230
         H            1.321246677115     3.544881592943    -0.837118881035     1.007825032230
         H            3.645797677115     2.903763592943    -0.185951881035     1.007825032230
         H           -1.228799322885     1.141567592943     1.457840118965     1.007825032230
         H           -2.395195322885    -1.794077407057    -1.457001881035     1.007825032230
         H           -3.614078322885     1.713613592943     1.842175118965     1.007825032230
         H           -4.791783322885    -1.187304407057    -1.111079881035     1.007825032230
         H            4.458560677115    -1.714015407057    -0.355739881035     1.007825032230
         H            3.839063677115    -2.997680407057     0.709121118965     1.007825032230
         H            4.338549677115    -1.449906407057     1.399346118965     1.007825032230
         H           -5.396424322885     0.565777592943     0.545876118965     1.007825032230

  Basis Set: AUG-CC-PVTZ
    Blend: AUG-CC-PVTZ
  Basis Set: (AUG-CC-PVTZ AUX)
    Blend: AUG-CC-PVTZ-JKFIT
	 Reference Energy          =    -667.2622067696170234 [Eh]
	 Singles Energy            =      -0.0000000000000000 [Eh]
	 Same-Spin Energy          =      -0.7346963976834270 [Eh]
	 Opposite-Spin Energy      =      -2.2654294738564227 [Eh]
	 Correlation Energy        =      -3.0001258715398498 [Eh]
	 Total Energy              =    -670.2623326411568314 [Eh]

	 ================> DF-SCS-MP2 Energies <==================
	-----------------------------------------------------------
	 SCS Same-Spin Scale       =       0.3333333333333333 [-]
	 SCS Opposite-Spin Scale   =       1.2000000000000000 [-]
	 SCS Same-Spin Energy      =      -0.2448987992278090 [Eh]
	 SCS Opposite-Spin Energy  =      -2.7185153686277070 [Eh]
	 SCS Correlation Energy    =      -2.9634141678555159 [Eh]
	 SCS Total Energy          =    -670.2256209374725131 [Eh]
	-----------------------------------------------------------

  Dipole Moment: [D]
     X:     0.3089      Y:     1.2000      Z:     0.3968     Total:     1.3010

*** Psi4 exiting successfully. Buy a developer a beer!
