                               Psi4 1.4a2.dev612

  ==> Input File <==

--------------------------------------------------------------------------
#psi4
#
memory 32 gb

molecule  {
0 1
  O       -0.0649480    -2.0007500    -0.4572220
  N        2.4573690    -1.4749290     0.4038410
  C        0.8099710     0.2105070    -0.2160820
  C        2.1525410    -0.1743900     0.0797160
  C       -0.2789970    -0.7898520    -0.2615780
  C       -1.6915990    -0.3449750    -0.0589870
  C        0.5343510     1.5458860    -0.5628900
  C        3.1364470     0.8361460     0.1179860
  C        1.5277130     2.5174420    -0.5614560
  C        2.8303350     2.1515420    -0.2122750
  C       -2.0336590     0.6403590     0.8794580
  C       -2.7013800    -1.0161980    -0.7629970
  C       -3.3755740     0.9555500     1.0975090
  C       -4.0377320    -0.6802290    -0.5577760
  C        3.8275740    -1.9241930     0.5318010
  C       -4.3779170     0.3056950     0.3735650
  H       -0.5421169     1.8760217    -0.5603856
  H        4.1617050     0.5791300     0.3641360
  H        1.7801010    -2.1461120     0.0568400
  H        1.2958720     3.5406330    -0.8437660
  H        3.6204230     2.8995150    -0.1925990
  H       -1.2541740     1.1373190     1.4511930
  H       -2.4205700    -1.7983260    -1.4636490
  H       -3.6394530     1.7093650     1.8355280
  H       -4.8171580    -1.1915530    -1.1177270
  H        4.4331860    -1.7182640    -0.3623870
  H        3.8136890    -3.0019290     0.7024740
  H        4.3131750    -1.4541550     1.3926990
  H       -5.4217990     0.5615290     0.5392290
units angstrom
no_reorient  #important for SAPT in psi4, default
symmetry c1  #important for SAPT in psi4, default
}

set PROPERTIES_ORIGIN ["COM"]
properties('MP2/aug-cc-pvtz', properties = ['dipole'])
--------------------------------------------------------------------------

    Molecular point group: c1
  Charge       = 0
  Multiplicity = 1
  Basis Set: AUG-CC-PVTZ
    Blend: AUG-CC-PVTZ
  Basis Set: (AUG-CC-PVTZ AUX)
    Blend: AUG-CC-PVTZ-JKFIT

    Orbital Energies [Eh]
    ---------------------

    Doubly Occupied:

       1A    -20.540464     2A    -15.561985     3A    -11.340778
       4A    -11.297277     5A    -11.257201     6A    -11.255422
       7A    -11.252748     8A    -11.251848     9A    -11.250409
      10A    -11.249828    11A    -11.247161    12A    -11.245664
      13A    -11.243932    14A    -11.239244    15A    -11.229373
      16A    -11.226420    17A     -1.373059    18A     -1.244547
      19A     -1.164007    20A     -1.141963    21A     -1.056422
      22A     -1.025930    23A     -1.020891    24A     -1.009325
      25A     -0.929622    26A     -0.888798    27A     -0.844974
      28A     -0.835219    29A     -0.805583    30A     -0.771790
      31A     -0.717127    32A     -0.701555    33A     -0.684067
      34A     -0.654903    35A     -0.645261    36A     -0.633903
      37A     -0.619133    38A     -0.614726    39A     -0.607013
      40A     -0.600576    41A     -0.594659    42A     -0.577856
      43A     -0.546852    44A     -0.541881    45A     -0.531133
      46A     -0.522030    47A     -0.513332    48A     -0.501900
      49A     -0.497148    50A     -0.487898    51A     -0.429383
      52A     -0.418819    53A     -0.349644    54A     -0.346137
      55A     -0.343370    56A     -0.292160

  @DF-RHF Final Energy:  -667.25587934010457

   => Energetics <=

    Nuclear Repulsion Energy =           1002.5520983647003277
    One-Electron Energy =               -2896.0672600311190763
    Two-Electron Energy =                1226.2592823263144055
    Total Energy =                       -667.2558793401044568
  Basis Set: (AUG-CC-PVTZ AUX)
    Blend: AUG-CC-PVTZ-RI
    Molecular point group: c1

    Geometry (in Angstrom), charge = 0, multiplicity = 1:

       Center              X                  Y                   Z               Mass
    ------------   -----------------  -----------------  -----------------  -----------------
         O           -0.039373839620    -1.996700065347    -0.451487266607    15.994914619570
         N            2.482943160380    -1.470879065347     0.409575733393    14.003074004430
         C            0.835545160380     0.214556934653    -0.210347266607    12.000000000000
         C            2.178115160380    -0.170340065347     0.085450733393    12.000000000000
         C           -0.253422839620    -0.785802065347    -0.255843266607    12.000000000000
         C           -1.666024839620    -0.340925065347    -0.053252266607    12.000000000000
         C            0.559925160380     1.549935934653    -0.557155266607    12.000000000000
         C            3.162021160380     0.840195934653     0.123720733393    12.000000000000
         C            1.553287160380     2.521491934653    -0.555721266607    12.000000000000
         C            2.855909160380     2.155591934653    -0.206540266607    12.000000000000
         C           -2.008084839620     0.644408934653     0.885192733393    12.000000000000
         C           -2.675805839620    -1.012148065347    -0.757262266607    12.000000000000
         C           -3.349999839620     0.959599934653     1.103243733393    12.000000000000
         C           -4.012157839620    -0.676179065347    -0.552041266607    12.000000000000
         C            3.853148160380    -1.920143065347     0.537535733393    12.000000000000
         C           -4.352342839620     0.309744934653     0.379299733393    12.000000000000
         H           -0.516542739620     1.880071634653    -0.554650866607     1.007825032230
         H            4.187279160380     0.583179934653     0.369870733393     1.007825032230
         H            1.805675160380    -2.142062065347     0.062574733393     1.007825032230
         H            1.321446160380     3.544682934653    -0.838031266607     1.007825032230
         H            3.645997160380     2.903564934653    -0.186864266607     1.007825032230
         H           -1.228599839620     1.141368934653     1.456927733393     1.007825032230
         H           -2.394995839620    -1.794276065347    -1.457914266607     1.007825032230
         H           -3.613878839620     1.713414934653     1.841262733393     1.007825032230
         H           -4.791583839620    -1.187503065347    -1.111992266607     1.007825032230
         H            4.458760160380    -1.714214065347    -0.356652266607     1.007825032230
         H            3.839263160380    -2.997879065347     0.708208733393     1.007825032230
         H            4.338749160380    -1.450105065347     1.398433733393     1.007825032230
         H           -5.396224839620     0.565578934653     0.544963733393     1.007825032230

  Basis Set: AUG-CC-PVTZ
    Blend: AUG-CC-PVTZ
  Basis Set: (AUG-CC-PVTZ AUX)
    Blend: AUG-CC-PVTZ-JKFIT
	 Reference Energy          =    -667.2558793401045705 [Eh]
	 Singles Energy            =      -0.0000000000000000 [Eh]
	 Same-Spin Energy          =      -0.7352626742836030 [Eh]
	 Opposite-Spin Energy      =      -2.2665074915762142 [Eh]
	 Correlation Energy        =      -3.0017701658598170 [Eh]
	 Total Energy              =    -670.2576495059644230 [Eh]

	 ================> DF-SCS-MP2 Energies <==================
	-----------------------------------------------------------
	 SCS Same-Spin Scale       =       0.3333333333333333 [-]
	 SCS Opposite-Spin Scale   =       1.2000000000000000 [-]
	 SCS Same-Spin Energy      =      -0.2450875580945343 [Eh]
	 SCS Opposite-Spin Energy  =      -2.7198089898914568 [Eh]
	 SCS Correlation Energy    =      -2.9648965479859912 [Eh]
	 SCS Total Energy          =    -670.2207758880905430 [Eh]
	-----------------------------------------------------------

  Dipole Moment: [D]
     X:     0.3235      Y:     1.1839      Z:     0.5044     Total:     1.3269

*** Psi4 exiting successfully. Buy a developer a beer!
