                               Psi4 1.4a2.dev612

  ==> Input File <==

--------------------------------------------------------------------------
#psi4
#
memory 32 gb

molecule  {
0 1
  O       -0.0649480    -2.0007500    -0.4572220
  N        2.4573690    -1.4749290     0.4038410
  C        0.8099710     0.2105070    -0.2160820
  C        2.1525410    -0.1743900     0.0797160
  C       -0.2789970    -0.7898520    -0.2615780
  C       -1.6915990    -0.3449750    -0.0589870
  C        0.5343510     1.5458860    -0.5628900
  C        3.1364470     0.8361460     0.1179860
  C        1.5277130     2.5174420    -0.5614560
  C        2.8303350     2.1515420    -0.2122750
  C       -2.0336590     0.6403590     0.8794580
  C       -2.7099904    -1.0845727    -0.6905348
  C       -3.3755740     0.9555500     1.0975090
  C       -4.0377320    -0.6802290    -0.5577760
  C        3.8275740    -1.9241930     0.5318010
  C       -4.3779170     0.3056950     0.3735650
  H       -0.4794410     1.8136050    -0.8470490
  H        4.1617050     0.5791300     0.3641360
  H        1.7801010    -2.1461120     0.0568400
  H        1.2958720     3.5406330    -0.8437660
  H        3.6204230     2.8995150    -0.1925990
  H       -1.2541740     1.1373190     1.4511930
  H       -2.4205700    -1.7983260    -1.4636490
  H       -3.6394530     1.7093650     1.8355280
  H       -4.8171580    -1.1915530    -1.1177270
  H        4.4331860    -1.7182640    -0.3623870
  H        3.8136890    -3.0019290     0.7024740
  H        4.3131750    -1.4541550     1.3926990
  H       -5.4217990     0.5615290     0.5392290
units angstrom
no_reorient  #important for SAPT in psi4, default
symmetry c1  #important for SAPT in psi4, default
}

set PROPERTIES_ORIGIN ["COM"]
properties('MP2/aug-cc-pvtz', properties = ['dipole'])
--------------------------------------------------------------------------

    Molecular point group: c1
  Charge       = 0
  Multiplicity = 1
  Basis Set: AUG-CC-PVTZ
    Blend: AUG-CC-PVTZ
  Basis Set: (AUG-CC-PVTZ AUX)
    Blend: AUG-CC-PVTZ-JKFIT

    Orbital Energies [Eh]
    ---------------------

    Doubly Occupied:

       1A    -20.538883     2A    -15.561752     3A    -11.339769
       4A    -11.297124     5A    -11.256984     6A    -11.252592
       7A    -11.252564     8A    -11.251782     9A    -11.250586
      10A    -11.249923    11A    -11.248198    12A    -11.245162
      13A    -11.243932    14A    -11.238537    15A    -11.228827
      16A    -11.225850    17A     -1.371959    18A     -1.244263
      19A     -1.163234    20A     -1.142004    21A     -1.055924
      22A     -1.025074    23A     -1.020732    24A     -1.009921
      25A     -0.929342    26A     -0.888651    27A     -0.844896
      28A     -0.834236    29A     -0.807439    30A     -0.771180
      31A     -0.717637    32A     -0.701376    33A     -0.683204
      34A     -0.655712    35A     -0.644678    36A     -0.632656
      37A     -0.618889    38A     -0.615148    39A     -0.607448
      40A     -0.600477    41A     -0.595979    42A     -0.577488
      43A     -0.545449    44A     -0.542146    45A     -0.530631
      46A     -0.520478    47A     -0.511287    48A     -0.503708
      49A     -0.501395    50A     -0.486273    51A     -0.429242
      52A     -0.419012    53A     -0.350298    54A     -0.345025
      55A     -0.343004    56A     -0.291929

  @DF-RHF Final Energy:  -667.25964156398948

   => Energetics <=

    Nuclear Repulsion Energy =           1002.3473599986500631
    One-Electron Energy =               -2895.6902266513147879
    Two-Electron Energy =                1226.0832250886751353
    Total Energy =                       -667.2596415639895895
  Basis Set: (AUG-CC-PVTZ AUX)
    Blend: AUG-CC-PVTZ-RI
    Molecular point group: c1

    Geometry (in Angstrom), charge = 0, multiplicity = 1:

       Center              X                  Y                   Z               Mass
    ------------   -----------------  -----------------  -----------------  -----------------
         O           -0.039183605070    -1.992515305947    -0.454237814386    15.994914619570
         N            2.483133394930    -1.466694305947     0.406825185614    14.003074004430
         C            0.835735394930     0.218741694053    -0.213097814386    12.000000000000
         C            2.178305394930    -0.166155305947     0.082700185614    12.000000000000
         C           -0.253232605070    -0.781617305947    -0.258593814386    12.000000000000
         C           -1.665834605070    -0.336740305947    -0.056002814386    12.000000000000
         C            0.560115394930     1.554120694053    -0.559905814386    12.000000000000
         C            3.162211394930     0.844380694053     0.120970185614    12.000000000000
         C            1.553477394930     2.525676694053    -0.558471814386    12.000000000000
         C            2.856099394930     2.159776694053    -0.209290814386    12.000000000000
         C           -2.007894605070     0.648593694053     0.882442185614    12.000000000000
         C           -2.684226005070    -1.076338005947    -0.687550614386    12.000000000000
         C           -3.349809605070     0.963784694053     1.100493185614    12.000000000000
         C           -4.011967605070    -0.671994305947    -0.554791814386    12.000000000000
         C            3.853338394930    -1.915958305947     0.534785185614    12.000000000000
         C           -4.352152605070     0.313929694053     0.376549185614    12.000000000000
         H           -0.453676605070     1.821839694053    -0.844064814386     1.007825032230
         H            4.187469394930     0.587364694053     0.367120185614     1.007825032230
         H            1.805865394930    -2.137877305947     0.059824185614     1.007825032230
         H            1.321636394930     3.548867694053    -0.840781814386     1.007825032230
         H            3.646187394930     2.907749694053    -0.189614814386     1.007825032230
         H           -1.228409605070     1.145553694053     1.454177185614     1.007825032230
         H           -2.394805605070    -1.790091305947    -1.460664814386     1.007825032230
         H           -3.613688605070     1.717599694053     1.838512185614     1.007825032230
         H           -4.791393605070    -1.183318305947    -1.114742814386     1.007825032230
         H            4.458950394930    -1.710029305947    -0.359402814386     1.007825032230
         H            3.839453394930    -2.993694305947     0.705458185614     1.007825032230
         H            4.338939394930    -1.445920305947     1.395683185614     1.007825032230
         H           -5.396034605070     0.569763694053     0.542213185614     1.007825032230

  Basis Set: AUG-CC-PVTZ
    Blend: AUG-CC-PVTZ
  Basis Set: (AUG-CC-PVTZ AUX)
    Blend: AUG-CC-PVTZ-JKFIT
	 Reference Energy          =    -667.2596415639894758 [Eh]
	 Singles Energy            =      -0.0000000000000000 [Eh]
	 Same-Spin Energy          =      -0.7347915648701870 [Eh]
	 Opposite-Spin Energy      =      -2.2656968362371770 [Eh]
	 Correlation Energy        =      -3.0004884011073640 [Eh]
	 Total Energy              =    -670.2601299650968940 [Eh]

	 ================> DF-SCS-MP2 Energies <==================
	-----------------------------------------------------------
	 SCS Same-Spin Scale       =       0.3333333333333333 [-]
	 SCS Opposite-Spin Scale   =       1.2000000000000000 [-]
	 SCS Same-Spin Energy      =      -0.2449305216233957 [Eh]
	 SCS Opposite-Spin Energy  =      -2.7188362034846123 [Eh]
	 SCS Correlation Energy    =      -2.9637667251080080 [Eh]
	 SCS Total Energy          =    -670.2234082890975060 [Eh]
	-----------------------------------------------------------

  Dipole Moment: [D]
     X:     0.2906      Y:     1.2446      Z:     0.3241     Total:     1.3185

*** Psi4 exiting successfully. Buy a developer a beer!
