                               Psi4 1.4a2.dev612

  ==> Input File <==

--------------------------------------------------------------------------
#psi4
#
memory 32 gb

molecule  {
0 1
  O       -0.0649480    -2.0007500    -0.4572220
  N        2.4573690    -1.4749290     0.4038410
  C        0.8099710     0.2105070    -0.2160820
  C        2.1525410    -0.1743900     0.0797160
  C       -0.2789970    -0.7898520    -0.2615780
  C       -1.6915990    -0.3449750    -0.0589870
  C        0.5343510     1.5458860    -0.5628900
  C        3.1457321     0.8274370     0.0696337
  C        1.5277130     2.5174420    -0.5614560
  C        2.8303350     2.1515420    -0.2122750
  C       -2.0336590     0.6403590     0.8794580
  C       -2.7013800    -1.0161980    -0.7629970
  C       -3.3755740     0.9555500     1.0975090
  C       -4.0377320    -0.6802290    -0.5577760
  C        3.8275740    -1.9241930     0.5318010
  C       -4.3779170     0.3056950     0.3735650
  H       -0.4794410     1.8136050    -0.8470490
  H        4.1617050     0.5791300     0.3641360
  H        1.7801010    -2.1461120     0.0568400
  H        1.2958720     3.5406330    -0.8437660
  H        3.6204230     2.8995150    -0.1925990
  H       -1.2541740     1.1373190     1.4511930
  H       -2.4205700    -1.7983260    -1.4636490
  H       -3.6394530     1.7093650     1.8355280
  H       -4.8171580    -1.1915530    -1.1177270
  H        4.4331860    -1.7182640    -0.3623870
  H        3.8136890    -3.0019290     0.7024740
  H        4.3131750    -1.4541550     1.3926990
  H       -5.4217990     0.5615290     0.5392290
units angstrom
no_reorient  #important for SAPT in psi4, default
symmetry c1  #important for SAPT in psi4, default
}

set PROPERTIES_ORIGIN ["COM"]
properties('MP2/aug-cc-pvtz', properties = ['dipole'])
--------------------------------------------------------------------------

    Molecular point group: c1
  Charge       = 0
  Multiplicity = 1
  Basis Set: AUG-CC-PVTZ
    Blend: AUG-CC-PVTZ
  Basis Set: (AUG-CC-PVTZ AUX)
    Blend: AUG-CC-PVTZ-JKFIT

    Orbital Energies [Eh]
    ---------------------

    Doubly Occupied:

       1A    -20.539851     2A    -15.561739     3A    -11.340227
       4A    -11.297153     5A    -11.256939     6A    -11.252727
       7A    -11.252664     8A    -11.251452     9A    -11.250273
      10A    -11.249348    11A    -11.247049    12A    -11.245010
      13A    -11.243579    14A    -11.238624    15A    -11.228919
      16A    -11.226000    17A     -1.372577    18A     -1.244299
      19A     -1.163557    20A     -1.142120    21A     -1.056177
      22A     -1.025576    23A     -1.020689    24A     -1.009935
      25A     -0.929376    26A     -0.888801    27A     -0.845202
      28A     -0.834589    29A     -0.807483    30A     -0.771520
      31A     -0.717953    32A     -0.701619    33A     -0.683479
      34A     -0.655841    35A     -0.645048    36A     -0.633462
      37A     -0.619187    38A     -0.615589    39A     -0.608202
      40A     -0.601249    41A     -0.596126    42A     -0.577401
      43A     -0.544886    44A     -0.542199    45A     -0.531080
      46A     -0.520651    47A     -0.513025    48A     -0.502998
      49A     -0.501284    50A     -0.486779    51A     -0.428756
      52A     -0.419297    53A     -0.350575    54A     -0.345201
      55A     -0.343280    56A     -0.292301

  @DF-RHF Final Energy:  -667.26267712956007

   => Energetics <=

    Nuclear Repulsion Energy =           1002.5022539631729614
    One-Electron Energy =               -2895.9880155752289284
    Two-Electron Energy =                1226.2230844824960059
    Total Energy =                       -667.2626771295599610
  Basis Set: (AUG-CC-PVTZ AUX)
    Blend: AUG-CC-PVTZ-RI
    Molecular point group: c1

    Geometry (in Angstrom), charge = 0, multiplicity = 1:

       Center              X                  Y                   Z               Mass
    ------------   -----------------  -----------------  -----------------  -----------------
         O           -0.040200877883    -1.995907013052    -0.447370093098    15.994914619570
         N            2.482116122117    -1.470086013052     0.413692906902    14.003074004430
         C            0.834718122117     0.215349986948    -0.206230093098    12.000000000000
         C            2.177288122117    -0.169547013052     0.089567906902    12.000000000000
         C           -0.254249877883    -0.785009013052    -0.251726093098    12.000000000000
         C           -1.666851877883    -0.340132013052    -0.049135093098    12.000000000000
         C            0.559098122117     1.550728986948    -0.553038093098    12.000000000000
         C            3.170479222117     0.832279986948     0.079485606902    12.000000000000
         C            1.552460122117     2.522284986948    -0.551604093098    12.000000000000
         C            2.855082122117     2.156384986948    -0.202423093098    12.000000000000
         C           -2.008911877883     0.645201986948     0.889309906902    12.000000000000
         C           -2.676632877883    -1.011355013052    -0.753145093098    12.000000000000
         C           -3.350826877883     0.960392986948     1.107360906902    12.000000000000
         C           -4.012984877883    -0.675386013052    -0.547924093098    12.000000000000
         C            3.852321122117    -1.919350013052     0.541652906902    12.000000000000
         C           -4.353169877883     0.310537986948     0.383416906902    12.000000000000
         H           -0.454693877883     1.818447986948    -0.837197093098     1.007825032230
         H            4.186452122117     0.583972986948     0.373987906902     1.007825032230
         H            1.804848122117    -2.141269013052     0.066691906902     1.007825032230
         H            1.320619122117     3.545475986948    -0.833914093098     1.007825032230
         H            3.645170122117     2.904357986948    -0.182747093098     1.007825032230
         H           -1.229426877883     1.142161986948     1.461044906902     1.007825032230
         H           -2.395822877883    -1.793483013052    -1.453797093098     1.007825032230
         H           -3.614705877883     1.714207986948     1.845379906902     1.007825032230
         H           -4.792410877883    -1.186710013052    -1.107875093098     1.007825032230
         H            4.457933122117    -1.713421013052    -0.352535093098     1.007825032230
         H            3.838436122117    -2.997086013052     0.712325906902     1.007825032230
         H            4.337922122117    -1.449312013052     1.402550906902     1.007825032230
         H           -5.397051877883     0.566371986948     0.549080906902     1.007825032230

  Basis Set: AUG-CC-PVTZ
    Blend: AUG-CC-PVTZ
  Basis Set: (AUG-CC-PVTZ AUX)
    Blend: AUG-CC-PVTZ-JKFIT
	 Reference Energy          =    -667.2626771295600747 [Eh]
	 Singles Energy            =      -0.0000000000000000 [Eh]
	 Same-Spin Energy          =      -0.7346182393402565 [Eh]
	 Opposite-Spin Energy      =      -2.2653633932760822 [Eh]
	 Correlation Energy        =      -2.9999816326163389 [Eh]
	 Total Energy              =    -670.2626587621764429 [Eh]

	 ================> DF-SCS-MP2 Energies <==================
	-----------------------------------------------------------
	 SCS Same-Spin Scale       =       0.3333333333333333 [-]
	 SCS Opposite-Spin Scale   =       1.2000000000000000 [-]
	 SCS Same-Spin Energy      =      -0.2448727464467522 [Eh]
	 SCS Opposite-Spin Energy  =      -2.7184360719312983 [Eh]
	 SCS Correlation Energy    =      -2.9633088183780503 [Eh]
	 SCS Total Energy          =    -670.2259859479381703 [Eh]
	-----------------------------------------------------------

  Dipole Moment: [D]
     X:     0.3021      Y:     1.2152      Z:     0.3769     Total:     1.3077

*** Psi4 exiting successfully. Buy a developer a beer!
