                               Psi4 1.4a2.dev612

  ==> Input File <==

--------------------------------------------------------------------------
#psi4
#
memory 32 gb

molecule  {
0 1
  O       -0.0649480    -2.0007500    -0.4572220
  N        2.4573690    -1.4749290     0.4038410
  C        0.8099710     0.2105070    -0.2160820
  C        2.1525410    -0.1743900     0.0797160
  C       -0.2789970    -0.7898520    -0.2615780
  C       -1.6915990    -0.3449750    -0.0589870
  C        0.5526589     1.5270634    -0.6593811
  C        3.1364470     0.8361460     0.1179860
  C        1.5277130     2.5174420    -0.5614560
  C        2.8303350     2.1515420    -0.2122750
  C       -2.0336590     0.6403590     0.8794580
  C       -2.7013800    -1.0161980    -0.7629970
  C       -3.3755740     0.9555500     1.0975090
  C       -4.0377320    -0.6802290    -0.5577760
  C        3.8275740    -1.9241930     0.5318010
  C       -4.3779170     0.3056950     0.3735650
  H       -0.4794410     1.8136050    -0.8470490
  H        4.1617050     0.5791300     0.3641360
  H        1.7801010    -2.1461120     0.0568400
  H        1.2958720     3.5406330    -0.8437660
  H        3.6204230     2.8995150    -0.1925990
  H       -1.2541740     1.1373190     1.4511930
  H       -2.4205700    -1.7983260    -1.4636490
  H       -3.6394530     1.7093650     1.8355280
  H       -4.8171580    -1.1915530    -1.1177270
  H        4.4331860    -1.7182640    -0.3623870
  H        3.8136890    -3.0019290     0.7024740
  H        4.3131750    -1.4541550     1.3926990
  H       -5.4217990     0.5615290     0.5392290
units angstrom
no_reorient  #important for SAPT in psi4, default
symmetry c1  #important for SAPT in psi4, default
}

set PROPERTIES_ORIGIN ["COM"]
properties('MP2/aug-cc-pvtz', properties = ['dipole'])
--------------------------------------------------------------------------

    Molecular point group: c1
  Charge       = 0
  Multiplicity = 1
  Basis Set: AUG-CC-PVTZ
    Blend: AUG-CC-PVTZ
  Basis Set: (AUG-CC-PVTZ AUX)
    Blend: AUG-CC-PVTZ-JKFIT

    Orbital Energies [Eh]
    ---------------------

    Doubly Occupied:

       1A    -20.540571     2A    -15.561607     3A    -11.340520
       4A    -11.296825     5A    -11.257039     6A    -11.253467
       7A    -11.252190     8A    -11.251709     9A    -11.250467
      10A    -11.249609    11A    -11.247231    12A    -11.245265
      13A    -11.243816    14A    -11.239141    15A    -11.229061
      16A    -11.226598    17A     -1.373079    18A     -1.244185
      19A     -1.163636    20A     -1.141244    21A     -1.055828
      22A     -1.025660    23A     -1.020721    24A     -1.009495
      25A     -0.929210    26A     -0.888742    27A     -0.845299
      28A     -0.834512    29A     -0.807215    30A     -0.771486
      31A     -0.717946    32A     -0.700823    33A     -0.683325
      34A     -0.655567    35A     -0.645280    36A     -0.633361
      37A     -0.618911    38A     -0.614952    39A     -0.608117
      40A     -0.601417    41A     -0.596068    42A     -0.577226
      43A     -0.545584    44A     -0.541776    45A     -0.530545
      46A     -0.520404    47A     -0.512808    48A     -0.502373
      49A     -0.501243    50A     -0.486929    51A     -0.429402
      52A     -0.419248    53A     -0.350305    54A     -0.345033
      55A     -0.343460    56A     -0.291672

  @DF-RHF Final Energy:  -667.25931312486910

   => Energetics <=

    Nuclear Repulsion Energy =           1002.1300871120231477
    One-Electron Energy =               -2895.2403945911928531
    Two-Electron Energy =                1225.8509943543006102
    Total Energy =                       -667.2593131248690952
  Basis Set: (AUG-CC-PVTZ AUX)
    Blend: AUG-CC-PVTZ-RI
    Molecular point group: c1

    Geometry (in Angstrom), charge = 0, multiplicity = 1:

       Center              X                  Y                   Z               Mass
    ------------   -----------------  -----------------  -----------------  -----------------
         O           -0.040713780520    -1.995332103699    -0.444633634631    15.994914619570
         N            2.481603219480    -1.469511103699     0.416429365369    14.003074004430
         C            0.834205219480     0.215924896301    -0.203493634631    12.000000000000
         C            2.176775219480    -0.168972103699     0.092304365369    12.000000000000
         C           -0.254762780520    -0.784434103699    -0.248989634631    12.000000000000
         C           -1.667364780520    -0.339557103699    -0.046398634631    12.000000000000
         C            0.576893119480     1.532481296301    -0.646792734631    12.000000000000
         C            3.160681219480     0.841563896301     0.130574365369    12.000000000000
         C            1.551947219480     2.522859896301    -0.548867634631    12.000000000000
         C            2.854569219480     2.156959896301    -0.199686634631    12.000000000000
         C           -2.009424780520     0.645776896301     0.892046365369    12.000000000000
         C           -2.677145780520    -1.010780103699    -0.750408634631    12.000000000000
         C           -3.351339780520     0.960967896301     1.110097365369    12.000000000000
         C           -4.013497780520    -0.674811103699    -0.545187634631    12.000000000000
         C            3.851808219480    -1.918775103699     0.544389365369    12.000000000000
         C           -4.353682780520     0.311112896301     0.386153365369    12.000000000000
         H           -0.455206780520     1.819022896301    -0.834460634631     1.007825032230
         H            4.185939219480     0.584547896301     0.376724365369     1.007825032230
         H            1.804335219480    -2.140694103699     0.069428365369     1.007825032230
         H            1.320106219480     3.546050896301    -0.831177634631     1.007825032230
         H            3.644657219480     2.904932896301    -0.180010634631     1.007825032230
         H           -1.229939780520     1.142736896301     1.463781365369     1.007825032230
         H           -2.396335780520    -1.792908103699    -1.451060634631     1.007825032230
         H           -3.615218780520     1.714782896301     1.848116365369     1.007825032230
         H           -4.792923780520    -1.186135103699    -1.105138634631     1.007825032230
         H            4.457420219480    -1.712846103699    -0.349798634631     1.007825032230
         H            3.837923219480    -2.996511103699     0.715062365369     1.007825032230
         H            4.337409219480    -1.448737103699     1.405287365369     1.007825032230
         H           -5.397564780520     0.566946896301     0.551817365369     1.007825032230

  Basis Set: AUG-CC-PVTZ
    Blend: AUG-CC-PVTZ
  Basis Set: (AUG-CC-PVTZ AUX)
    Blend: AUG-CC-PVTZ-JKFIT
	 Reference Energy          =    -667.2593131248690952 [Eh]
	 Singles Energy            =      -0.0000000000000000 [Eh]
	 Same-Spin Energy          =      -0.7347007447017191 [Eh]
	 Opposite-Spin Energy      =      -2.2657042531809788 [Eh]
	 Correlation Energy        =      -3.0004049978826979 [Eh]
	 Total Energy              =    -670.2597181227517922 [Eh]

	 ================> DF-SCS-MP2 Energies <==================
	-----------------------------------------------------------
	 SCS Same-Spin Scale       =       0.3333333333333333 [-]
	 SCS Opposite-Spin Scale   =       1.2000000000000000 [-]
	 SCS Same-Spin Energy      =      -0.2449002482339064 [Eh]
	 SCS Opposite-Spin Energy  =      -2.7188451038171744 [Eh]
	 SCS Correlation Energy    =      -2.9637453520510806 [Eh]
	 SCS Total Energy          =    -670.2230584769201869 [Eh]
	-----------------------------------------------------------

  Dipole Moment: [D]
     X:     0.2693      Y:     1.1755      Z:     0.4024     Total:     1.2713

*** Psi4 exiting successfully. Buy a developer a beer!
