                               Psi4 1.4a2.dev612

  ==> Input File <==

--------------------------------------------------------------------------
#psi4
#
memory 32 gb

molecule  {
0 1
  O       -0.0649480    -2.0007500    -0.4572220
  N        2.4573690    -1.4749290     0.4038410
  C        0.8099710     0.2105070    -0.2160820
  C        2.1525410    -0.1743900     0.0797160
  C       -0.2789970    -0.7898520    -0.2615780
  C       -1.6915990    -0.3449750    -0.0589870
  C        0.5892748     1.4894182    -0.8523633
  C        3.1364470     0.8361460     0.1179860
  C        1.5277130     2.5174420    -0.5614560
  C        2.8303350     2.1515420    -0.2122750
  C       -2.0336590     0.6403590     0.8794580
  C       -2.7013800    -1.0161980    -0.7629970
  C       -3.3755740     0.9555500     1.0975090
  C       -4.0377320    -0.6802290    -0.5577760
  C        3.8275740    -1.9241930     0.5318010
  C       -4.3779170     0.3056950     0.3735650
  H       -0.4794410     1.8136050    -0.8470490
  H        4.1617050     0.5791300     0.3641360
  H        1.7801010    -2.1461120     0.0568400
  H        1.2958720     3.5406330    -0.8437660
  H        3.6204230     2.8995150    -0.1925990
  H       -1.2541740     1.1373190     1.4511930
  H       -2.4205700    -1.7983260    -1.4636490
  H       -3.6394530     1.7093650     1.8355280
  H       -4.8171580    -1.1915530    -1.1177270
  H        4.4331860    -1.7182640    -0.3623870
  H        3.8136890    -3.0019290     0.7024740
  H        4.3131750    -1.4541550     1.3926990
  H       -5.4217990     0.5615290     0.5392290
units angstrom
no_reorient  #important for SAPT in psi4, default
symmetry c1  #important for SAPT in psi4, default
}

set PROPERTIES_ORIGIN ["COM"]
properties('MP2/aug-cc-pvtz', properties = ['dipole'])
--------------------------------------------------------------------------

    Molecular point group: c1
  Charge       = 0
  Multiplicity = 1
  Basis Set: AUG-CC-PVTZ
    Blend: AUG-CC-PVTZ
  Basis Set: (AUG-CC-PVTZ AUX)
    Blend: AUG-CC-PVTZ-JKFIT

    Orbital Energies [Eh]
    ---------------------

    Doubly Occupied:

       1A    -20.542786     2A    -15.560924     3A    -11.341312
       4A    -11.295748     5A    -11.259686     6A    -11.257225
       7A    -11.252083     8A    -11.250889     9A    -11.250658
      10A    -11.249980    11A    -11.247394    12A    -11.245549
      13A    -11.244058    14A    -11.243871    15A    -11.233253
      16A    -11.232348    17A     -1.374586    18A     -1.243861
      19A     -1.163532    20A     -1.137275    21A     -1.054830
      22A     -1.025586    23A     -1.020202    24A     -1.006540
      25A     -0.928418    26A     -0.888253    27A     -0.844856
      28A     -0.833881    29A     -0.804969    30A     -0.770732
      31A     -0.717135    32A     -0.697694    33A     -0.682290
      34A     -0.653731    35A     -0.645675    36A     -0.632601
      37A     -0.617182    38A     -0.613718    39A     -0.607810
      40A     -0.598404    41A     -0.594603    42A     -0.575340
      43A     -0.545486    44A     -0.540022    45A     -0.528883
      46A     -0.520417    47A     -0.512081    48A     -0.501671
      49A     -0.494022    50A     -0.486651    51A     -0.428991
      52A     -0.419280    53A     -0.350095    54A     -0.344314
      55A     -0.343118    56A     -0.289610

  @DF-RHF Final Energy:  -667.23145983192910

   => Energetics <=

    Nuclear Repulsion Energy =           1000.6770892394375778
    One-Electron Energy =               -2892.3248738687980222
    Two-Electron Energy =                1224.4163247974315709
    Total Energy =                       -667.2314598319289871
  Basis Set: (AUG-CC-PVTZ AUX)
    Blend: AUG-CC-PVTZ-RI
    Molecular point group: c1

    Geometry (in Angstrom), charge = 0, multiplicity = 1:

       Center              X                  Y                   Z               Mass
    ------------   -----------------  -----------------  -----------------  -----------------
         O           -0.042795217731    -1.993192155750    -0.433663527871    15.994914619570
         N            2.479521782269    -1.467371155750     0.427399472129    14.003074004430
         C            0.832123782269     0.218064844250    -0.192523527871    12.000000000000
         C            2.174693782269    -0.166832155750     0.103274472129    12.000000000000
         C           -0.256844217731    -0.782294155750    -0.238019527871    12.000000000000
         C           -1.669446217731    -0.337417155750    -0.035428527871    12.000000000000
         C            0.611427582269     1.496976044250    -0.828804827871    12.000000000000
         C            3.158599782269     0.843703844250     0.141544472129    12.000000000000
         C            1.549865782269     2.524999844250    -0.537897527871    12.000000000000
         C            2.852487782269     2.159099844250    -0.188716527871    12.000000000000
         C           -2.011506217731     0.647916844250     0.903016472129    12.000000000000
         C           -2.679227217731    -1.008640155750    -0.739438527871    12.000000000000
         C           -3.353421217731     0.963107844250     1.121067472129    12.000000000000
         C           -4.015579217731    -0.672671155750    -0.534217527871    12.000000000000
         C            3.849726782269    -1.916635155750     0.555359472129    12.000000000000
         C           -4.355764217731     0.313252844250     0.397123472129    12.000000000000
         H           -0.457288217731     1.821162844250    -0.823490527871     1.007825032230
         H            4.183857782269     0.586687844250     0.387694472129     1.007825032230
         H            1.802253782269    -2.138554155750     0.080398472129     1.007825032230
         H            1.318024782269     3.548190844250    -0.820207527871     1.007825032230
         H            3.642575782269     2.907072844250    -0.169040527871     1.007825032230
         H           -1.232021217731     1.144876844250     1.474751472129     1.007825032230
         H           -2.398417217731    -1.790768155750    -1.440090527871     1.007825032230
         H           -3.617300217731     1.716922844250     1.859086472129     1.007825032230
         H           -4.795005217731    -1.183995155750    -1.094168527871     1.007825032230
         H            4.455338782269    -1.710706155750    -0.338828527871     1.007825032230
         H            3.835841782269    -2.994371155750     0.726032472129     1.007825032230
         H            4.335327782269    -1.446597155750     1.416257472129     1.007825032230
         H           -5.399646217731     0.569086844250     0.562787472129     1.007825032230

  Basis Set: AUG-CC-PVTZ
    Blend: AUG-CC-PVTZ
  Basis Set: (AUG-CC-PVTZ AUX)
    Blend: AUG-CC-PVTZ-JKFIT
	 Reference Energy          =    -667.2314598319291008 [Eh]
	 Singles Energy            =      -0.0000000000000000 [Eh]
	 Same-Spin Energy          =      -0.7363626109963588 [Eh]
	 Opposite-Spin Energy      =      -2.2703724183859446 [Eh]
	 Correlation Energy        =      -3.0067350293823036 [Eh]
	 Total Energy              =    -670.2381948613113991 [Eh]

	 ================> DF-SCS-MP2 Energies <==================
	-----------------------------------------------------------
	 SCS Same-Spin Scale       =       0.3333333333333333 [-]
	 SCS Opposite-Spin Scale   =       1.2000000000000000 [-]
	 SCS Same-Spin Energy      =      -0.2454542036654529 [Eh]
	 SCS Opposite-Spin Energy  =      -2.7244469020631334 [Eh]
	 SCS Correlation Energy    =      -2.9699011057285865 [Eh]
	 SCS Total Energy          =    -670.2013609376576824 [Eh]
	-----------------------------------------------------------

  Dipole Moment: [D]
     X:     0.2863      Y:     1.0864      Z:     0.5682     Total:     1.2590

*** Psi4 exiting successfully. Buy a developer a beer!
