                               Psi4 1.4a2.dev612

  ==> Input File <==

--------------------------------------------------------------------------
#psi4
#
memory 32 gb

molecule  {
0 1
  O       -0.0649480    -2.0007500    -0.4572220
  N        2.4573690    -1.4749290     0.4038410
  C        0.8099710     0.2105070    -0.2160820
  C        2.1525410    -0.1743900     0.0797160
  C       -0.2789970    -0.7898520    -0.2615780
  C       -1.6915990    -0.3449750    -0.0589870
  C        0.5343510     1.5458860    -0.5628900
  C        3.1550172     0.8187281     0.0212815
  C        1.5277130     2.5174420    -0.5614560
  C        2.8303350     2.1515420    -0.2122750
  C       -2.0336590     0.6403590     0.8794580
  C       -2.7013800    -1.0161980    -0.7629970
  C       -3.3755740     0.9555500     1.0975090
  C       -4.0377320    -0.6802290    -0.5577760
  C        3.8275740    -1.9241930     0.5318010
  C       -4.3779170     0.3056950     0.3735650
  H       -0.4794410     1.8136050    -0.8470490
  H        4.1617050     0.5791300     0.3641360
  H        1.7801010    -2.1461120     0.0568400
  H        1.2958720     3.5406330    -0.8437660
  H        3.6204230     2.8995150    -0.1925990
  H       -1.2541740     1.1373190     1.4511930
  H       -2.4205700    -1.7983260    -1.4636490
  H       -3.6394530     1.7093650     1.8355280
  H       -4.8171580    -1.1915530    -1.1177270
  H        4.4331860    -1.7182640    -0.3623870
  H        3.8136890    -3.0019290     0.7024740
  H        4.3131750    -1.4541550     1.3926990
  H       -5.4217990     0.5615290     0.5392290
units angstrom
no_reorient  #important for SAPT in psi4, default
symmetry c1  #important for SAPT in psi4, default
}

set PROPERTIES_ORIGIN ["COM"]
properties('MP2/aug-cc-pvtz', properties = ['dipole'])
--------------------------------------------------------------------------

    Molecular point group: c1
  Charge       = 0
  Multiplicity = 1
  Basis Set: AUG-CC-PVTZ
    Blend: AUG-CC-PVTZ
  Basis Set: (AUG-CC-PVTZ AUX)
    Blend: AUG-CC-PVTZ-JKFIT

    Orbital Energies [Eh]
    ---------------------

    Doubly Occupied:

       1A    -20.539973     2A    -15.561714     3A    -11.340333
       4A    -11.297420     5A    -11.256774     6A    -11.253077
       7A    -11.253042     8A    -11.251535     9A    -11.250342
      10A    -11.249402    11A    -11.247102    12A    -11.245088
      13A    -11.243641    14A    -11.238653    15A    -11.229273
      16A    -11.226087    17A     -1.372671    18A     -1.244210
      19A     -1.163626    20A     -1.142094    21A     -1.056180
      22A     -1.025627    23A     -1.020717    24A     -1.009724
      25A     -0.929286    26A     -0.888777    27A     -0.845168
      28A     -0.834609    29A     -0.807258    30A     -0.771439
      31A     -0.717820    32A     -0.701772    33A     -0.683403
      34A     -0.655763    35A     -0.645112    36A     -0.633491
      37A     -0.619032    38A     -0.615795    39A     -0.608274
      40A     -0.600767    41A     -0.596182    42A     -0.576936
      43A     -0.544674    44A     -0.542110    45A     -0.531189
      46A     -0.520993    47A     -0.513232    48A     -0.501852
      49A     -0.501197    50A     -0.486925    51A     -0.428129
      52A     -0.419444    53A     -0.350614    54A     -0.345276
      55A     -0.343348    56A     -0.292587

  @DF-RHF Final Energy:  -667.26103358117348

   => Energetics <=

    Nuclear Repulsion Energy =           1002.4314009999744712
    One-Electron Energy =               -2895.8433555337878715
    Two-Electron Energy =                1226.1509209526400355
    Total Energy =                       -667.2610335811734785
  Basis Set: (AUG-CC-PVTZ AUX)
    Blend: AUG-CC-PVTZ-RI
    Molecular point group: c1

    Geometry (in Angstrom), charge = 0, multiplicity = 1:

       Center              X                  Y                   Z               Mass
    ------------   -----------------  -----------------  -----------------  -----------------
         O           -0.040728691009    -1.995411954115    -0.444621503871    15.994914619570
         N            2.481588308991    -1.469590954115     0.416441496129    14.003074004430
         C            0.834190308991     0.215845045885    -0.203481503871    12.000000000000
         C            2.176760308991    -0.169051954115     0.092316496129    12.000000000000
         C           -0.254777691009    -0.784513954115    -0.248977503871    12.000000000000
         C           -1.667379691009    -0.339636954115    -0.046386503871    12.000000000000
         C            0.558570308991     1.551224045885    -0.550289503871    12.000000000000
         C            3.179236508991     0.824066145885     0.033881996129    12.000000000000
         C            1.551932308991     2.522780045885    -0.548855503871    12.000000000000
         C            2.854554308991     2.156880045885    -0.199674503871    12.000000000000
         C           -2.009439691009     0.645697045885     0.892058496129    12.000000000000
         C           -2.677160691009    -1.010859954115    -0.750396503871    12.000000000000
         C           -3.351354691009     0.960888045885     1.110109496129    12.000000000000
         C           -4.013512691009    -0.674890954115    -0.545175503871    12.000000000000
         C            3.851793308991    -1.918854954115     0.544401496129    12.000000000000
         C           -4.353697691009     0.311033045885     0.386165496129    12.000000000000
         H           -0.455221691009     1.818943045885    -0.834448503871     1.007825032230
         H            4.185924308991     0.584468045885     0.376736496129     1.007825032230
         H            1.804320308991    -2.140773954115     0.069440496129     1.007825032230
         H            1.320091308991     3.545971045885    -0.831165503871     1.007825032230
         H            3.644642308991     2.904853045885    -0.179998503871     1.007825032230
         H           -1.229954691009     1.142657045885     1.463793496129     1.007825032230
         H           -2.396350691009    -1.792987954115    -1.451048503871     1.007825032230
         H           -3.615233691009     1.714703045885     1.848128496129     1.007825032230
         H           -4.792938691009    -1.186214954115    -1.105126503871     1.007825032230
         H            4.457405308991    -1.712925954115    -0.349786503871     1.007825032230
         H            3.837908308991    -2.996590954115     0.715074496129     1.007825032230
         H            4.337394308991    -1.448816954115     1.405299496129     1.007825032230
         H           -5.397579691009     0.566867045885     0.551829496129     1.007825032230

  Basis Set: AUG-CC-PVTZ
    Blend: AUG-CC-PVTZ
  Basis Set: (AUG-CC-PVTZ AUX)
    Blend: AUG-CC-PVTZ-JKFIT
	 Reference Energy          =    -667.2610335811734785 [Eh]
	 Singles Energy            =      -0.0000000000000000 [Eh]
	 Same-Spin Energy          =      -0.7346866481837180 [Eh]
	 Opposite-Spin Energy      =      -2.2655609196308535 [Eh]
	 Correlation Energy        =      -3.0002475678145712 [Eh]
	 Total Energy              =    -670.2612811489880187 [Eh]

	 ================> DF-SCS-MP2 Energies <==================
	-----------------------------------------------------------
	 SCS Same-Spin Scale       =       0.3333333333333333 [-]
	 SCS Opposite-Spin Scale   =       1.2000000000000000 [-]
	 SCS Same-Spin Energy      =      -0.2448955493945726 [Eh]
	 SCS Opposite-Spin Energy  =      -2.7186731035570242 [Eh]
	 SCS Correlation Energy    =      -2.9635686529515968 [Eh]
	 SCS Total Energy          =    -670.2246022341250864 [Eh]
	-----------------------------------------------------------

  Dipole Moment: [D]
     X:     0.2719      Y:     1.2247      Z:     0.4070     Total:     1.3189

*** Psi4 exiting successfully. Buy a developer a beer!
