                               Psi4 1.4a2.dev612

  ==> Input File <==

--------------------------------------------------------------------------
#psi4
#
memory 32 gb

molecule  {
0 1
  O       -0.0649480    -2.0007500    -0.4572220
  N        2.4573690    -1.4749290     0.4038410
  C        0.8099710     0.2105070    -0.2160820
  C        2.1525410    -0.1743900     0.0797160
  C       -0.2789970    -0.7898520    -0.2615780
  C       -1.6915990    -0.3449750    -0.0589870
  C        0.5343510     1.5458860    -0.5628900
  C        3.1364470     0.8361460     0.1179860
  C        1.5277130     2.5174420    -0.5614560
  C        2.8303350     2.1515420    -0.2122750
  C       -2.0336590     0.6403590     0.8794580
  C       -2.7013800    -1.0161980    -0.7629970
  C       -3.3755740     0.9555500     1.0975090
  C       -4.0377320    -0.6802290    -0.5577760
  C        3.8275740    -1.9241930     0.5318010
  C       -4.3779170     0.3056950     0.3735650
  H       -0.5212249     1.8552161    -0.6559401
  H        4.1617050     0.5791300     0.3641360
  H        1.7801010    -2.1461120     0.0568400
  H        1.2958720     3.5406330    -0.8437660
  H        3.6204230     2.8995150    -0.1925990
  H       -1.2541740     1.1373190     1.4511930
  H       -2.4205700    -1.7983260    -1.4636490
  H       -3.6394530     1.7093650     1.8355280
  H       -4.8171580    -1.1915530    -1.1177270
  H        4.4331860    -1.7182640    -0.3623870
  H        3.8136890    -3.0019290     0.7024740
  H        4.3131750    -1.4541550     1.3926990
  H       -5.4217990     0.5615290     0.5392290
units angstrom
no_reorient  #important for SAPT in psi4, default
symmetry c1  #important for SAPT in psi4, default
}

set PROPERTIES_ORIGIN ["COM"]
properties('MP2/aug-cc-pvtz', properties = ['dipole'])
--------------------------------------------------------------------------

    Molecular point group: c1
  Charge       = 0
  Multiplicity = 1
  Basis Set: AUG-CC-PVTZ
    Blend: AUG-CC-PVTZ
  Basis Set: (AUG-CC-PVTZ AUX)
    Blend: AUG-CC-PVTZ-JKFIT

    Orbital Energies [Eh]
    ---------------------

    Doubly Occupied:

       1A    -20.540205     2A    -15.561942     3A    -11.340573
       4A    -11.297219     5A    -11.257136     6A    -11.253803
       7A    -11.252679     8A    -11.251734     9A    -11.250395
      10A    -11.249693    11A    -11.247160    12A    -11.245469
      13A    -11.243842    14A    -11.238940    15A    -11.229072
      16A    -11.226104    17A     -1.372864    18A     -1.244466
      19A     -1.163890    20A     -1.142007    21A     -1.056354
      22A     -1.025832    23A     -1.020819    24A     -1.009667
      25A     -0.929534    26A     -0.888831    27A     -0.845097
      28A     -0.835148    29A     -0.806611    30A     -0.771738
      31A     -0.717528    32A     -0.701696    33A     -0.683900
      34A     -0.655322    35A     -0.645215    36A     -0.633705
      37A     -0.619467    38A     -0.614880    39A     -0.607407
      40A     -0.601185    41A     -0.595616    42A     -0.577751
      43A     -0.546371    44A     -0.542035    45A     -0.531010
      46A     -0.521422    47A     -0.513071    48A     -0.501786
      49A     -0.500022    50A     -0.487530    51A     -0.429459
      52A     -0.418952    53A     -0.349872    54A     -0.346011
      55A     -0.343451    56A     -0.292115

  @DF-RHF Final Energy:  -667.25995766668018

   => Energetics <=

    Nuclear Repulsion Energy =           1002.5749581943754265
    One-Electron Energy =               -2896.1186214421563818
    Two-Electron Energy =                1226.2837055811005484
    Total Energy =                       -667.2599576666802932
  Basis Set: (AUG-CC-PVTZ AUX)
    Blend: AUG-CC-PVTZ-RI
    Molecular point group: c1

    Geometry (in Angstrom), charge = 0, multiplicity = 1:

       Center              X                  Y                   Z               Mass
    ------------   -----------------  -----------------  -----------------  -----------------
         O           -0.039473581491    -1.996600735963    -0.451031073583    15.994914619570
         N            2.482843418509    -1.470779735963     0.410031926417    14.003074004430
         C            0.835445418509     0.214656264037    -0.209891073583    12.000000000000
         C            2.178015418509    -0.170240735963     0.085906926417    12.000000000000
         C           -0.253522581491    -0.785702735963    -0.255387073583    12.000000000000
         C           -1.666124581491    -0.340825735963    -0.052796073583    12.000000000000
         C            0.559825418509     1.550035264037    -0.556699073583    12.000000000000
         C            3.161921418509     0.840295264037     0.124176926417    12.000000000000
         C            1.553187418509     2.521591264037    -0.555265073583    12.000000000000
         C            2.855809418509     2.155691264037    -0.206084073583    12.000000000000
         C           -2.008184581491     0.644508264037     0.885648926417    12.000000000000
         C           -2.675905581491    -1.012048735963    -0.756806073583    12.000000000000
         C           -3.350099581491     0.959699264037     1.103699926417    12.000000000000
         C           -4.012257581491    -0.676079735963    -0.551585073583    12.000000000000
         C            3.853048418509    -1.920043735963     0.537991926417    12.000000000000
         C           -4.352442581491     0.309844264037     0.379755926417    12.000000000000
         H           -0.495750481491     1.859365364037    -0.649749173583     1.007825032230
         H            4.187179418509     0.583279264037     0.370326926417     1.007825032230
         H            1.805575418509    -2.141962735963     0.063030926417     1.007825032230
         H            1.321346418509     3.544782264037    -0.837575073583     1.007825032230
         H            3.645897418509     2.903664264037    -0.186408073583     1.007825032230
         H           -1.228699581491     1.141468264037     1.457383926417     1.007825032230
         H           -2.395095581491    -1.794176735963    -1.457458073583     1.007825032230
         H           -3.613978581491     1.713514264037     1.841718926417     1.007825032230
         H           -4.791683581491    -1.187403735963    -1.111536073583     1.007825032230
         H            4.458660418509    -1.714114735963    -0.356196073583     1.007825032230
         H            3.839163418509    -2.997779735963     0.708664926417     1.007825032230
         H            4.338649418509    -1.450005735963     1.398889926417     1.007825032230
         H           -5.396324581491     0.565678264037     0.545419926417     1.007825032230

  Basis Set: AUG-CC-PVTZ
    Blend: AUG-CC-PVTZ
  Basis Set: (AUG-CC-PVTZ AUX)
    Blend: AUG-CC-PVTZ-JKFIT
	 Reference Energy          =    -667.2599576666801795 [Eh]
	 Singles Energy            =      -0.0000000000000000 [Eh]
	 Same-Spin Energy          =      -0.7349172766274898 [Eh]
	 Opposite-Spin Energy      =      -2.2658356181441230 [Eh]
	 Correlation Energy        =      -3.0007528947716127 [Eh]
	 Total Energy              =    -670.2607105614517877 [Eh]

	 ================> DF-SCS-MP2 Energies <==================
	-----------------------------------------------------------
	 SCS Same-Spin Scale       =       0.3333333333333333 [-]
	 SCS Opposite-Spin Scale   =       1.2000000000000000 [-]
	 SCS Same-Spin Energy      =      -0.2449724255424966 [Eh]
	 SCS Opposite-Spin Energy  =      -2.7190027417729477 [Eh]
	 SCS Correlation Energy    =      -2.9639751673154442 [Eh]
	 SCS Total Energy          =    -670.2239328339956046 [Eh]
	-----------------------------------------------------------

  Dipole Moment: [D]
     X:     0.3101      Y:     1.1935      Z:     0.4499     Total:     1.3127

*** Psi4 exiting successfully. Buy a developer a beer!
