                               Psi4 1.4a2.dev612

  ==> Input File <==

--------------------------------------------------------------------------
#psi4
#
memory 32 gb

molecule  {
0 1
  O       -0.0649480    -2.0007500    -0.4572220
  N        2.4573690    -1.4749290     0.4038410
  C        0.8099710     0.2105070    -0.2160820
  C        2.1525410    -0.1743900     0.0797160
  C       -0.2789970    -0.7898520    -0.2615780
  C       -1.6634092    -0.3883539     0.2365187
  C        0.5343510     1.5458860    -0.5628900
  C        3.1364470     0.8361460     0.1179860
  C        1.5277130     2.5174420    -0.5614560
  C        2.8303350     2.1515420    -0.2122750
  C       -2.0336590     0.6403590     0.8794580
  C       -2.7013800    -1.0161980    -0.7629970
  C       -3.3755740     0.9555500     1.0975090
  C       -4.0377320    -0.6802290    -0.5577760
  C        3.8275740    -1.9241930     0.5318010
  C       -4.3779170     0.3056950     0.3735650
  H       -0.4794410     1.8136050    -0.8470490
  H        4.1617050     0.5791300     0.3641360
  H        1.7801010    -2.1461120     0.0568400
  H        1.2958720     3.5406330    -0.8437660
  H        3.6204230     2.8995150    -0.1925990
  H       -1.2541740     1.1373190     1.4511930
  H       -2.4205700    -1.7983260    -1.4636490
  H       -3.6394530     1.7093650     1.8355280
  H       -4.8171580    -1.1915530    -1.1177270
  H        4.4331860    -1.7182640    -0.3623870
  H        3.8136890    -3.0019290     0.7024740
  H        4.3131750    -1.4541550     1.3926990
  H       -5.4217990     0.5615290     0.5392290
units angstrom
no_reorient  #important for SAPT in psi4, default
symmetry c1  #important for SAPT in psi4, default
}

set PROPERTIES_ORIGIN ["COM"]
properties('MP2/aug-cc-pvtz', properties = ['dipole'])
--------------------------------------------------------------------------

    Molecular point group: c1
  Charge       = 0
  Multiplicity = 1
  Basis Set: AUG-CC-PVTZ
    Blend: AUG-CC-PVTZ
  Basis Set: (AUG-CC-PVTZ AUX)
    Blend: AUG-CC-PVTZ-JKFIT

    Orbital Energies [Eh]
    ---------------------

    Doubly Occupied:

       1A    -20.542241     2A    -15.562127     3A    -11.344700
       4A    -11.297715     5A    -11.260169     6A    -11.257385
       7A    -11.253203     8A    -11.252486     9A    -11.251077
      10A    -11.250532    11A    -11.244679    12A    -11.242214
      13A    -11.239536    14A    -11.235231    15A    -11.229353
      16A    -11.226220    17A     -1.373768    18A     -1.244738
      19A     -1.167273    20A     -1.142219    21A     -1.061982
      22A     -1.031880    23A     -1.010414    24A     -1.007849
      25A     -0.929385    26A     -0.887040    27A     -0.843106
      28A     -0.833497    29A     -0.809324    30A     -0.769368
      31A     -0.716587    32A     -0.702173    33A     -0.686551
      34A     -0.657372    35A     -0.643687    36A     -0.634113
      37A     -0.617370    38A     -0.615478    39A     -0.614554
      40A     -0.600420    41A     -0.584587    42A     -0.578308
      43A     -0.545189    44A     -0.542539    45A     -0.531136
      46A     -0.523198    47A     -0.514571    48A     -0.505119
      49A     -0.492239    50A     -0.476052    51A     -0.429668
      52A     -0.412978    53A     -0.369372    54A     -0.348397
      55A     -0.326844    56A     -0.292366

  @DF-RHF Final Energy:  -667.21102700245933

   => Energetics <=

    Nuclear Repulsion Energy =           1001.9521407235498600
    One-Electron Energy =               -2894.8031724939187370
    Two-Electron Energy =                1225.6400047679096588
    Total Energy =                       -667.2110270024593319
  Basis Set: (AUG-CC-PVTZ AUX)
    Blend: AUG-CC-PVTZ-RI
    Molecular point group: c1

    Geometry (in Angstrom), charge = 0, multiplicity = 1:

       Center              X                  Y                   Z               Mass
    ------------   -----------------  -----------------  -----------------  -----------------
         O           -0.041275518846    -1.993936196550    -0.466916760979    15.994914619570
         N            2.481041481154    -1.468115196550     0.394146239021    14.003074004430
         C            0.833643481154     0.217320803450    -0.225776760979    12.000000000000
         C            2.176213481154    -0.167576196550     0.070021239021    12.000000000000
         C           -0.255324518846    -0.783038196550    -0.271272760979    12.000000000000
         C           -1.639736718846    -0.381540096550     0.226823939021    12.000000000000
         C            0.558023481154     1.552699803450    -0.572584760979    12.000000000000
         C            3.160119481154     0.842959803450     0.108291239021    12.000000000000
         C            1.551385481154     2.524255803450    -0.571150760979    12.000000000000
         C            2.854007481154     2.158355803450    -0.221969760979    12.000000000000
         C           -2.009986518846     0.647172803450     0.869763239021    12.000000000000
         C           -2.677707518846    -1.009384196550    -0.772691760979    12.000000000000
         C           -3.351901518846     0.962363803450     1.087814239021    12.000000000000
         C           -4.014059518846    -0.673415196550    -0.567470760979    12.000000000000
         C            3.851246481154    -1.917379196550     0.522106239021    12.000000000000
         C           -4.354244518846     0.312508803450     0.363870239021    12.000000000000
         H           -0.455768518846     1.820418803450    -0.856743760979     1.007825032230
         H            4.185377481154     0.585943803450     0.354441239021     1.007825032230
         H            1.803773481154    -2.139298196550     0.047145239021     1.007825032230
         H            1.319544481154     3.547446803450    -0.853460760979     1.007825032230
         H            3.644095481154     2.906328803450    -0.202293760979     1.007825032230
         H           -1.230501518846     1.144132803450     1.441498239021     1.007825032230
         H           -2.396897518846    -1.791512196550    -1.473343760979     1.007825032230
         H           -3.615780518846     1.716178803450     1.825833239021     1.007825032230
         H           -4.793485518846    -1.184739196550    -1.127421760979     1.007825032230
         H            4.456858481154    -1.711450196550    -0.372081760979     1.007825032230
         H            3.837361481154    -2.995115196550     0.692779239021     1.007825032230
         H            4.336847481154    -1.447341196550     1.383004239021     1.007825032230
         H           -5.398126518846     0.568342803450     0.529534239021     1.007825032230

  Basis Set: AUG-CC-PVTZ
    Blend: AUG-CC-PVTZ
  Basis Set: (AUG-CC-PVTZ AUX)
    Blend: AUG-CC-PVTZ-JKFIT
	 Reference Energy          =    -667.2110270024593319 [Eh]
	 Singles Energy            =      -0.0000000000000000 [Eh]
	 Same-Spin Energy          =      -0.7344690913269347 [Eh]
	 Opposite-Spin Energy      =      -2.2685092900065573 [Eh]
	 Correlation Energy        =      -3.0029783813334920 [Eh]
	 Total Energy              =    -670.2140053837928235 [Eh]

	 ================> DF-SCS-MP2 Energies <==================
	-----------------------------------------------------------
	 SCS Same-Spin Scale       =       0.3333333333333333 [-]
	 SCS Opposite-Spin Scale   =       1.2000000000000000 [-]
	 SCS Same-Spin Energy      =      -0.2448230304423116 [Eh]
	 SCS Opposite-Spin Energy  =      -2.7222111480078688 [Eh]
	 SCS Correlation Energy    =      -2.9670341784501804 [Eh]
	 SCS Total Energy          =    -670.1780611809094808 [Eh]
	-----------------------------------------------------------

  Dipole Moment: [D]
     X:     0.3027      Y:     1.2102      Z:     0.3333     Total:     1.2913

*** Psi4 exiting successfully. Buy a developer a beer!
