                               Psi4 1.4a2.dev612

  ==> Input File <==

--------------------------------------------------------------------------
#psi4
#
memory 32 gb

molecule  {
0 1
  O       -0.0649480    -2.0007500    -0.4572220
  N        2.4573690    -1.4749290     0.4038410
  C        0.8099710     0.2105070    -0.2160820
  C        2.1525410    -0.1743900     0.0797160
  C       -0.2789970    -0.7898520    -0.2615780
  C       -1.6915990    -0.3449750    -0.0589870
  C        0.5343510     1.5458860    -0.5628900
  C        3.1921577     0.7838923    -0.1721275
  C        1.5277130     2.5174420    -0.5614560
  C        2.8303350     2.1515420    -0.2122750
  C       -2.0336590     0.6403590     0.8794580
  C       -2.7013800    -1.0161980    -0.7629970
  C       -3.3755740     0.9555500     1.0975090
  C       -4.0377320    -0.6802290    -0.5577760
  C        3.8275740    -1.9241930     0.5318010
  C       -4.3779170     0.3056950     0.3735650
  H       -0.4794410     1.8136050    -0.8470490
  H        4.1617050     0.5791300     0.3641360
  H        1.7801010    -2.1461120     0.0568400
  H        1.2958720     3.5406330    -0.8437660
  H        3.6204230     2.8995150    -0.1925990
  H       -1.2541740     1.1373190     1.4511930
  H       -2.4205700    -1.7983260    -1.4636490
  H       -3.6394530     1.7093650     1.8355280
  H       -4.8171580    -1.1915530    -1.1177270
  H        4.4331860    -1.7182640    -0.3623870
  H        3.8136890    -3.0019290     0.7024740
  H        4.3131750    -1.4541550     1.3926990
  H       -5.4217990     0.5615290     0.5392290
units angstrom
no_reorient  #important for SAPT in psi4, default
symmetry c1  #important for SAPT in psi4, default
}

set PROPERTIES_ORIGIN ["COM"]
properties('MP2/aug-cc-pvtz', properties = ['dipole'])
--------------------------------------------------------------------------

    Molecular point group: c1
  Charge       = 0
  Multiplicity = 1
  Basis Set: AUG-CC-PVTZ
    Blend: AUG-CC-PVTZ
  Basis Set: (AUG-CC-PVTZ AUX)
    Blend: AUG-CC-PVTZ-JKFIT

    Orbital Energies [Eh]
    ---------------------

    Doubly Occupied:

       1A    -20.540548     2A    -15.563274     3A    -11.340988
       4A    -11.301926     5A    -11.258159     6A    -11.256954
       7A    -11.256112     8A    -11.252212     9A    -11.250903
      10A    -11.249928    11A    -11.247599    12A    -11.245723
      13A    -11.244185    14A    -11.238933    15A    -11.233913
      16A    -11.226466    17A     -1.373229    18A     -1.244226
      19A     -1.164201    20A     -1.141396    21A     -1.055613
      22A     -1.025986    23A     -1.020711    24A     -1.007288
      25A     -0.928834    26A     -0.888128    27A     -0.844625
      28A     -0.834738    29A     -0.805007    30A     -0.770712
      31A     -0.716662    32A     -0.703089    33A     -0.682919
      34A     -0.654854    35A     -0.645626    36A     -0.633126
      37A     -0.617267    38A     -0.615898    39A     -0.608413
      40A     -0.597736    41A     -0.594979    42A     -0.573093
      43A     -0.544076    44A     -0.541429    45A     -0.530461
      46A     -0.521562    47A     -0.514112    48A     -0.502020
      49A     -0.493892    50A     -0.485311    51A     -0.425989
      52A     -0.418574    53A     -0.350664    54A     -0.345863
      55A     -0.343862    56A     -0.294669

  @DF-RHF Final Energy:  -667.24006068524841

   => Energetics <=

    Nuclear Repulsion Energy =           1001.5640197343931277
    One-Electron Energy =               -2894.0708303979781704
    Two-Electron Energy =                1225.2667499783365201
    Total Energy =                       -667.2400606852484088
  Basis Set: (AUG-CC-PVTZ AUX)
    Blend: AUG-CC-PVTZ-RI
    Molecular point group: c1

    Geometry (in Angstrom), charge = 0, multiplicity = 1:

       Center              X                  Y                   Z               Mass
    ------------   -----------------  -----------------  -----------------  -----------------
         O           -0.042839949199    -1.993431706999    -0.433627135591    15.994914619570
         N            2.479477050801    -1.467610706999     0.427435864409    14.003074004430
         C            0.832079050801     0.217825293001    -0.192487135591    12.000000000000
         C            2.174649050801    -0.167071706999     0.103310864409    12.000000000000
         C           -0.256888949199    -0.782533706999    -0.237983135591    12.000000000000
         C           -1.669490949199    -0.337656706999    -0.035392135591    12.000000000000
         C            0.556459050801     1.553204293001    -0.539295135591    12.000000000000
         C            3.214265750801     0.791210593001    -0.148532635591    12.000000000000
         C            1.549821050801     2.524760293001    -0.537861135591    12.000000000000
         C            2.852443050801     2.158860293001    -0.188680135591    12.000000000000
         C           -2.011550949199     0.647677293001     0.903052864409    12.000000000000
         C           -2.679271949199    -1.008879706999    -0.739402135591    12.000000000000
         C           -3.353465949199     0.962868293001     1.121103864409    12.000000000000
         C           -4.015623949199    -0.672910706999    -0.534181135591    12.000000000000
         C            3.849682050801    -1.916874706999     0.555395864409    12.000000000000
         C           -4.355808949199     0.313013293001     0.397159864409    12.000000000000
         H           -0.457332949199     1.820923293001    -0.823454135591     1.007825032230
         H            4.183813050801     0.586448293001     0.387730864409     1.007825032230
         H            1.802209050801    -2.138793706999     0.080434864409     1.007825032230
         H            1.317980050801     3.547951293001    -0.820171135591     1.007825032230
         H            3.642531050801     2.906833293001    -0.169004135591     1.007825032230
         H           -1.232065949199     1.144637293001     1.474787864409     1.007825032230
         H           -2.398461949199    -1.791007706999    -1.440054135591     1.007825032230
         H           -3.617344949199     1.716683293001     1.859122864409     1.007825032230
         H           -4.795049949199    -1.184234706999    -1.094132135591     1.007825032230
         H            4.455294050801    -1.710945706999    -0.338792135591     1.007825032230
         H            3.835797050801    -2.994610706999     0.726068864409     1.007825032230
         H            4.335283050801    -1.446836706999     1.416293864409     1.007825032230
         H           -5.399690949199     0.568847293001     0.562823864409     1.007825032230

  Basis Set: AUG-CC-PVTZ
    Blend: AUG-CC-PVTZ
  Basis Set: (AUG-CC-PVTZ AUX)
    Blend: AUG-CC-PVTZ-JKFIT
	 Reference Energy          =    -667.2400606852484088 [Eh]
	 Singles Energy            =      -0.0000000000000000 [Eh]
	 Same-Spin Energy          =      -0.7354232798777283 [Eh]
	 Opposite-Spin Energy      =      -2.2682004732338807 [Eh]
	 Correlation Energy        =      -3.0036237531116088 [Eh]
	 Total Energy              =    -670.2436844383599919 [Eh]

	 ================> DF-SCS-MP2 Energies <==================
	-----------------------------------------------------------
	 SCS Same-Spin Scale       =       0.3333333333333333 [-]
	 SCS Opposite-Spin Scale   =       1.2000000000000000 [-]
	 SCS Same-Spin Energy      =      -0.2451410932925761 [Eh]
	 SCS Opposite-Spin Energy  =      -2.7218405678806570 [Eh]
	 SCS Correlation Energy    =      -2.9669816611732331 [Eh]
	 SCS Total Energy          =    -670.2070423464216447 [Eh]
	-----------------------------------------------------------

  Dipole Moment: [D]
     X:     0.0463      Y:     1.2365      Z:     0.5237     Total:     1.3436

*** Psi4 exiting successfully. Buy a developer a beer!
