                               Psi4 1.4a2.dev612

  ==> Input File <==

--------------------------------------------------------------------------
#psi4
#
memory 32 gb

molecule  {
0 1
  O       -0.0649480    -2.0007500    -0.4572220
  N        2.4573690    -1.4749290     0.4038410
  C        0.8099710     0.2105070    -0.2160820
  C        2.1525410    -0.1743900     0.0797160
  C       -0.2789970    -0.7898520    -0.2615780
  C       -1.6915990    -0.3449750    -0.0589870
  C        0.5618129     1.5176521    -0.7076266
  C        3.1364470     0.8361460     0.1179860
  C        1.5277130     2.5174420    -0.5614560
  C        2.8303350     2.1515420    -0.2122750
  C       -2.0336590     0.6403590     0.8794580
  C       -2.7013800    -1.0161980    -0.7629970
  C       -3.3755740     0.9555500     1.0975090
  C       -4.0377320    -0.6802290    -0.5577760
  C        3.8275740    -1.9241930     0.5318010
  C       -4.3779170     0.3056950     0.3735650
  H       -0.4794410     1.8136050    -0.8470490
  H        4.1617050     0.5791300     0.3641360
  H        1.7801010    -2.1461120     0.0568400
  H        1.2958720     3.5406330    -0.8437660
  H        3.6204230     2.8995150    -0.1925990
  H       -1.2541740     1.1373190     1.4511930
  H       -2.4205700    -1.7983260    -1.4636490
  H       -3.6394530     1.7093650     1.8355280
  H       -4.8171580    -1.1915530    -1.1177270
  H        4.4331860    -1.7182640    -0.3623870
  H        3.8136890    -3.0019290     0.7024740
  H        4.3131750    -1.4541550     1.3926990
  H       -5.4217990     0.5615290     0.5392290
units angstrom
no_reorient  #important for SAPT in psi4, default
symmetry c1  #important for SAPT in psi4, default
}

set PROPERTIES_ORIGIN ["COM"]
properties('MP2/aug-cc-pvtz', properties = ['dipole'])
--------------------------------------------------------------------------

    Molecular point group: c1
  Charge       = 0
  Multiplicity = 1
  Basis Set: AUG-CC-PVTZ
    Blend: AUG-CC-PVTZ
  Basis Set: (AUG-CC-PVTZ AUX)
    Blend: AUG-CC-PVTZ-JKFIT

    Orbital Energies [Eh]
    ---------------------

    Doubly Occupied:

       1A    -20.541060     2A    -15.561436     3A    -11.340712
       4A    -11.296574     5A    -11.257041     6A    -11.254507
       7A    -11.251896     8A    -11.251829     9A    -11.250548
      10A    -11.249723    11A    -11.247302    12A    -11.245372
      13A    -11.243912    14A    -11.239894    15A    -11.229496
      16A    -11.227624    17A     -1.373415    18A     -1.244080
      19A     -1.163646    20A     -1.140523    21A     -1.055624
      22A     -1.025677    23A     -1.020672    24A     -1.009005
      25A     -0.929036    26A     -0.888682    27A     -0.845265
      28A     -0.834414    29A     -0.806830    30A     -0.771361
      31A     -0.717804    32A     -0.700222    33A     -0.683112
      34A     -0.655247    35A     -0.645393    36A     -0.633270
      37A     -0.618450    38A     -0.614758    39A     -0.608064
      40A     -0.601022    41A     -0.595983    42A     -0.576869
      43A     -0.545692    44A     -0.541420    45A     -0.530270
      46A     -0.520438    47A     -0.512731    48A     -0.501818
      49A     -0.500453    50A     -0.486993    51A     -0.429343
      52A     -0.419311    53A     -0.350209    54A     -0.344872
      55A     -0.343501    56A     -0.291294

  @DF-RHF Final Energy:  -667.25495050609629

   => Energetics <=

    Nuclear Repulsion Energy =           1001.8503185142387792
    One-Electron Energy =               -2894.6791429703166614
    Two-Electron Energy =                1225.5738739499815892
    Total Energy =                       -667.2549505060962929
  Basis Set: (AUG-CC-PVTZ AUX)
    Blend: AUG-CC-PVTZ-RI
    Molecular point group: c1

    Geometry (in Angstrom), charge = 0, multiplicity = 1:

       Center              X                  Y                   Z               Mass
    ------------   -----------------  -----------------  -----------------  -----------------
         O           -0.041234141244    -1.994797116712    -0.441891110783    15.994914619570
         N            2.481082858756    -1.468976116712     0.419171889217    14.003074004430
         C            0.833684858756     0.216459883288    -0.200751110783    12.000000000000
         C            2.176254858756    -0.168437116712     0.095046889217    12.000000000000
         C           -0.255283141244    -0.783899116712    -0.246247110783    12.000000000000
         C           -1.667885141244    -0.339022116712    -0.043656110783    12.000000000000
         C            0.585526758756     1.523604983288    -0.692295710783    12.000000000000
         C            3.160160858756     0.842098883288     0.133316889217    12.000000000000
         C            1.551426858756     2.523394883288    -0.546125110783    12.000000000000
         C            2.854048858756     2.157494883288    -0.196944110783    12.000000000000
         C           -2.009945141244     0.646311883288     0.894788889217    12.000000000000
         C           -2.677666141244    -1.010245116712    -0.747666110783    12.000000000000
         C           -3.351860141244     0.961502883288     1.112839889217    12.000000000000
         C           -4.014018141244    -0.674276116712    -0.542445110783    12.000000000000
         C            3.851287858756    -1.918240116712     0.547131889217    12.000000000000
         C           -4.354203141244     0.311647883288     0.388895889217    12.000000000000
         H           -0.455727141244     1.819557883288    -0.831718110783     1.007825032230
         H            4.185418858756     0.585082883288     0.379466889217     1.007825032230
         H            1.803814858756    -2.140159116712     0.072170889217     1.007825032230
         H            1.319585858756     3.546585883288    -0.828435110783     1.007825032230
         H            3.644136858756     2.905467883288    -0.177268110783     1.007825032230
         H           -1.230460141244     1.143271883288     1.466523889217     1.007825032230
         H           -2.396856141244    -1.792373116712    -1.448318110783     1.007825032230
         H           -3.615739141244     1.715317883288     1.850858889217     1.007825032230
         H           -4.793444141244    -1.185600116712    -1.102396110783     1.007825032230
         H            4.456899858756    -1.712311116712    -0.347056110783     1.007825032230
         H            3.837402858756    -2.995976116712     0.717804889217     1.007825032230
         H            4.336888858756    -1.448202116712     1.408029889217     1.007825032230
         H           -5.398085141244     0.567481883288     0.554559889217     1.007825032230

  Basis Set: AUG-CC-PVTZ
    Blend: AUG-CC-PVTZ
  Basis Set: (AUG-CC-PVTZ AUX)
    Blend: AUG-CC-PVTZ-JKFIT
	 Reference Energy          =    -667.2549505060962929 [Eh]
	 Singles Energy            =      -0.0000000000000000 [Eh]
	 Same-Spin Energy          =      -0.7349388977895615 [Eh]
	 Opposite-Spin Energy      =      -2.2664122943546143 [Eh]
	 Correlation Energy        =      -3.0013511921441758 [Eh]
	 Total Energy              =    -670.2563016982404633 [Eh]

	 ================> DF-SCS-MP2 Energies <==================
	-----------------------------------------------------------
	 SCS Same-Spin Scale       =       0.3333333333333333 [-]
	 SCS Opposite-Spin Scale   =       1.2000000000000000 [-]
	 SCS Same-Spin Energy      =      -0.2449796325965205 [Eh]
	 SCS Opposite-Spin Energy  =      -2.7196947532255371 [Eh]
	 SCS Correlation Energy    =      -2.9646743858220574 [Eh]
	 SCS Total Energy          =    -670.2196248919183290 [Eh]
	-----------------------------------------------------------

  Dipole Moment: [D]
     X:     0.2585      Y:     1.1575      Z:     0.4367     Total:     1.2638

*** Psi4 exiting successfully. Buy a developer a beer!
