                               Psi4 1.4a2.dev612

  ==> Input File <==

--------------------------------------------------------------------------
#psi4
#
memory 32 gb

molecule  {
0 1
  O       -0.0649480    -2.0007500    -0.4572220
  N        2.4573690    -1.4749290     0.4038410
  C        0.8099710     0.2105070    -0.2160820
  C        2.1525410    -0.1743900     0.0797160
  C       -0.2789970    -0.7898520    -0.2615780
  C       -1.6775041    -0.3666645     0.0887658
  C        0.5343510     1.5458860    -0.5628900
  C        3.1364470     0.8361460     0.1179860
  C        1.5277130     2.5174420    -0.5614560
  C        2.8303350     2.1515420    -0.2122750
  C       -2.0336590     0.6403590     0.8794580
  C       -2.7013800    -1.0161980    -0.7629970
  C       -3.3755740     0.9555500     1.0975090
  C       -4.0377320    -0.6802290    -0.5577760
  C        3.8275740    -1.9241930     0.5318010
  C       -4.3779170     0.3056950     0.3735650
  H       -0.4794410     1.8136050    -0.8470490
  H        4.1617050     0.5791300     0.3641360
  H        1.7801010    -2.1461120     0.0568400
  H        1.2958720     3.5406330    -0.8437660
  H        3.6204230     2.8995150    -0.1925990
  H       -1.2541740     1.1373190     1.4511930
  H       -2.4205700    -1.7983260    -1.4636490
  H       -3.6394530     1.7093650     1.8355280
  H       -4.8171580    -1.1915530    -1.1177270
  H        4.4331860    -1.7182640    -0.3623870
  H        3.8136890    -3.0019290     0.7024740
  H        4.3131750    -1.4541550     1.3926990
  H       -5.4217990     0.5615290     0.5392290
units angstrom
no_reorient  #important for SAPT in psi4, default
symmetry c1  #important for SAPT in psi4, default
}

set PROPERTIES_ORIGIN ["COM"]
properties('MP2/aug-cc-pvtz', properties = ['dipole'])
--------------------------------------------------------------------------

    Molecular point group: c1
  Charge       = 0
  Multiplicity = 1
  Basis Set: AUG-CC-PVTZ
    Blend: AUG-CC-PVTZ
  Basis Set: (AUG-CC-PVTZ AUX)
    Blend: AUG-CC-PVTZ-JKFIT

    Orbital Energies [Eh]
    ---------------------

    Doubly Occupied:

       1A    -20.540822     2A    -15.562007     3A    -11.341571
       4A    -11.297445     5A    -11.257227     6A    -11.254250
       7A    -11.252890     8A    -11.252599     9A    -11.250257
      10A    -11.249716    11A    -11.245015    12A    -11.243012
      13A    -11.242369    14A    -11.238859    15A    -11.229080
      16A    -11.226013    17A     -1.373188    18A     -1.244550
      19A     -1.164969    20A     -1.142087    21A     -1.058529
      22A     -1.027018    23A     -1.016558    24A     -1.010188
      25A     -0.929415    26A     -0.888348    27A     -0.842314
      28A     -0.836549    29A     -0.808653    30A     -0.771365
      31A     -0.717704    32A     -0.701716    33A     -0.684755
      34A     -0.656842    35A     -0.644223    36A     -0.633915
      37A     -0.618091    38A     -0.615355    39A     -0.611141
      40A     -0.600695    41A     -0.592521    42A     -0.577989
      43A     -0.544921    44A     -0.542396    45A     -0.530881
      46A     -0.519934    47A     -0.514858    48A     -0.504577
      49A     -0.498094    50A     -0.484037    51A     -0.429559
      52A     -0.417507    53A     -0.358547    54A     -0.347991
      55A     -0.334430    56A     -0.292245

  @DF-RHF Final Energy:  -667.24998836711745

   => Energetics <=

    Nuclear Repulsion Energy =           1002.4210724682375258
    One-Electron Energy =               -2895.7985522208664406
    Two-Electron Energy =                1226.1274913855115756
    Total Energy =                       -667.2499883671173393
  Basis Set: (AUG-CC-PVTZ AUX)
    Blend: AUG-CC-PVTZ-RI
    Molecular point group: c1

    Geometry (in Angstrom), charge = 0, multiplicity = 1:

       Center              X                  Y                   Z               Mass
    ------------   -----------------  -----------------  -----------------  -----------------
         O           -0.040474291802    -1.995169134269    -0.458517721652    15.994914619570
         N            2.481842708198    -1.469348134269     0.402545278348    14.003074004430
         C            0.834444708198     0.216087865731    -0.217377721652    12.000000000000
         C            2.177014708198    -0.168809134269     0.078420278348    12.000000000000
         C           -0.254523291802    -0.784271134269    -0.262873721652    12.000000000000
         C           -1.653030391802    -0.361083634269     0.087470078348    12.000000000000
         C            0.558824708198     1.551466865731    -0.564185721652    12.000000000000
         C            3.160920708198     0.841726865731     0.116690278348    12.000000000000
         C            1.552186708198     2.523022865731    -0.562751721652    12.000000000000
         C            2.854808708198     2.157122865731    -0.213570721652    12.000000000000
         C           -2.009185291802     0.645939865731     0.878162278348    12.000000000000
         C           -2.676906291802    -1.010617134269    -0.764292721652    12.000000000000
         C           -3.351100291802     0.961130865731     1.096213278348    12.000000000000
         C           -4.013258291802    -0.674648134269    -0.559071721652    12.000000000000
         C            3.852047708198    -1.918612134269     0.530505278348    12.000000000000
         C           -4.353443291802     0.311275865731     0.372269278348    12.000000000000
         H           -0.454967291802     1.819185865731    -0.848344721652     1.007825032230
         H            4.186178708198     0.584710865731     0.362840278348     1.007825032230
         H            1.804574708198    -2.140531134269     0.055544278348     1.007825032230
         H            1.320345708198     3.546213865731    -0.845061721652     1.007825032230
         H            3.644896708198     2.905095865731    -0.193894721652     1.007825032230
         H           -1.229700291802     1.142899865731     1.449897278348     1.007825032230
         H           -2.396096291802    -1.792745134269    -1.464944721652     1.007825032230
         H           -3.614979291802     1.714945865731     1.834232278348     1.007825032230
         H           -4.792684291802    -1.185972134269    -1.119022721652     1.007825032230
         H            4.457659708198    -1.712683134269    -0.363682721652     1.007825032230
         H            3.838162708198    -2.996348134269     0.701178278348     1.007825032230
         H            4.337648708198    -1.448574134269     1.391403278348     1.007825032230
         H           -5.397325291802     0.567109865731     0.537933278348     1.007825032230

  Basis Set: AUG-CC-PVTZ
    Blend: AUG-CC-PVTZ
  Basis Set: (AUG-CC-PVTZ AUX)
    Blend: AUG-CC-PVTZ-JKFIT
	 Reference Energy          =    -667.2499883671174530 [Eh]
	 Singles Energy            =      -0.0000000000000000 [Eh]
	 Same-Spin Energy          =      -0.7344059638380471 [Eh]
	 Opposite-Spin Energy      =      -2.2659197788045908 [Eh]
	 Correlation Energy        =      -3.0003257426426382 [Eh]
	 Total Energy              =    -670.2503141097600974 [Eh]

	 ================> DF-SCS-MP2 Energies <==================
	-----------------------------------------------------------
	 SCS Same-Spin Scale       =       0.3333333333333333 [-]
	 SCS Opposite-Spin Scale   =       1.2000000000000000 [-]
	 SCS Same-Spin Energy      =      -0.2448019879460157 [Eh]
	 SCS Opposite-Spin Energy  =      -2.7191037345655089 [Eh]
	 SCS Correlation Energy    =      -2.9639057225115248 [Eh]
	 SCS Total Energy          =    -670.2138940896289796 [Eh]
	-----------------------------------------------------------

  Dipole Moment: [D]
     X:     0.3175      Y:     1.2036      Z:     0.3355     Total:     1.2892

*** Psi4 exiting successfully. Buy a developer a beer!
