                               Psi4 1.4a2.dev612

  ==> Input File <==

--------------------------------------------------------------------------
#psi4
#
memory 32 gb

molecule  {
0 1
  O       -0.0649480    -2.0007500    -0.4572220
  N        2.4573690    -1.4749290     0.4038410
  C        0.8099710     0.2105070    -0.2160820
  C        2.1525410    -0.1743900     0.0797160
  C       -0.2789970    -0.7898520    -0.2615780
  C       -1.6915990    -0.3449750    -0.0589870
  C        0.5343510     1.5458860    -0.5628900
  C        3.1364470     0.8361460     0.1179860
  C        1.5277130     2.5174420    -0.5614560
  C        2.8303350     2.1515420    -0.2122750
  C       -2.0336590     0.6403590     0.8794580
  C       -2.7013800    -1.0161980    -0.7629970
  C       -3.3755740     0.9555500     1.0975090
  C       -4.0377320    -0.6802290    -0.5577760
  C        3.8275740    -1.9241930     0.5318010
  C       -4.3779170     0.3056950     0.3735650
  H       -0.5316709     1.8656189    -0.6081629
  H        4.1617050     0.5791300     0.3641360
  H        1.7801010    -2.1461120     0.0568400
  H        1.2958720     3.5406330    -0.8437660
  H        3.6204230     2.8995150    -0.1925990
  H       -1.2541740     1.1373190     1.4511930
  H       -2.4205700    -1.7983260    -1.4636490
  H       -3.6394530     1.7093650     1.8355280
  H       -4.8171580    -1.1915530    -1.1177270
  H        4.4331860    -1.7182640    -0.3623870
  H        3.8136890    -3.0019290     0.7024740
  H        4.3131750    -1.4541550     1.3926990
  H       -5.4217990     0.5615290     0.5392290
units angstrom
no_reorient  #important for SAPT in psi4, default
symmetry c1  #important for SAPT in psi4, default
}

set PROPERTIES_ORIGIN ["COM"]
properties('MP2/aug-cc-pvtz', properties = ['dipole'])
--------------------------------------------------------------------------

    Molecular point group: c1
  Charge       = 0
  Multiplicity = 1
  Basis Set: AUG-CC-PVTZ
    Blend: AUG-CC-PVTZ
  Basis Set: (AUG-CC-PVTZ AUX)
    Blend: AUG-CC-PVTZ-JKFIT

    Orbital Energies [Eh]
    ---------------------

    Doubly Occupied:

       1A    -20.540334     2A    -15.561961     3A    -11.340677
       4A    -11.297242     5A    -11.257165     6A    -11.254536
       7A    -11.252708     8A    -11.251794     9A    -11.250407
      10A    -11.249764    11A    -11.247165    12A    -11.245571
      13A    -11.243892    14A    -11.239081    15A    -11.229206
      16A    -11.226245    17A     -1.372961    18A     -1.244502
      19A     -1.163953    20A     -1.141985    21A     -1.056392
      22A     -1.025885    23A     -1.020855    24A     -1.009508
      25A     -0.929574    26A     -0.888819    27A     -0.845037
      28A     -0.835199    29A     -0.806135    30A     -0.771767
      31A     -0.717334    32A     -0.701643    33A     -0.683985
      34A     -0.655119    35A     -0.645241    36A     -0.633804
      37A     -0.619319    38A     -0.614800    39A     -0.607202
      40A     -0.600903    41A     -0.595237    42A     -0.577799
      43A     -0.546628    44A     -0.541960    45A     -0.531068
      46A     -0.521724    47A     -0.513198    48A     -0.501837
      49A     -0.498675    50A     -0.487726    51A     -0.429430
      52A     -0.418894    53A     -0.349741    54A     -0.346107
      55A     -0.343427    56A     -0.292135

  @DF-RHF Final Energy:  -667.25816937645141

   => Energetics <=

    Nuclear Repulsion Energy =           1002.5677038970974309
    One-Electron Energy =               -2896.1012344403698080
    Two-Electron Energy =                1226.2753611668208578
    Total Energy =                       -667.2581693764514057
  Basis Set: (AUG-CC-PVTZ AUX)
    Blend: AUG-CC-PVTZ-RI
    Molecular point group: c1

    Geometry (in Angstrom), charge = 0, multiplicity = 1:

       Center              X                  Y                   Z               Mass
    ------------   -----------------  -----------------  -----------------  -----------------
         O           -0.039423710555    -1.996650400655    -0.451259169856    15.994914619570
         N            2.482893289445    -1.470829400655     0.409803830144    14.003074004430
         C            0.835495289445     0.214606599345    -0.210119169856    12.000000000000
         C            2.178065289445    -0.170290400655     0.085678830144    12.000000000000
         C           -0.253472710555    -0.785752400655    -0.255615169856    12.000000000000
         C           -1.666074710555    -0.340875400655    -0.053024169856    12.000000000000
         C            0.559875289445     1.549985599345    -0.556927169856    12.000000000000
         C            3.161971289445     0.840245599345     0.123948830144    12.000000000000
         C            1.553237289445     2.521541599345    -0.555493169856    12.000000000000
         C            2.855859289445     2.155641599345    -0.206312169856    12.000000000000
         C           -2.008134710555     0.644458599345     0.885420830144    12.000000000000
         C           -2.675855710555    -1.012098400655    -0.757034169856    12.000000000000
         C           -3.350049710555     0.959649599345     1.103471830144    12.000000000000
         C           -4.012207710555    -0.676129400655    -0.551813169856    12.000000000000
         C            3.853098289445    -1.920093400655     0.537763830144    12.000000000000
         C           -4.352392710555     0.309794599345     0.379527830144    12.000000000000
         H           -0.506146610555     1.869718499345    -0.602200069856     1.007825032230
         H            4.187229289445     0.583229599345     0.370098830144     1.007825032230
         H            1.805625289445    -2.142012400655     0.062802830144     1.007825032230
         H            1.321396289445     3.544732599345    -0.837803169856     1.007825032230
         H            3.645947289445     2.903614599345    -0.186636169856     1.007825032230
         H           -1.228649710555     1.141418599345     1.457155830144     1.007825032230
         H           -2.395045710555    -1.794226400655    -1.457686169856     1.007825032230
         H           -3.613928710555     1.713464599345     1.841490830144     1.007825032230
         H           -4.791633710555    -1.187453400655    -1.111764169856     1.007825032230
         H            4.458710289445    -1.714164400655    -0.356424169856     1.007825032230
         H            3.839213289445    -2.997829400655     0.708436830144     1.007825032230
         H            4.338699289445    -1.450055400655     1.398661830144     1.007825032230
         H           -5.396274710555     0.565628599345     0.545191830144     1.007825032230

  Basis Set: AUG-CC-PVTZ
    Blend: AUG-CC-PVTZ
  Basis Set: (AUG-CC-PVTZ AUX)
    Blend: AUG-CC-PVTZ-JKFIT
	 Reference Energy          =    -667.2581693764514057 [Eh]
	 Singles Energy            =      -0.0000000000000000 [Eh]
	 Same-Spin Energy          =      -0.7350746346326110 [Eh]
	 Opposite-Spin Energy      =      -2.2661377837447834 [Eh]
	 Correlation Energy        =      -3.0012124183773943 [Eh]
	 Total Energy              =    -670.2593817948287551 [Eh]

	 ================> DF-SCS-MP2 Energies <==================
	-----------------------------------------------------------
	 SCS Same-Spin Scale       =       0.3333333333333333 [-]
	 SCS Opposite-Spin Scale   =       1.2000000000000000 [-]
	 SCS Same-Spin Energy      =      -0.2450248782108703 [Eh]
	 SCS Opposite-Spin Energy  =      -2.7193653404937401 [Eh]
	 SCS Correlation Energy    =      -2.9643902187046103 [Eh]
	 SCS Total Energy          =    -670.2225595951559853 [Eh]
	-----------------------------------------------------------

  Dipole Moment: [D]
     X:     0.3154      Y:     1.1891      Z:     0.4770     Total:     1.3195

*** Psi4 exiting successfully. Buy a developer a beer!
