                               Psi4 1.4a2.dev612

  ==> Input File <==

--------------------------------------------------------------------------
#psi4
#
memory 32 gb

molecule  {
0 1
  O       -0.0649480    -2.0007500    -0.4572220
  N        2.4573690    -1.4749290     0.4038410
  C        0.8099710     0.2105070    -0.2160820
  C        2.1525410    -0.1743900     0.0797160
  C       -0.2789970    -0.7898520    -0.2615780
  C       -1.6915990    -0.3449750    -0.0589870
  C        0.5709669     1.5082408    -0.7558722
  C        3.1364470     0.8361460     0.1179860
  C        1.5277130     2.5174420    -0.5614560
  C        2.8303350     2.1515420    -0.2122750
  C       -2.0336590     0.6403590     0.8794580
  C       -2.7013800    -1.0161980    -0.7629970
  C       -3.3755740     0.9555500     1.0975090
  C       -4.0377320    -0.6802290    -0.5577760
  C        3.8275740    -1.9241930     0.5318010
  C       -4.3779170     0.3056950     0.3735650
  H       -0.4794410     1.8136050    -0.8470490
  H        4.1617050     0.5791300     0.3641360
  H        1.7801010    -2.1461120     0.0568400
  H        1.2958720     3.5406330    -0.8437660
  H        3.6204230     2.8995150    -0.1925990
  H       -1.2541740     1.1373190     1.4511930
  H       -2.4205700    -1.7983260    -1.4636490
  H       -3.6394530     1.7093650     1.8355280
  H       -4.8171580    -1.1915530    -1.1177270
  H        4.4331860    -1.7182640    -0.3623870
  H        3.8136890    -3.0019290     0.7024740
  H        4.3131750    -1.4541550     1.3926990
  H       -5.4217990     0.5615290     0.5392290
units angstrom
no_reorient  #important for SAPT in psi4, default
symmetry c1  #important for SAPT in psi4, default
}

set PROPERTIES_ORIGIN ["COM"]
properties('MP2/aug-cc-pvtz', properties = ['dipole'])
--------------------------------------------------------------------------

    Molecular point group: c1
  Charge       = 0
  Multiplicity = 1
  Basis Set: AUG-CC-PVTZ
    Blend: AUG-CC-PVTZ
  Basis Set: (AUG-CC-PVTZ AUX)
    Blend: AUG-CC-PVTZ-JKFIT

    Orbital Energies [Eh]
    ---------------------

    Doubly Occupied:

       1A    -20.541594     2A    -15.561262     3A    -11.340908
       4A    -11.296305     5A    -11.257071     6A    -11.255920
       7A    -11.251929     8A    -11.251575     9A    -11.250606
      10A    -11.249822    11A    -11.247353    12A    -11.245454
      13A    -11.243984    14A    -11.240949    15A    -11.230180
      16A    -11.229088    17A     -1.373779    18A     -1.243987
      19A     -1.163630    20A     -1.139608    21A     -1.055385
      22A     -1.025667    23A     -1.020566    24A     -1.008354
      25A     -0.928838    26A     -0.888584    27A     -0.845176
      28A     -0.834275    29A     -0.806314    30A     -0.771184
      31A     -0.717605    32A     -0.699482    33A     -0.682849
      34A     -0.654819    35A     -0.645494    36A     -0.633115
      37A     -0.617931    38A     -0.614493    39A     -0.607983
      40A     -0.600346    41A     -0.595798    42A     -0.576428
      43A     -0.545708    44A     -0.541004    45A     -0.529911
      46A     -0.520452    47A     -0.512599    48A     -0.501723
      49A     -0.498802    50A     -0.486970    51A     -0.429246
      52A     -0.419343    53A     -0.350134    54A     -0.344673
      55A     -0.343475    56A     -0.290816

  @DF-RHF Final Energy:  -667.24886522379325

   => Energetics <=

    Nuclear Repulsion Energy =           1001.5134770691086032
    One-Electron Energy =               -2894.0035932342611886
    Two-Electron Energy =                1225.2412509413593398
    Total Energy =                       -667.2488652237932456
  Basis Set: (AUG-CC-PVTZ AUX)
    Blend: AUG-CC-PVTZ-RI
    Molecular point group: c1

    Geometry (in Angstrom), charge = 0, multiplicity = 1:

       Center              X                  Y                   Z               Mass
    ------------   -----------------  -----------------  -----------------  -----------------
         O           -0.041754501968    -1.994262129725    -0.439148581251    15.994914619570
         N            2.480562498032    -1.468441129725     0.421914418749    14.003074004430
         C            0.833164498032     0.216994870275    -0.198008581251    12.000000000000
         C            2.175734498032    -0.167902129725     0.097789418749    12.000000000000
         C           -0.255803501968    -0.783364129725    -0.243504581251    12.000000000000
         C           -1.668405501968    -0.338487129725    -0.040913581251    12.000000000000
         C            0.594160398032     1.514728670275    -0.737798781251    12.000000000000
         C            3.159640498032     0.842633870275     0.136059418749    12.000000000000
         C            1.550906498032     2.523929870275    -0.543382581251    12.000000000000
         C            2.853528498032     2.158029870275    -0.194201581251    12.000000000000
         C           -2.010465501968     0.646846870275     0.897531418749    12.000000000000
         C           -2.678186501968    -1.009710129725    -0.744923581251    12.000000000000
         C           -3.352380501968     0.962037870275     1.115582418749    12.000000000000
         C           -4.014538501968    -0.673741129725    -0.539702581251    12.000000000000
         C            3.850767498032    -1.917705129725     0.549874418749    12.000000000000
         C           -4.354723501968     0.312182870275     0.391638418749    12.000000000000
         H           -0.456247501968     1.820092870275    -0.828975581251     1.007825032230
         H            4.184898498032     0.585617870275     0.382209418749     1.007825032230
         H            1.803294498032    -2.139624129725     0.074913418749     1.007825032230
         H            1.319065498032     3.547120870275    -0.825692581251     1.007825032230
         H            3.643616498032     2.906002870275    -0.174525581251     1.007825032230
         H           -1.230980501968     1.143806870275     1.469266418749     1.007825032230
         H           -2.397376501968    -1.791838129725    -1.445575581251     1.007825032230
         H           -3.616259501968     1.715852870275     1.853601418749     1.007825032230
         H           -4.793964501968    -1.185065129725    -1.099653581251     1.007825032230
         H            4.456379498032    -1.711776129725    -0.344313581251     1.007825032230
         H            3.836882498032    -2.995441129725     0.720547418749     1.007825032230
         H            4.336368498032    -1.447667129725     1.410772418749     1.007825032230
         H           -5.398605501968     0.568016870275     0.557302418749     1.007825032230

  Basis Set: AUG-CC-PVTZ
    Blend: AUG-CC-PVTZ
  Basis Set: (AUG-CC-PVTZ AUX)
    Blend: AUG-CC-PVTZ-JKFIT
	 Reference Energy          =    -667.2488652237932456 [Eh]
	 Singles Energy            =      -0.0000000000000000 [Eh]
	 Same-Spin Energy          =      -0.7352985190706173 [Eh]
	 Opposite-Spin Energy      =      -2.2674336487385811 [Eh]
	 Correlation Energy        =      -3.0027321678091985 [Eh]
	 Total Energy              =    -670.2515973916024450 [Eh]

	 ================> DF-SCS-MP2 Energies <==================
	-----------------------------------------------------------
	 SCS Same-Spin Scale       =       0.3333333333333333 [-]
	 SCS Opposite-Spin Scale   =       1.2000000000000000 [-]
	 SCS Same-Spin Energy      =      -0.2450995063568724 [Eh]
	 SCS Opposite-Spin Energy  =      -2.7209203784862974 [Eh]
	 SCS Correlation Energy    =      -2.9660198848431700 [Eh]
	 SCS Total Energy          =    -670.2148851086363948 [Eh]
	-----------------------------------------------------------

  Dipole Moment: [D]
     X:     0.2579      Y:     1.1366      Z:     0.4755     Total:     1.2588

*** Psi4 exiting successfully. Buy a developer a beer!
