                               Psi4 1.4a3.dev225

  ==> Input File <==

--------------------------------------------------------------------------
#psi4
#
memory 32 gb

molecule  {
0 1
  S        1.2441830     0.0010390    -0.8590750
  F        1.5874080    -1.0933110     1.5061340
  F        3.3145200    -0.0009050     0.7339870
  F        1.5874370     1.0896860     1.5087600
  O        1.6149610    -1.2856280    -1.4517330
  O        1.6149580     1.2891350    -1.4486230
  C       -0.4817510     0.0005820    -0.4824320
  C       -1.1416100    -1.2204050    -0.3274150
  C       -1.1416150     1.2211910    -0.3244870
  C       -3.1954030    -0.0001810     0.1494170
  C        1.9826530    -0.0010090     0.8356960
  C       -2.4997500    -1.2060900    -0.0161970
  C       -2.4802613     1.2063412    -0.0177705
  C       -4.6532730    -0.0006360     0.5253300
  H       -0.6057720    -2.1536140    -0.4772800
  H       -0.6057800     2.1547590    -0.4721140
  H       -3.0298860    -2.1498930     0.0955450
  H       -3.0298940     2.1496560     0.1007020
  H       -5.1606490     0.8856040     0.1349280
  H       -5.1606620    -0.8858980     0.1327310
  H       -4.7748820    -0.0019860     1.6139510
units angstrom
no_reorient  #important for SAPT in psi4, default
symmetry c1  #important for SAPT in psi4, default
}

set PROPERTIES_ORIGIN ["COM"]
properties('MP2/aug-cc-pvtz', properties = ['dipole'])
--------------------------------------------------------------------------

    Molecular point group: c1
  Charge       = 0
  Multiplicity = 1
  Basis Set: AUG-CC-PVTZ
    Blend: AUG-CC-PVTZ
  Basis Set: (AUG-CC-PVTZ AUX)
    Blend: AUG-CC-PVTZ-JKFIT

    Orbital Energies [Eh]
    ---------------------

    Doubly Occupied:

       1A    -92.215855     2A    -26.371284     3A    -26.371242
       4A    -26.368665     5A    -20.573716     6A    -20.573642
       7A    -11.549842     8A    -11.292609     9A    -11.289086
      10A    -11.284994    11A    -11.281631    12A    -11.264912
      13A    -11.264737    14A    -11.253276    15A     -9.184544
      16A     -6.869404    17A     -6.868676    18A     -6.868390
      19A     -1.756669    20A     -1.664993    21A     -1.664123
      22A     -1.465536    23A     -1.358114    24A     -1.198844
      25A     -1.099759    26A     -1.055834    27A     -1.039051
      28A     -0.981483    29A     -0.916935    30A     -0.867874
      31A     -0.856998    32A     -0.850359    33A     -0.845222
      34A     -0.796920    35A     -0.742910    36A     -0.736457
      37A     -0.725798    38A     -0.695387    39A     -0.693092
      40A     -0.684471    41A     -0.677874    42A     -0.670670
      43A     -0.666103    44A     -0.647050    45A     -0.637355
      46A     -0.625587    47A     -0.605290    48A     -0.570601
      49A     -0.547460    50A     -0.533604    51A     -0.523773
      52A     -0.521649    53A     -0.514795    54A     -0.496893
      55A     -0.468025    56A     -0.374724    57A     -0.372357

  @DF-RHF Final Energy: -1152.83014406366806

   => Energetics <=

    Nuclear Repulsion Energy =           1102.8619902127149999
    One-Electron Energy =               -3781.5899793436465188
    Two-Electron Energy =                1525.8978450672636882
    Total Energy =                      -1152.8301440636680582
  Basis Set: (AUG-CC-PVTZ AUX)
    Blend: AUG-CC-PVTZ-RI
    Molecular point group: c1

    Geometry (in Angstrom), charge = 0, multiplicity = 1:

       Center              X                  Y                   Z               Mass
    ------------   -----------------  -----------------  -----------------  -----------------
         S            1.115376069141     0.001041740724    -0.870718981633    31.972071174400
         F            1.458601069141    -1.093308259276     1.494490018367    18.998403162730
         F            3.185713069141    -0.000902259276     0.722343018367    18.998403162730
         F            1.458630069141     1.089688740724     1.497116018367    18.998403162730
         O            1.486154069141    -1.285625259276    -1.463376981633    15.994914619570
         O            1.486151069141     1.289137740724    -1.460266981633    15.994914619570
         C           -0.610557930859     0.000584740724    -0.494075981633    12.000000000000
         C           -1.270416930859    -1.220402259276    -0.339058981633    12.000000000000
         C           -1.270421930859     1.221193740724    -0.336130981633    12.000000000000
         C           -3.324209930859    -0.000178259276     0.137773018367    12.000000000000
         C            1.853846069141    -0.001006259276     0.824052018367    12.000000000000
         C           -2.628556930859    -1.206087259276    -0.027840981633    12.000000000000
         C           -2.609068230859     1.206343940724    -0.029414481633    12.000000000000
         C           -4.782079930859    -0.000633259276     0.513686018367    12.000000000000
         H           -0.734578930859    -2.153611259276    -0.488923981633     1.007825032230
         H           -0.734586930859     2.154761740724    -0.483757981633     1.007825032230
         H           -3.158692930859    -2.149890259276     0.083901018367     1.007825032230
         H           -3.158700930859     2.149658740724     0.089058018367     1.007825032230
         H           -5.289455930859     0.885606740724     0.123284018367     1.007825032230
         H           -5.289468930859    -0.885895259276     0.121087018367     1.007825032230
         H           -4.903688930859    -0.001983259276     1.602307018367     1.007825032230

  Basis Set: AUG-CC-PVTZ
    Blend: AUG-CC-PVTZ
  Basis Set: (AUG-CC-PVTZ AUX)
    Blend: AUG-CC-PVTZ-JKFIT
	 Reference Energy          =   -1152.8301440636680582 [Eh]
	 Singles Energy            =      -0.0000000000000000 [Eh]
	 Same-Spin Energy          =      -0.7696795161448629 [Eh]
	 Opposite-Spin Energy      =      -2.2426330894459561 [Eh]
	 Correlation Energy        =      -3.0123126055908189 [Eh]
	 Total Energy              =   -1155.8424566692588087 [Eh]

	 ================> DF-SCS-MP2 Energies <==================
	-----------------------------------------------------------
	 SCS Same-Spin Scale       =       0.3333333333333333 [-]
	 SCS Opposite-Spin Scale   =       1.2000000000000000 [-]
	 SCS Same-Spin Energy      =      -0.2565598387149542 [Eh]
	 SCS Opposite-Spin Energy  =      -2.6911597073351472 [Eh]
	 SCS Correlation Energy    =      -2.9477195460501013 [Eh]
	 SCS Total Energy          =   -1155.7778636097182243 [Eh]
	-----------------------------------------------------------

  Dipole Moment: [D]
     X:    -5.4383      Y:    -0.0143      Z:     2.1388     Total:     5.8438

*** Psi4 exiting successfully. Buy a developer a beer!
