                               Psi4 1.4a3.dev225

  ==> Input File <==

--------------------------------------------------------------------------
#psi4
#
memory 32 gb

molecule  {
0 1
  S        1.2438544     0.0318683    -0.8592815
  F        1.5874080    -1.0933110     1.5061340
  F        3.3145200    -0.0009050     0.7339870
  F        1.5874370     1.0896860     1.5087600
  O        1.6149610    -1.2856280    -1.4517330
  O        1.6149580     1.2891350    -1.4486230
  C       -0.4817510     0.0005820    -0.4824320
  C       -1.1416100    -1.2204050    -0.3274150
  C       -1.1416150     1.2211910    -0.3244870
  C       -3.1954030    -0.0001810     0.1494170
  C        1.9826530    -0.0010090     0.8356960
  C       -2.4997500    -1.2060900    -0.0161970
  C       -2.4997550     1.2061250    -0.0133040
  C       -4.6532730    -0.0006360     0.5253300
  H       -0.6057720    -2.1536140    -0.4772800
  H       -0.6057800     2.1547590    -0.4721140
  H       -3.0298860    -2.1498930     0.0955450
  H       -3.0298940     2.1496560     0.1007020
  H       -5.1606490     0.8856040     0.1349280
  H       -5.1606620    -0.8858980     0.1327310
  H       -4.7748820    -0.0019860     1.6139510
units angstrom
no_reorient  #important for SAPT in psi4, default
symmetry c1  #important for SAPT in psi4, default
}

set PROPERTIES_ORIGIN ["COM"]
properties('MP2/aug-cc-pvtz', properties = ['dipole'])
--------------------------------------------------------------------------

    Molecular point group: c1
  Charge       = 0
  Multiplicity = 1
  Basis Set: AUG-CC-PVTZ
    Blend: AUG-CC-PVTZ
  Basis Set: (AUG-CC-PVTZ AUX)
    Blend: AUG-CC-PVTZ-JKFIT

    Orbital Energies [Eh]
    ---------------------

    Doubly Occupied:

       1A    -92.215743     2A    -26.371417     3A    -26.371242
       4A    -26.368756     5A    -20.579897     6A    -20.567820
       7A    -11.549953     8A    -11.293021     9A    -11.287539
      10A    -11.284691    11A    -11.284511    12A    -11.265129
      13A    -11.265082    14A    -11.252424    15A     -9.184613
      16A     -6.869446    17A     -6.868806    18A     -6.868392
      19A     -1.756742    20A     -1.665114    21A     -1.664149
      22A     -1.469954    23A     -1.354761    24A     -1.198008
      25A     -1.100694    26A     -1.053622    27A     -1.038861
      28A     -0.980864    29A     -0.917123    30A     -0.869770
      31A     -0.856807    32A     -0.850417    33A     -0.844961
      34A     -0.796919    35A     -0.743148    36A     -0.736516
      37A     -0.725934    38A     -0.695415    39A     -0.693141
      40A     -0.683965    41A     -0.677946    42A     -0.671598
      43A     -0.667273    44A     -0.647216    45A     -0.639113
      46A     -0.625195    47A     -0.604976    48A     -0.569968
      49A     -0.546270    50A     -0.533060    51A     -0.526376
      52A     -0.522681    53A     -0.514769    54A     -0.495072
      55A     -0.467034    56A     -0.374002    57A     -0.372259

  @DF-RHF Final Energy: -1152.82891045445308

   => Energetics <=

    Nuclear Repulsion Energy =           1102.6009206314759012
    One-Electron Energy =               -3781.0593153540671665
    Two-Electron Energy =                1525.6294842681379578
    Total Energy =                      -1152.8289104544530801
  Basis Set: (AUG-CC-PVTZ AUX)
    Blend: AUG-CC-PVTZ-RI
    Molecular point group: c1

    Geometry (in Angstrom), charge = 0, multiplicity = 1:

       Center              X                  Y                   Z               Mass
    ------------   -----------------  -----------------  -----------------  -----------------
         S            1.116138618490     0.027482513868    -0.871135273034    31.972071174400
         F            1.459692218490    -1.097696786132     1.494280226966    18.998403162730
         F            3.186804218490    -0.005290786132     0.722133226966    18.998403162730
         F            1.459721218490     1.085300213868     1.496906226966    18.998403162730
         O            1.487245218490    -1.290013786132    -1.463586773034    15.994914619570
         O            1.487242218490     1.284749213868    -1.460476773034    15.994914619570
         C           -0.609466781510    -0.003803786132    -0.494285773034    12.000000000000
         C           -1.269325781510    -1.224790786132    -0.339268773034    12.000000000000
         C           -1.269330781510     1.216805213868    -0.336340773034    12.000000000000
         C           -3.323118781510    -0.004566786132     0.137563226966    12.000000000000
         C            1.854937218490    -0.005394786132     0.823842226966    12.000000000000
         C           -2.627465781510    -1.210475786132    -0.028050773034    12.000000000000
         C           -2.627470781510     1.201739213868    -0.025157773034    12.000000000000
         C           -4.780988781510    -0.005021786132     0.513476226966    12.000000000000
         H           -0.733487781510    -2.157999786132    -0.489133773034     1.007825032230
         H           -0.733495781510     2.150373213868    -0.483967773034     1.007825032230
         H           -3.157601781510    -2.154278786132     0.083691226966     1.007825032230
         H           -3.157609781510     2.145270213868     0.088848226966     1.007825032230
         H           -5.288364781510     0.881218213868     0.123074226966     1.007825032230
         H           -5.288377781510    -0.890283786132     0.120877226966     1.007825032230
         H           -4.902597781510    -0.006371786132     1.602097226966     1.007825032230

  Basis Set: AUG-CC-PVTZ
    Blend: AUG-CC-PVTZ
  Basis Set: (AUG-CC-PVTZ AUX)
    Blend: AUG-CC-PVTZ-JKFIT
	 Reference Energy          =   -1152.8289104544530801 [Eh]
	 Singles Energy            =      -0.0000000000000000 [Eh]
	 Same-Spin Energy          =      -0.7696381406075948 [Eh]
	 Opposite-Spin Energy      =      -2.2426375467651796 [Eh]
	 Correlation Energy        =      -3.0122756873727745 [Eh]
	 Total Energy              =   -1155.8411861418258013 [Eh]

	 ================> DF-SCS-MP2 Energies <==================
	-----------------------------------------------------------
	 SCS Same-Spin Scale       =       0.3333333333333333 [-]
	 SCS Opposite-Spin Scale   =       1.2000000000000000 [-]
	 SCS Same-Spin Energy      =      -0.2565460468691982 [Eh]
	 SCS Opposite-Spin Energy  =      -2.6911650561182152 [Eh]
	 SCS Correlation Energy    =      -2.9477111029874137 [Eh]
	 SCS Total Energy          =   -1155.7766215574404214 [Eh]
	-----------------------------------------------------------

  Dipole Moment: [D]
     X:    -5.4263      Y:     0.2386      Z:     2.1363     Total:     5.8366

*** Psi4 exiting successfully. Buy a developer a beer!
