                               Psi4 1.4a3.dev225

  ==> Input File <==

--------------------------------------------------------------------------
#psi4
#
memory 32 gb

molecule  {
0 1
  S        1.2441830     0.0010390    -0.8590750
  F        1.5874080    -1.0933110     1.5061340
  F        3.3145200    -0.0009050     0.7339870
  F        1.5874370     1.0896860     1.5087600
  O        1.6149610    -1.2856280    -1.4517330
  O        1.6149580     1.2891350    -1.4486230
  C       -0.4817510     0.0005820    -0.4824320
  C       -1.1416100    -1.2204050    -0.3274150
  C       -1.1416150     1.2211910    -0.3244870
  C       -3.1954030    -0.0001810     0.1494170
  C        1.9826530    -0.0010090     0.8356960
  C       -2.4997500    -1.2060900    -0.0161970
  C       -2.4997550     1.2061250    -0.0133040
  C       -4.6532730    -0.0006360     0.5253300
  H       -0.6057720    -2.1536140    -0.4772800
  H       -0.6057800     2.1547590    -0.4721140
  H       -3.0298860    -2.1498930     0.0955450
  H       -3.0298940     2.1496560     0.1007020
  H       -5.1142405     0.8045417     0.1706372
  H       -5.1606620    -0.8858980     0.1327310
  H       -4.7748820    -0.0019860     1.6139510
units angstrom
no_reorient  #important for SAPT in psi4, default
symmetry c1  #important for SAPT in psi4, default
}

set PROPERTIES_ORIGIN ["COM"]
properties('MP2/aug-cc-pvtz', properties = ['dipole'])
--------------------------------------------------------------------------

    Molecular point group: c1
  Charge       = 0
  Multiplicity = 1
  Basis Set: AUG-CC-PVTZ
    Blend: AUG-CC-PVTZ
  Basis Set: (AUG-CC-PVTZ AUX)
    Blend: AUG-CC-PVTZ-JKFIT

    Orbital Energies [Eh]
    ---------------------

    Doubly Occupied:

       1A    -92.215954     2A    -26.371296     3A    -26.371270
       4A    -26.368714     5A    -20.573782     6A    -20.573763
       7A    -11.549904     8A    -11.292773     9A    -11.286849
      10A    -11.284542    11A    -11.284262    12A    -11.265034
      13A    -11.264517    14A    -11.240316    15A     -9.184649
      16A     -6.869509    17A     -6.868781    18A     -6.868493
      19A     -1.756699    20A     -1.665011    21A     -1.664161
      22A     -1.465628    23A     -1.358201    24A     -1.197914
      25A     -1.102120    26A     -1.053394    27A     -1.040106
      28A     -0.986520    29A     -0.919209    30A     -0.869668
      31A     -0.857744    32A     -0.850384    33A     -0.845599
      34A     -0.796886    35A     -0.743031    36A     -0.736480
      37A     -0.726038    38A     -0.695453    39A     -0.693170
      40A     -0.685276    41A     -0.677911    42A     -0.671910
      43A     -0.666398    44A     -0.647761    45A     -0.639158
      46A     -0.625150    47A     -0.610120    48A     -0.579805
      49A     -0.545672    50A     -0.532647    51A     -0.527090
      52A     -0.522561    53A     -0.514602    54A     -0.496982
      55A     -0.467841    56A     -0.373923    57A     -0.372080

  @DF-RHF Final Energy: -1152.82458097502285

   => Energetics <=

    Nuclear Repulsion Energy =           1103.0711873811656005
    One-Electron Energy =               -3781.9621152649615397
    Two-Electron Energy =                1526.0663469087730846
    Total Energy =                      -1152.8245809750228545
  Basis Set: (AUG-CC-PVTZ AUX)
    Blend: AUG-CC-PVTZ-RI
    Molecular point group: c1

    Geometry (in Angstrom), charge = 0, multiplicity = 1:

       Center              X                  Y                   Z               Mass
    ------------   -----------------  -----------------  -----------------  -----------------
         S            1.116211528170     0.001418019934    -0.871118900707    31.972071174400
         F            1.459436528170    -1.092931980066     1.494090099293    18.998403162730
         F            3.186548528170    -0.000525980066     0.721943099293    18.998403162730
         F            1.459465528170     1.090065019934     1.496716099293    18.998403162730
         O            1.486989528170    -1.285248980066    -1.463776900707    15.994914619570
         O            1.486986528170     1.289514019934    -1.460666900707    15.994914619570
         C           -0.609722471830     0.000961019934    -0.494475900707    12.000000000000
         C           -1.269581471830    -1.220025980066    -0.339458900707    12.000000000000
         C           -1.269586471830     1.221570019934    -0.336530900707    12.000000000000
         C           -3.323374471830     0.000198019934     0.137373099293    12.000000000000
         C            1.854681528170    -0.000629980066     0.823652099293    12.000000000000
         C           -2.627721471830    -1.205710980066    -0.028240900707    12.000000000000
         C           -2.627726471830     1.206504019934    -0.025347900707    12.000000000000
         C           -4.781244471830    -0.000256980066     0.513286099293    12.000000000000
         H           -0.733743471830    -2.153234980066    -0.489323900707     1.007825032230
         H           -0.733751471830     2.155138019934    -0.484157900707     1.007825032230
         H           -3.157857471830    -2.149513980066     0.083501099293     1.007825032230
         H           -3.157865471830     2.150035019934     0.088658099293     1.007825032230
         H           -5.242211971830     0.804920719934     0.158593299293     1.007825032230
         H           -5.288633471830    -0.885518980066     0.120687099293     1.007825032230
         H           -4.902853471830    -0.001606980066     1.601907099293     1.007825032230

  Basis Set: AUG-CC-PVTZ
    Blend: AUG-CC-PVTZ
  Basis Set: (AUG-CC-PVTZ AUX)
    Blend: AUG-CC-PVTZ-JKFIT
	 Reference Energy          =   -1152.8245809750228545 [Eh]
	 Singles Energy            =      -0.0000000000000000 [Eh]
	 Same-Spin Energy          =      -0.7696734251619186 [Eh]
	 Opposite-Spin Energy      =      -2.2421655281695734 [Eh]
	 Correlation Energy        =      -3.0118389533314920 [Eh]
	 Total Energy              =   -1155.8364199283544167 [Eh]

	 ================> DF-SCS-MP2 Energies <==================
	-----------------------------------------------------------
	 SCS Same-Spin Scale       =       0.3333333333333333 [-]
	 SCS Opposite-Spin Scale   =       1.2000000000000000 [-]
	 SCS Same-Spin Energy      =      -0.2565578083873062 [Eh]
	 SCS Opposite-Spin Energy  =      -2.6905986338034880 [Eh]
	 SCS Correlation Energy    =      -2.9471564421907943 [Eh]
	 SCS Total Energy          =   -1155.7717374172136715 [Eh]
	-----------------------------------------------------------

  Dipole Moment: [D]
     X:    -5.4564      Y:     0.0199      Z:     2.1312     Total:     5.8579

*** Psi4 exiting successfully. Buy a developer a beer!
