                               Psi4 1.4a3.dev225

  ==> Input File <==

--------------------------------------------------------------------------
#psi4
#
memory 32 gb

molecule  {
0 1
  S        1.2150416    -0.0548405    -0.8452162
  F        1.5874080    -1.0933110     1.5061340
  F        3.3145200    -0.0009050     0.7339870
  F        1.5874370     1.0896860     1.5087600
  O        1.6149610    -1.2856280    -1.4517330
  O        1.6149580     1.2891350    -1.4486230
  C       -0.4817510     0.0005820    -0.4824320
  C       -1.1416100    -1.2204050    -0.3274150
  C       -1.1416150     1.2211910    -0.3244870
  C       -3.1954030    -0.0001810     0.1494170
  C        1.9826530    -0.0010090     0.8356960
  C       -2.4997500    -1.2060900    -0.0161970
  C       -2.4997550     1.2061250    -0.0133040
  C       -4.6532730    -0.0006360     0.5253300
  H       -0.6057720    -2.1536140    -0.4772800
  H       -0.6057800     2.1547590    -0.4721140
  H       -3.0298860    -2.1498930     0.0955450
  H       -3.0298940     2.1496560     0.1007020
  H       -5.1606490     0.8856040     0.1349280
  H       -5.1606620    -0.8858980     0.1327310
  H       -4.7748820    -0.0019860     1.6139510
units angstrom
no_reorient  #important for SAPT in psi4, default
symmetry c1  #important for SAPT in psi4, default
}

set PROPERTIES_ORIGIN ["COM"]
properties('MP2/aug-cc-pvtz', properties = ['dipole'])
--------------------------------------------------------------------------

    Molecular point group: c1
  Charge       = 0
  Multiplicity = 1
  Basis Set: AUG-CC-PVTZ
    Blend: AUG-CC-PVTZ
  Basis Set: (AUG-CC-PVTZ AUX)
    Blend: AUG-CC-PVTZ-JKFIT

    Orbital Energies [Eh]
    ---------------------

    Doubly Occupied:

       1A    -92.214128     2A    -26.370887     3A    -26.370557
       4A    -26.368556     5A    -20.580967     6A    -20.559191
       7A    -11.549839     8A    -11.294028     9A    -11.290804
      10A    -11.288055    11A    -11.287762    12A    -11.267260
      13A    -11.267185    14A    -11.254388    15A     -9.183556
      16A     -6.868294    17A     -6.867790    18A     -6.867149
      19A     -1.756278    20A     -1.664860    21A     -1.663432
      22A     -1.467999    23A     -1.337054    24A     -1.201643
      25A     -1.106032    26A     -1.056301    27A     -1.039441
      28A     -0.984698    29A     -0.918165    30A     -0.872887
      31A     -0.857948    32A     -0.849967    33A     -0.846327
      34A     -0.798243    35A     -0.742045    36A     -0.736417
      37A     -0.726157    38A     -0.695257    39A     -0.692769
      40A     -0.686390    41A     -0.677480    42A     -0.673745
      43A     -0.665770    44A     -0.641905    45A     -0.639485
      46A     -0.627554    47A     -0.606961    48A     -0.571815
      49A     -0.547867    50A     -0.535902    51A     -0.528744
      52A     -0.517575    53A     -0.511447    54A     -0.484514
      55A     -0.465672    56A     -0.377440    57A     -0.374544

  @DF-RHF Final Energy: -1152.82270540860804

   => Energetics <=

    Nuclear Repulsion Energy =           1103.1348133847866393
    One-Electron Energy =               -3782.1167843072698815
    Two-Electron Energy =                1526.1592655138749706
    Total Energy =                      -1152.8227054086080443
  Basis Set: (AUG-CC-PVTZ AUX)
    Blend: AUG-CC-PVTZ-RI
    Molecular point group: c1

    Geometry (in Angstrom), charge = 0, multiplicity = 1:

       Center              X                  Y                   Z               Mass
    ------------   -----------------  -----------------  -----------------  -----------------
         S            1.091438122138    -0.046850782379    -0.859077441399    31.972071174400
         F            1.463804522138    -1.085321282379     1.492272758601    18.998403162730
         F            3.190916522138     0.007084717621     0.720125758601    18.998403162730
         F            1.463833522138     1.097675717621     1.494898758601    18.998403162730
         O            1.491357522138    -1.277638282379    -1.465594241399    15.994914619570
         O            1.491354522138     1.297124717621    -1.462484241399    15.994914619570
         C           -0.605354477862     0.008571717621    -0.496293241399    12.000000000000
         C           -1.265213477862    -1.212415282379    -0.341276241399    12.000000000000
         C           -1.265218477862     1.229180717621    -0.338348241399    12.000000000000
         C           -3.319006477862     0.007808717621     0.135555758601    12.000000000000
         C            1.859049522138     0.006980717621     0.821834758601    12.000000000000
         C           -2.623353477862    -1.198100282379    -0.030058241399    12.000000000000
         C           -2.623358477862     1.214114717621    -0.027165241399    12.000000000000
         C           -4.776876477862     0.007353717621     0.511468758601    12.000000000000
         H           -0.729375477862    -2.145624282379    -0.491141241399     1.007825032230
         H           -0.729383477862     2.162748717621    -0.485975241399     1.007825032230
         H           -3.153489477862    -2.141903282379     0.081683758601     1.007825032230
         H           -3.153497477862     2.157645717621     0.086840758601     1.007825032230
         H           -5.284252477862     0.893593717621     0.121066758601     1.007825032230
         H           -5.284265477862    -0.877908282379     0.118869758601     1.007825032230
         H           -4.898485477862     0.006003717621     1.600089758601     1.007825032230

  Basis Set: AUG-CC-PVTZ
    Blend: AUG-CC-PVTZ
  Basis Set: (AUG-CC-PVTZ AUX)
    Blend: AUG-CC-PVTZ-JKFIT
	 Reference Energy          =   -1152.8227054086080443 [Eh]
	 Singles Energy            =      -0.0000000000000000 [Eh]
	 Same-Spin Energy          =      -0.7700481858834298 [Eh]
	 Opposite-Spin Energy      =      -2.2433487130139458 [Eh]
	 Correlation Energy        =      -3.0133968988973754 [Eh]
	 Total Energy              =   -1155.8361023075053708 [Eh]

	 ================> DF-SCS-MP2 Energies <==================
	-----------------------------------------------------------
	 SCS Same-Spin Scale       =       0.3333333333333333 [-]
	 SCS Opposite-Spin Scale   =       1.2000000000000000 [-]
	 SCS Same-Spin Energy      =      -0.2566827286278099 [Eh]
	 SCS Opposite-Spin Energy  =      -2.6920184556167350 [Eh]
	 SCS Correlation Energy    =      -2.9487011842445447 [Eh]
	 SCS Total Energy          =   -1155.7714065928525997 [Eh]
	-----------------------------------------------------------

  Dipole Moment: [D]
     X:    -5.7865      Y:    -0.4425      Z:     2.2859     Total:     6.2374

*** Psi4 exiting successfully. Buy a developer a beer!
