                               Psi4 1.4a3.dev225

  ==> Input File <==

--------------------------------------------------------------------------
#psi4
#
memory 32 gb

molecule  {
0 1
  S        1.2441830     0.0010390    -0.8590750
  F        1.5874080    -1.0933110     1.5061340
  F        3.3145200    -0.0009050     0.7339870
  F        1.5874370     1.0896860     1.5087600
  O        1.6149610    -1.2856280    -1.4517330
  O        1.6149580     1.2891350    -1.4486230
  C       -0.4817510     0.0005820    -0.4824320
  C       -1.1416100    -1.2204050    -0.3274150
  C       -1.1416150     1.2211910    -0.3244870
  C       -3.1954030    -0.0001810     0.1494170
  C        1.9826530    -0.0010090     0.8356960
  C       -2.4997500    -1.2060900    -0.0161970
  C       -2.4997550     1.2061250    -0.0133040
  C       -4.6532730    -0.0006360     0.5253300
  H       -0.6057720    -2.1536140    -0.4772800
  H       -0.6057800     2.1547590    -0.4721140
  H       -3.0055288    -2.1065298     0.0904110
  H       -3.0298940     2.1496560     0.1007020
  H       -5.1606490     0.8856040     0.1349280
  H       -5.1606620    -0.8858980     0.1327310
  H       -4.7748820    -0.0019860     1.6139510
units angstrom
no_reorient  #important for SAPT in psi4, default
symmetry c1  #important for SAPT in psi4, default
}

set PROPERTIES_ORIGIN ["COM"]
properties('MP2/aug-cc-pvtz', properties = ['dipole'])
--------------------------------------------------------------------------

    Molecular point group: c1
  Charge       = 0
  Multiplicity = 1
  Basis Set: AUG-CC-PVTZ
    Blend: AUG-CC-PVTZ
  Basis Set: (AUG-CC-PVTZ AUX)
    Blend: AUG-CC-PVTZ-JKFIT

    Orbital Energies [Eh]
    ---------------------

    Doubly Occupied:

       1A    -92.215932     2A    -26.371333     3A    -26.371309
       4A    -26.368739     5A    -20.573787     6A    -20.573757
       7A    -11.549927     8A    -11.292725     9A    -11.287136
      10A    -11.284476    11A    -11.284219    12A    -11.264773
      13A    -11.259295    14A    -11.252493    15A     -9.184633
      16A     -6.869492    17A     -6.868764    18A     -6.868476
      19A     -1.756733    20A     -1.665051    21A     -1.664190
      22A     -1.465631    23A     -1.358205    24A     -1.198066
      25A     -1.100830    26A     -1.054797    27A     -1.038923
      28A     -0.981085    29A     -0.917199    30A     -0.872258
      31A     -0.856728    32A     -0.850420    33A     -0.845003
      34A     -0.798633    35A     -0.743296    36A     -0.736513
      37A     -0.726264    38A     -0.695359    39A     -0.693155
      40A     -0.683689    41A     -0.677926    42A     -0.672963
      43A     -0.666592    44A     -0.646965    45A     -0.642199
      46A     -0.626720    47A     -0.605013    48A     -0.571262
      49A     -0.545623    50A     -0.532479    51A     -0.527634
      52A     -0.522735    53A     -0.514625    54A     -0.496953
      55A     -0.467949    56A     -0.373760    57A     -0.372111

  @DF-RHF Final Energy: -1152.82982732850951

   => Energetics <=

    Nuclear Repulsion Energy =           1102.8855793961201925
    One-Electron Energy =               -3781.6172110332772718
    Two-Electron Energy =                1525.9018043086475700
    Total Energy =                      -1152.8298273285095092
  Basis Set: (AUG-CC-PVTZ AUX)
    Blend: AUG-CC-PVTZ-RI
    Molecular point group: c1

    Geometry (in Angstrom), charge = 0, multiplicity = 1:

       Center              X                  Y                   Z               Mass
    ------------   -----------------  -----------------  -----------------  -----------------
         S            1.116310736532     0.000858232075    -0.870935147959    31.972071174400
         F            1.459535736532    -1.093491767925     1.494273852041    18.998403162730
         F            3.186647736532    -0.001085767925     0.722126852041    18.998403162730
         F            1.459564736532     1.089505232075     1.496899852041    18.998403162730
         O            1.487088736532    -1.285808767925    -1.463593147959    15.994914619570
         O            1.487085736532     1.288954232075    -1.460483147959    15.994914619570
         C           -0.609623263468     0.000401232075    -0.494292147959    12.000000000000
         C           -1.269482263468    -1.220585767925    -0.339275147959    12.000000000000
         C           -1.269487263468     1.221010232075    -0.336347147959    12.000000000000
         C           -3.323275263468    -0.000361767925     0.137556852041    12.000000000000
         C            1.854780736532    -0.001189767925     0.823835852041    12.000000000000
         C           -2.627622263468    -1.206270767925    -0.028057147959    12.000000000000
         C           -2.627627263468     1.205944232075    -0.025164147959    12.000000000000
         C           -4.781145263468    -0.000816767925     0.513469852041    12.000000000000
         H           -0.733644263468    -2.153794767925    -0.489140147959     1.007825032230
         H           -0.733652263468     2.154578232075    -0.483974147959     1.007825032230
         H           -3.133401063468    -2.106710567925     0.078550852041     1.007825032230
         H           -3.157766263468     2.149475232075     0.088841852041     1.007825032230
         H           -5.288521263468     0.885423232075     0.123067852041     1.007825032230
         H           -5.288534263468    -0.886078767925     0.120870852041     1.007825032230
         H           -4.902754263468    -0.002166767925     1.602090852041     1.007825032230

  Basis Set: AUG-CC-PVTZ
    Blend: AUG-CC-PVTZ
  Basis Set: (AUG-CC-PVTZ AUX)
    Blend: AUG-CC-PVTZ-JKFIT
	 Reference Energy          =   -1152.8298273285095092 [Eh]
	 Singles Energy            =      -0.0000000000000000 [Eh]
	 Same-Spin Energy          =      -0.7695721924913363 [Eh]
	 Opposite-Spin Energy      =      -2.2423497004423103 [Eh]
	 Correlation Energy        =      -3.0119218929336466 [Eh]
	 Total Energy              =   -1155.8417492214432514 [Eh]

	 ================> DF-SCS-MP2 Energies <==================
	-----------------------------------------------------------
	 SCS Same-Spin Scale       =       0.3333333333333333 [-]
	 SCS Opposite-Spin Scale   =       1.2000000000000000 [-]
	 SCS Same-Spin Energy      =      -0.2565240641637788 [Eh]
	 SCS Opposite-Spin Energy  =      -2.6908196405307723 [Eh]
	 SCS Correlation Energy    =      -2.9473437046945512 [Eh]
	 SCS Total Energy          =   -1155.7771710332040129 [Eh]
	-----------------------------------------------------------

  Dipole Moment: [D]
     X:    -5.4327      Y:    -0.0106      Z:     2.1368     Total:     5.8378

*** Psi4 exiting successfully. Buy a developer a beer!
