                               Psi4 1.4a3.dev225

  ==> Input File <==

--------------------------------------------------------------------------
#psi4
#
memory 32 gb

molecule  {
0 1
  S        1.2441830     0.0010390    -0.8590750
  F        1.5874080    -1.0933110     1.5061340
  F        3.3145200    -0.0009050     0.7339870
  F        1.5874370     1.0896860     1.5087600
  O        1.6149610    -1.2856280    -1.4517330
  O        1.6149580     1.2891350    -1.4486230
  C       -0.4817510     0.0005820    -0.4824320
  C       -1.1416100    -1.2204050    -0.3274150
  C       -1.1416150     1.2211910    -0.3244870
  C       -3.1954030    -0.0001810     0.1494170
  C        1.9826530    -0.0010090     0.8356960
  C       -2.4997500    -1.2060900    -0.0161970
  C       -2.4997550     1.2061250    -0.0133040
  C       -4.6532730    -0.0006360     0.5253300
  H       -0.6057720    -2.1536140    -0.4772800
  H       -0.6057800     2.1547590    -0.4721140
  H       -3.0298860    -2.1498930     0.0955450
  H       -3.0298940     2.1496560     0.1007020
  H       -5.1606490     0.8856040     0.1349280
  H       -5.1606620    -0.8858980     0.1327310
  H       -4.7859839    -0.0021092     1.7133328
units angstrom
no_reorient  #important for SAPT in psi4, default
symmetry c1  #important for SAPT in psi4, default
}

set PROPERTIES_ORIGIN ["COM"]
properties('MP2/aug-cc-pvtz', properties = ['dipole'])
--------------------------------------------------------------------------

    Molecular point group: c1
  Charge       = 0
  Multiplicity = 1
  Basis Set: AUG-CC-PVTZ
    Blend: AUG-CC-PVTZ
  Basis Set: (AUG-CC-PVTZ AUX)
    Blend: AUG-CC-PVTZ-JKFIT

    Orbital Energies [Eh]
    ---------------------

    Doubly Occupied:

       1A    -92.216285     2A    -26.371526     3A    -26.371504
       4A    -26.368940     5A    -20.574089     6A    -20.574070
       7A    -11.550170     8A    -11.293330     9A    -11.288223
      10A    -11.284875    11A    -11.284774    12A    -11.265545
      13A    -11.265507    14A    -11.263789    15A     -9.184981
      16A     -6.869841    17A     -6.869114    18A     -6.868824
      19A     -1.756928    20A     -1.665241    21A     -1.664384
      22A     -1.465937    23A     -1.358503    24A     -1.198241
      25A     -1.100004    26A     -1.053918    27A     -1.038462
      28A     -0.977029    29A     -0.915577    30A     -0.870056
      31A     -0.856214    32A     -0.850612    33A     -0.844546
      34A     -0.796931    35A     -0.743011    36A     -0.736698
      37A     -0.725568    38A     -0.695574    39A     -0.693242
      40A     -0.684253    41A     -0.678119    42A     -0.671284
      43A     -0.666487    44A     -0.647306    45A     -0.638331
      46A     -0.625483    47A     -0.589809    48A     -0.571156
      49A     -0.545834    50A     -0.528262    51A     -0.526740
      52A     -0.522871    53A     -0.514685    54A     -0.497251
      55A     -0.468205    56A     -0.373138    57A     -0.372551

  @DF-RHF Final Energy: -1152.82407161844822

   => Energetics <=

    Nuclear Repulsion Energy =           1102.1716754565550218
    One-Electron Energy =               -3780.2038383621797948
    Two-Electron Energy =                1525.2080912871765577
    Total Energy =                      -1152.8240716184482153
  Basis Set: (AUG-CC-PVTZ AUX)
    Blend: AUG-CC-PVTZ-RI
    Molecular point group: c1

    Geometry (in Angstrom), charge = 0, multiplicity = 1:

       Center              X                  Y                   Z               Mass
    ------------   -----------------  -----------------  -----------------  -----------------
         S            1.116470266320     0.001053876527    -0.871405362472    31.972071174400
         F            1.459695266320    -1.093296123473     1.493803637528    18.998403162730
         F            3.186807266320    -0.000890123473     0.721656637528    18.998403162730
         F            1.459724266320     1.089700876527     1.496429637528    18.998403162730
         O            1.487248266320    -1.285613123473    -1.464063362472    15.994914619570
         O            1.487245266320     1.289149876527    -1.460953362472    15.994914619570
         C           -0.609463733680     0.000596876527    -0.494762362472    12.000000000000
         C           -1.269322733680    -1.220390123473    -0.339745362472    12.000000000000
         C           -1.269327733680     1.221205876527    -0.336817362472    12.000000000000
         C           -3.323115733680    -0.000166123473     0.137086637528    12.000000000000
         C            1.854940266320    -0.000994123473     0.823365637528    12.000000000000
         C           -2.627462733680    -1.206075123473    -0.028527362472    12.000000000000
         C           -2.627467733680     1.206139876527    -0.025634362472    12.000000000000
         C           -4.780985733680    -0.000621123473     0.512999637528    12.000000000000
         H           -0.733484733680    -2.153599123473    -0.489610362472     1.007825032230
         H           -0.733492733680     2.154773876527    -0.484444362472     1.007825032230
         H           -3.157598733680    -2.149878123473     0.083214637528     1.007825032230
         H           -3.157606733680     2.149670876527     0.088371637528     1.007825032230
         H           -5.288361733680     0.885618876527     0.122597637528     1.007825032230
         H           -5.288374733680    -0.885883123473     0.120400637528     1.007825032230
         H           -4.913696633680    -0.002094323473     1.701002437528     1.007825032230

  Basis Set: AUG-CC-PVTZ
    Blend: AUG-CC-PVTZ
  Basis Set: (AUG-CC-PVTZ AUX)
    Blend: AUG-CC-PVTZ-JKFIT
	 Reference Energy          =   -1152.8240716184482153 [Eh]
	 Singles Energy            =      -0.0000000000000000 [Eh]
	 Same-Spin Energy          =      -0.7697020378563563 [Eh]
	 Opposite-Spin Energy      =      -2.2433907389069652 [Eh]
	 Correlation Energy        =      -3.0130927767633215 [Eh]
	 Total Energy              =   -1155.8371643952116301 [Eh]

	 ================> DF-SCS-MP2 Energies <==================
	-----------------------------------------------------------
	 SCS Same-Spin Scale       =       0.3333333333333333 [-]
	 SCS Opposite-Spin Scale   =       1.2000000000000000 [-]
	 SCS Same-Spin Energy      =      -0.2565673459521187 [Eh]
	 SCS Opposite-Spin Energy  =      -2.6920688866883582 [Eh]
	 SCS Correlation Energy    =      -2.9486362326404771 [Eh]
	 SCS Total Energy          =   -1155.7727078510886258 [Eh]
	-----------------------------------------------------------

  Dipole Moment: [D]
     X:    -5.3925      Y:    -0.0025      Z:     2.0970     Total:     5.7859

*** Psi4 exiting successfully. Buy a developer a beer!
