                               Psi4 1.4a3.dev225

  ==> Input File <==

--------------------------------------------------------------------------
#psi4
#
memory 32 gb

molecule  {
0 1
  S        1.2441830     0.0010390    -0.8590750
  F        1.5874080    -1.0933110     1.5061340
  F        3.3145200    -0.0009050     0.7339870
  F        1.5874370     1.0896860     1.5087600
  O        1.6149610    -1.2856280    -1.4517330
  O        1.6149580     1.2891350    -1.4486230
  C       -0.4817510     0.0005820    -0.4824320
  C       -1.1416100    -1.2204050    -0.3274150
  C       -1.1416150     1.2211910    -0.3244870
  C       -3.1954030    -0.0001810     0.1494170
  C        1.9826530    -0.0010090     0.8356960
  C       -2.4997500    -1.2060900    -0.0161970
  C       -2.4997550     1.2061250    -0.0133040
  C       -4.6532730    -0.0006360     0.5253300
  H       -0.6057720    -2.1536140    -0.4772800
  H       -0.6057800     2.1547590    -0.4721140
  H       -3.0298860    -2.1498930     0.0955450
  H       -3.0298940     2.1496560     0.1007020
  H       -5.1699307     0.9018165     0.1277862
  H       -5.1606620    -0.8858980     0.1327310
  H       -4.7748820    -0.0019860     1.6139510
units angstrom
no_reorient  #important for SAPT in psi4, default
symmetry c1  #important for SAPT in psi4, default
}

set PROPERTIES_ORIGIN ["COM"]
properties('MP2/aug-cc-pvtz', properties = ['dipole'])
--------------------------------------------------------------------------

    Molecular point group: c1
  Charge       = 0
  Multiplicity = 1
  Basis Set: AUG-CC-PVTZ
    Blend: AUG-CC-PVTZ
  Basis Set: (AUG-CC-PVTZ AUX)
    Blend: AUG-CC-PVTZ-JKFIT

    Orbital Energies [Eh]
    ---------------------

    Doubly Occupied:

       1A    -92.216133     2A    -26.371441     3A    -26.371419
       4A    -26.368852     5A    -20.573945     6A    -20.573926
       7A    -11.550064     8A    -11.293055     9A    -11.287700
      10A    -11.284702    11A    -11.284586    12A    -11.265238
      13A    -11.265119    14A    -11.254781    15A     -9.184829
      16A     -6.869689    17A     -6.868961    18A     -6.868672
      19A     -1.756842    20A     -1.665158    21A     -1.664299
      22A     -1.465793    23A     -1.358362    24A     -1.198055
      25A     -1.100520    26A     -1.053670    27A     -1.038884
      28A     -0.979974    29A     -0.916825    30A     -0.869755
      31A     -0.856689    32A     -0.850528    33A     -0.844928
      34A     -0.796848    35A     -0.742996    36A     -0.736609
      37A     -0.725693    38A     -0.695451    39A     -0.693207
      40A     -0.683667    41A     -0.678030    42A     -0.671236
      43A     -0.666421    44A     -0.646977    45A     -0.638705
      46A     -0.625229    47A     -0.604346    48A     -0.567639
      49A     -0.545583    50A     -0.532583    51A     -0.526028
      52A     -0.522722    53A     -0.514683    54A     -0.497098
      55A     -0.468038    56A     -0.373998    57A     -0.372344

  @DF-RHF Final Energy: -1152.83000888872084

   => Energetics <=

    Nuclear Repulsion Energy =           1102.5022224282604384
    One-Electron Energy =               -3780.8654160535807023
    Two-Electron Energy =                1525.5331847365996509
    Total Energy =                      -1152.8300088887208403
  Basis Set: (AUG-CC-PVTZ AUX)
    Blend: AUG-CC-PVTZ-RI
    Molecular point group: c1

    Geometry (in Angstrom), charge = 0, multiplicity = 1:

       Center              X                  Y                   Z               Mass
    ------------   -----------------  -----------------  -----------------  -----------------
         S            1.116462077276     0.000980382536    -0.870926114907    31.972071174400
         F            1.459687077276    -1.093369617464     1.494282885093    18.998403162730
         F            3.186799077276    -0.000963617464     0.722135885093    18.998403162730
         F            1.459716077276     1.089627382536     1.496908885093    18.998403162730
         O            1.487240077276    -1.285686617464    -1.463584114907    15.994914619570
         O            1.487237077276     1.289076382536    -1.460474114907    15.994914619570
         C           -0.609471922724     0.000523382536    -0.494283114907    12.000000000000
         C           -1.269330922724    -1.220463617464    -0.339266114907    12.000000000000
         C           -1.269335922724     1.221132382536    -0.336338114907    12.000000000000
         C           -3.323123922724    -0.000239617464     0.137565885093    12.000000000000
         C            1.854932077276    -0.001067617464     0.823844885093    12.000000000000
         C           -2.627470922724    -1.206148617464    -0.028048114907    12.000000000000
         C           -2.627475922724     1.206066382536    -0.025155114907    12.000000000000
         C           -4.780993922724    -0.000694617464     0.513478885093    12.000000000000
         H           -0.733492922724    -2.153672617464    -0.489131114907     1.007825032230
         H           -0.733500922724     2.154700382536    -0.483965114907     1.007825032230
         H           -3.157606922724    -2.149951617464     0.083693885093     1.007825032230
         H           -3.157614922724     2.149597382536     0.088850885093     1.007825032230
         H           -5.297651622724     0.901757882536     0.115935085093     1.007825032230
         H           -5.288382922724    -0.885956617464     0.120879885093     1.007825032230
         H           -4.902602922724    -0.002044617464     1.602099885093     1.007825032230

  Basis Set: AUG-CC-PVTZ
    Blend: AUG-CC-PVTZ
  Basis Set: (AUG-CC-PVTZ AUX)
    Blend: AUG-CC-PVTZ-JKFIT
	 Reference Energy          =   -1152.8300088887208403 [Eh]
	 Singles Energy            =      -0.0000000000000000 [Eh]
	 Same-Spin Energy          =      -0.7696887043815532 [Eh]
	 Opposite-Spin Energy      =      -2.2428207621585070 [Eh]
	 Correlation Energy        =      -3.0125094665400605 [Eh]
	 Total Energy              =   -1155.8425183552608360 [Eh]

	 ================> DF-SCS-MP2 Energies <==================
	-----------------------------------------------------------
	 SCS Same-Spin Scale       =       0.3333333333333333 [-]
	 SCS Opposite-Spin Scale   =       1.2000000000000000 [-]
	 SCS Same-Spin Energy      =      -0.2565629014605177 [Eh]
	 SCS Opposite-Spin Energy  =      -2.6913849145902082 [Eh]
	 SCS Correlation Energy    =      -2.9479478160507258 [Eh]
	 SCS Total Energy          =   -1155.7779567047716682 [Eh]
	-----------------------------------------------------------

  Dipole Moment: [D]
     X:    -5.4140      Y:    -0.0081      Z:     2.1363     Total:     5.8202

*** Psi4 exiting successfully. Buy a developer a beer!
