                               Psi4 1.4a3.dev225

  ==> Input File <==

--------------------------------------------------------------------------
#psi4
#
memory 32 gb

molecule  {
0 1
  S        1.2439859    -0.0297905    -0.8587537
  F        1.5874080    -1.0933110     1.5061340
  F        3.3145200    -0.0009050     0.7339870
  F        1.5874370     1.0896860     1.5087600
  O        1.6149610    -1.2856280    -1.4517330
  O        1.6149580     1.2891350    -1.4486230
  C       -0.4817510     0.0005820    -0.4824320
  C       -1.1416100    -1.2204050    -0.3274150
  C       -1.1416150     1.2211910    -0.3244870
  C       -3.1954030    -0.0001810     0.1494170
  C        1.9826530    -0.0010090     0.8356960
  C       -2.4997500    -1.2060900    -0.0161970
  C       -2.4997550     1.2061250    -0.0133040
  C       -4.6532730    -0.0006360     0.5253300
  H       -0.6057720    -2.1536140    -0.4772800
  H       -0.6057800     2.1547590    -0.4721140
  H       -3.0298860    -2.1498930     0.0955450
  H       -3.0298940     2.1496560     0.1007020
  H       -5.1606490     0.8856040     0.1349280
  H       -5.1606620    -0.8858980     0.1327310
  H       -4.7748820    -0.0019860     1.6139510
units angstrom
no_reorient  #important for SAPT in psi4, default
symmetry c1  #important for SAPT in psi4, default
}

set PROPERTIES_ORIGIN ["COM"]
properties('MP2/aug-cc-pvtz', properties = ['dipole'])
--------------------------------------------------------------------------

    Molecular point group: c1
  Charge       = 0
  Multiplicity = 1
  Basis Set: AUG-CC-PVTZ
    Blend: AUG-CC-PVTZ
  Basis Set: (AUG-CC-PVTZ AUX)
    Blend: AUG-CC-PVTZ-JKFIT

    Orbital Energies [Eh]
    ---------------------

    Doubly Occupied:

       1A    -92.215748     2A    -26.371489     3A    -26.371314
       4A    -26.368828     5A    -20.579858     6A    -20.567782
       7A    -11.550050     8A    -11.293028     9A    -11.287542
      10A    -11.284692    11A    -11.284512    12A    -11.265130
      13A    -11.265083    14A    -11.252425    15A     -9.184623
      16A     -6.869456    17A     -6.868814    18A     -6.868399
      19A     -1.756823    20A     -1.665189    21A     -1.664223
      22A     -1.469811    23A     -1.354605    24A     -1.198010
      25A     -1.100716    26A     -1.053623    27A     -1.039031
      28A     -0.980882    29A     -0.917198    30A     -0.869771
      31A     -0.856874    32A     -0.850498    33A     -0.845015
      34A     -0.796915    35A     -0.743181    36A     -0.736591
      37A     -0.725950    38A     -0.695476    39A     -0.693204
      40A     -0.683963    41A     -0.678013    42A     -0.671595
      43A     -0.667253    44A     -0.647138    45A     -0.639089
      46A     -0.625195    47A     -0.604978    48A     -0.569967
      49A     -0.546250    50A     -0.533058    51A     -0.526374
      52A     -0.522607    53A     -0.514744    54A     -0.494979
      55A     -0.467092    56A     -0.374005    57A     -0.372260

  @DF-RHF Final Energy: -1152.82887423240322

   => Energetics <=

    Nuclear Repulsion Energy =           1102.6143162101691360
    One-Electron Energy =               -3781.0845419804286394
    Two-Electron Energy =                1525.6413515378560533
    Total Energy =                      -1152.8288742324032228
  Basis Set: (AUG-CC-PVTZ AUX)
    Blend: AUG-CC-PVTZ-RI
    Molecular point group: c1

    Geometry (in Angstrom), charge = 0, multiplicity = 1:

       Center              X                  Y                   Z               Mass
    ------------   -----------------  -----------------  -----------------  -----------------
         S            1.116251350167    -0.025376040819    -0.870682803230    31.972071174400
         F            1.459673450167    -1.088896540819     1.494204896770    18.998403162730
         F            3.186785450167     0.003509459181     0.722057896770    18.998403162730
         F            1.459702450167     1.094100459181     1.496830896770    18.998403162730
         O            1.487226450167    -1.281213540819    -1.463662103230    15.994914619570
         O            1.487223450167     1.293549459181    -1.460552103230    15.994914619570
         C           -0.609485549833     0.004996459181    -0.494361103230    12.000000000000
         C           -1.269344549833    -1.215990540819    -0.339344103230    12.000000000000
         C           -1.269349549833     1.225605459181    -0.336416103230    12.000000000000
         C           -3.323137549833     0.004233459181     0.137487896770    12.000000000000
         C            1.854918450167     0.003405459181     0.823766896770    12.000000000000
         C           -2.627484549833    -1.201675540819    -0.028126103230    12.000000000000
         C           -2.627489549833     1.210539459181    -0.025233103230    12.000000000000
         C           -4.781007549833     0.003778459181     0.513400896770    12.000000000000
         H           -0.733506549833    -2.149199540819    -0.489209103230     1.007825032230
         H           -0.733514549833     2.159173459181    -0.484043103230     1.007825032230
         H           -3.157620549833    -2.145478540819     0.083615896770     1.007825032230
         H           -3.157628549833     2.154070459181     0.088772896770     1.007825032230
         H           -5.288383549833     0.890018459181     0.122998896770     1.007825032230
         H           -5.288396549833    -0.881483540819     0.120801896770     1.007825032230
         H           -4.902616549833     0.002428459181     1.602021896770     1.007825032230

  Basis Set: AUG-CC-PVTZ
    Blend: AUG-CC-PVTZ
  Basis Set: (AUG-CC-PVTZ AUX)
    Blend: AUG-CC-PVTZ-JKFIT
	 Reference Energy          =   -1152.8288742324032228 [Eh]
	 Singles Energy            =      -0.0000000000000000 [Eh]
	 Same-Spin Energy          =      -0.7696447887207889 [Eh]
	 Opposite-Spin Energy      =      -2.2426492101428392 [Eh]
	 Correlation Energy        =      -3.0122939988636279 [Eh]
	 Total Energy              =   -1155.8411682312669200 [Eh]

	 ================> DF-SCS-MP2 Energies <==================
	-----------------------------------------------------------
	 SCS Same-Spin Scale       =       0.3333333333333333 [-]
	 SCS Opposite-Spin Scale   =       1.2000000000000000 [-]
	 SCS Same-Spin Energy      =      -0.2565482629069296 [Eh]
	 SCS Opposite-Spin Energy  =      -2.6911790521714072 [Eh]
	 SCS Correlation Energy    =      -2.9477273150783367 [Eh]
	 SCS Total Energy          =   -1155.7766015474815049 [Eh]
	-----------------------------------------------------------

  Dipole Moment: [D]
     X:    -5.4259      Y:    -0.2438      Z:     2.1397     Total:     5.8376

*** Psi4 exiting successfully. Buy a developer a beer!
