                               Psi4 1.4a3.dev225

  ==> Input File <==

--------------------------------------------------------------------------
#psi4
#
memory 32 gb

molecule  {
0 1
  S        1.2441830     0.0010390    -0.8590750
  F        1.5874080    -1.0933110     1.5061340
  F        3.3145200    -0.0009050     0.7339870
  F        1.5874370     1.0896860     1.5087600
  O        1.6149610    -1.2856280    -1.4517330
  O        1.6149580     1.2891350    -1.4486230
  C       -0.4817510     0.0005820    -0.4824320
  C       -1.1416100    -1.2204050    -0.3274150
  C       -1.1416150     1.2211910    -0.3244870
  C       -3.1954030    -0.0001810     0.1494170
  C        1.9826530    -0.0010090     0.8356960
  C       -2.4997500    -1.2060900    -0.0161970
  C       -2.4510208     1.2066656    -0.0244702
  C       -4.6532730    -0.0006360     0.5253300
  H       -0.6057720    -2.1536140    -0.4772800
  H       -0.6057800     2.1547590    -0.4721140
  H       -3.0298860    -2.1498930     0.0955450
  H       -3.0298940     2.1496560     0.1007020
  H       -5.1606490     0.8856040     0.1349280
  H       -5.1606620    -0.8858980     0.1327310
  H       -4.7748820    -0.0019860     1.6139510
units angstrom
no_reorient  #important for SAPT in psi4, default
symmetry c1  #important for SAPT in psi4, default
}

set PROPERTIES_ORIGIN ["COM"]
properties('MP2/aug-cc-pvtz', properties = ['dipole'])
--------------------------------------------------------------------------

    Molecular point group: c1
  Charge       = 0
  Multiplicity = 1
  Basis Set: AUG-CC-PVTZ
    Blend: AUG-CC-PVTZ
  Basis Set: (AUG-CC-PVTZ AUX)
    Blend: AUG-CC-PVTZ-JKFIT

    Orbital Energies [Eh]
    ---------------------

    Doubly Occupied:

       1A    -92.215482     2A    -26.371104     3A    -26.371011
       4A    -26.368419     5A    -20.573427     6A    -20.573245
       7A    -11.549551     8A    -11.292033     9A    -11.291383
      10A    -11.285635    11A    -11.276937    12A    -11.264631
      13A    -11.264099    14A    -11.254550    15A     -9.184160
      16A     -6.869020    17A     -6.868291    18A     -6.868010
      19A     -1.756451    20A     -1.664791    21A     -1.663898
      22A     -1.465191    23A     -1.357783    24A     -1.200282
      25A     -1.098426    26A     -1.059563    27A     -1.038967
      28A     -0.982336    29A     -0.916562    30A     -0.865073
      31A     -0.857195    32A     -0.850147    33A     -0.845483
      34A     -0.797127    35A     -0.742796    36A     -0.736267
      37A     -0.725913    38A     -0.695344    39A     -0.692949
      40A     -0.685478    41A     -0.677675    42A     -0.669978
      43A     -0.665687    44A     -0.647123    45A     -0.635168
      46A     -0.625922    47A     -0.605793    48A     -0.571706
      49A     -0.549918    50A     -0.535189    51A     -0.522789
      52A     -0.517033    53A     -0.514605    54A     -0.496592
      55A     -0.467979    56A     -0.378580    57A     -0.370070

  @DF-RHF Final Energy: -1152.82749230714307

   => Energetics <=

    Nuclear Repulsion Energy =           1103.2819987552334169
    One-Electron Energy =               -3782.4373482450737356
    Two-Electron Energy =                1526.3278571826972438
    Total Energy =                      -1152.8274923071430749
  Basis Set: (AUG-CC-PVTZ AUX)
    Blend: AUG-CC-PVTZ-RI
    Molecular point group: c1

    Geometry (in Angstrom), charge = 0, multiplicity = 1:

       Center              X                  Y                   Z               Mass
    ------------   -----------------  -----------------  -----------------  -----------------
         S            1.113809696893     0.001024363075    -0.870360088175    31.972071174400
         F            1.457034696893    -1.093325636925     1.494848911825    18.998403162730
         F            3.184146696893    -0.000919636925     0.722701911825    18.998403162730
         F            1.457063696893     1.089671363075     1.497474911825    18.998403162730
         O            1.484587696893    -1.285642636925    -1.463018088175    15.994914619570
         O            1.484584696893     1.289120363075    -1.459908088175    15.994914619570
         C           -0.612124303107     0.000567363075    -0.493717088175    12.000000000000
         C           -1.271983303107    -1.220419636925    -0.338700088175    12.000000000000
         C           -1.271988303107     1.221176363075    -0.335772088175    12.000000000000
         C           -3.325776303107    -0.000195636925     0.138131911825    12.000000000000
         C            1.852279696893    -0.001023636925     0.824410911825    12.000000000000
         C           -2.630123303107    -1.206104636925    -0.027482088175    12.000000000000
         C           -2.581394103107     1.206650963075    -0.035755288175    12.000000000000
         C           -4.783646303107    -0.000650636925     0.514044911825    12.000000000000
         H           -0.736145303107    -2.153628636925    -0.488565088175     1.007825032230
         H           -0.736153303107     2.154744363075    -0.483399088175     1.007825032230
         H           -3.160259303107    -2.149907636925     0.084259911825     1.007825032230
         H           -3.160267303107     2.149641363075     0.089416911825     1.007825032230
         H           -5.291022303107     0.885589363075     0.123642911825     1.007825032230
         H           -5.291035303107    -0.885912636925     0.121445911825     1.007825032230
         H           -4.905255303107    -0.002000636925     1.602665911825     1.007825032230

  Basis Set: AUG-CC-PVTZ
    Blend: AUG-CC-PVTZ
  Basis Set: (AUG-CC-PVTZ AUX)
    Blend: AUG-CC-PVTZ-JKFIT
	 Reference Energy          =   -1152.8274923071430749 [Eh]
	 Singles Energy            =      -0.0000000000000000 [Eh]
	 Same-Spin Energy          =      -0.7696497108054299 [Eh]
	 Opposite-Spin Energy      =      -2.2426332221823353 [Eh]
	 Correlation Energy        =      -3.0122829329877652 [Eh]
	 Total Energy              =   -1155.8397752401308480 [Eh]

	 ================> DF-SCS-MP2 Energies <==================
	-----------------------------------------------------------
	 SCS Same-Spin Scale       =       0.3333333333333333 [-]
	 SCS Opposite-Spin Scale   =       1.2000000000000000 [-]
	 SCS Same-Spin Energy      =      -0.2565499036018100 [Eh]
	 SCS Opposite-Spin Energy  =      -2.6911598666188024 [Eh]
	 SCS Correlation Energy    =      -2.9477097702206123 [Eh]
	 SCS Total Energy          =   -1155.7752020773637014 [Eh]
	-----------------------------------------------------------

  Dipole Moment: [D]
     X:    -5.4606      Y:    -0.0338      Z:     2.1440     Total:     5.8665

*** Psi4 exiting successfully. Buy a developer a beer!
