                               Psi4 1.4a3.dev225

  ==> Input File <==

--------------------------------------------------------------------------
#psi4
#
memory 32 gb

molecule  {
0 1
  S        1.2441830     0.0010390    -0.8590750
  F        1.5874080    -1.0933110     1.5061340
  F        3.3145200    -0.0009050     0.7339870
  F        1.5874370     1.0896860     1.5087600
  O        1.6149610    -1.2856280    -1.4517330
  O        1.6149580     1.2891350    -1.4486230
  C       -0.4938443     0.0006551    -0.5428956
  C       -1.1416100    -1.2204050    -0.3274150
  C       -1.1416150     1.2211910    -0.3244870
  C       -3.1954030    -0.0001810     0.1494170
  C        1.9826530    -0.0010090     0.8356960
  C       -2.4997500    -1.2060900    -0.0161970
  C       -2.4997550     1.2061250    -0.0133040
  C       -4.6532730    -0.0006360     0.5253300
  H       -0.6057720    -2.1536140    -0.4772800
  H       -0.6057800     2.1547590    -0.4721140
  H       -3.0298860    -2.1498930     0.0955450
  H       -3.0298940     2.1496560     0.1007020
  H       -5.1606490     0.8856040     0.1349280
  H       -5.1606620    -0.8858980     0.1327310
  H       -4.7748820    -0.0019860     1.6139510
units angstrom
no_reorient  #important for SAPT in psi4, default
symmetry c1  #important for SAPT in psi4, default
}

set PROPERTIES_ORIGIN ["COM"]
properties('MP2/aug-cc-pvtz', properties = ['dipole'])
--------------------------------------------------------------------------

    Molecular point group: c1
  Charge       = 0
  Multiplicity = 1
  Basis Set: AUG-CC-PVTZ
    Blend: AUG-CC-PVTZ
  Basis Set: (AUG-CC-PVTZ AUX)
    Blend: AUG-CC-PVTZ-JKFIT

    Orbital Energies [Eh]
    ---------------------

    Doubly Occupied:

       1A    -92.215517     2A    -26.372273     3A    -26.372252
       4A    -26.370224     5A    -20.572293     6A    -20.572274
       7A    -11.551963     8A    -11.293303     9A    -11.288012
      10A    -11.284978    11A    -11.284878    12A    -11.265252
      13A    -11.265213    14A    -11.252674    15A     -9.184231
      16A     -6.869039    17A     -6.868416    18A     -6.868053
      19A     -1.757787    20A     -1.665955    21A     -1.665346
      22A     -1.464848    23A     -1.357220    24A     -1.197644
      25A     -1.100148    26A     -1.053503    27A     -1.039265
      28A     -0.981247    29A     -0.917292    30A     -0.869364
      31A     -0.857708    32A     -0.851446    33A     -0.846284
      34A     -0.796710    35A     -0.743117    36A     -0.737390
      37A     -0.725837    38A     -0.696130    39A     -0.694114
      40A     -0.683684    41A     -0.678926    42A     -0.672072
      43A     -0.665671    44A     -0.646310    45A     -0.638538
      46A     -0.624893    47A     -0.605113    48A     -0.570052
      49A     -0.545448    50A     -0.532537    51A     -0.526323
      52A     -0.521628    53A     -0.513117    54A     -0.495697
      55A     -0.467658    56A     -0.374110    57A     -0.372332

  @DF-RHF Final Energy: -1152.82940289403859

   => Energetics <=

    Nuclear Repulsion Energy =           1102.1694522768566458
    One-Electron Energy =               -3780.1910971299507764
    Two-Electron Energy =                1525.1922419590555364
    Total Energy =                      -1152.8294028940385942
  Basis Set: (AUG-CC-PVTZ AUX)
    Blend: AUG-CC-PVTZ-RI
    Molecular point group: c1

    Geometry (in Angstrom), charge = 0, multiplicity = 1:

       Center              X                  Y                   Z               Mass
    ------------   -----------------  -----------------  -----------------  -----------------
         S            1.117068140076     0.001049406389    -0.867719296149    31.972071174400
         F            1.460293140076    -1.093300593611     1.497489703851    18.998403162730
         F            3.187405140076    -0.000894593611     0.725342703851    18.998403162730
         F            1.460322140076     1.089696406389     1.500115703851    18.998403162730
         O            1.487846140076    -1.285617593611    -1.460377296149    15.994914619570
         O            1.487843140076     1.289145406389    -1.457267296149    15.994914619570
         C           -0.620959159924     0.000665506389    -0.551539896149    12.000000000000
         C           -1.268724859924    -1.220394593611    -0.336059296149    12.000000000000
         C           -1.268729859924     1.221201406389    -0.333131296149    12.000000000000
         C           -3.322517859924    -0.000170593611     0.140772703851    12.000000000000
         C            1.855538140076    -0.000998593611     0.827051703851    12.000000000000
         C           -2.626864859924    -1.206079593611    -0.024841296149    12.000000000000
         C           -2.626869859924     1.206135406389    -0.021948296149    12.000000000000
         C           -4.780387859924    -0.000625593611     0.516685703851    12.000000000000
         H           -0.732886859924    -2.153603593611    -0.485924296149     1.007825032230
         H           -0.732894859924     2.154769406389    -0.480758296149     1.007825032230
         H           -3.157000859924    -2.149882593611     0.086900703851     1.007825032230
         H           -3.157008859924     2.149666406389     0.092057703851     1.007825032230
         H           -5.287763859924     0.885614406389     0.126283703851     1.007825032230
         H           -5.287776859924    -0.885887593611     0.124086703851     1.007825032230
         H           -4.901996859924    -0.001975593611     1.605306703851     1.007825032230

  Basis Set: AUG-CC-PVTZ
    Blend: AUG-CC-PVTZ
  Basis Set: (AUG-CC-PVTZ AUX)
    Blend: AUG-CC-PVTZ-JKFIT
	 Reference Energy          =   -1152.8294028940385942 [Eh]
	 Singles Energy            =      -0.0000000000000000 [Eh]
	 Same-Spin Energy          =      -0.7696079704226992 [Eh]
	 Opposite-Spin Energy      =      -2.2426263572772775 [Eh]
	 Correlation Energy        =      -3.0122343276999768 [Eh]
	 Total Energy              =   -1155.8416372217386652 [Eh]

	 ================> DF-SCS-MP2 Energies <==================
	-----------------------------------------------------------
	 SCS Same-Spin Scale       =       0.3333333333333333 [-]
	 SCS Opposite-Spin Scale   =       1.2000000000000000 [-]
	 SCS Same-Spin Energy      =      -0.2565359901408997 [Eh]
	 SCS Opposite-Spin Energy  =      -2.6911516287327331 [Eh]
	 SCS Correlation Energy    =      -2.9476876188736330 [Eh]
	 SCS Total Energy          =   -1155.7770905129123094 [Eh]
	-----------------------------------------------------------

  Dipole Moment: [D]
     X:    -5.4451      Y:    -0.0027      Z:     2.1956     Total:     5.8710

*** Psi4 exiting successfully. Buy a developer a beer!
