                               Psi4 1.4a3.dev225

  ==> Input File <==

--------------------------------------------------------------------------
#psi4
#
memory 32 gb

molecule  {
0 1
  S        1.3368580     0.1683904    -0.8882076
  F        1.5874080    -1.0933110     1.5061340
  F        3.3145200    -0.0009050     0.7339870
  F        1.5874370     1.0896860     1.5087600
  O        1.6149610    -1.2856280    -1.4517330
  O        1.6149580     1.2891350    -1.4486230
  C       -0.4817510     0.0005820    -0.4824320
  C       -1.1416100    -1.2204050    -0.3274150
  C       -1.1416150     1.2211910    -0.3244870
  C       -3.1954030    -0.0001810     0.1494170
  C        1.9826530    -0.0010090     0.8356960
  C       -2.4997500    -1.2060900    -0.0161970
  C       -2.4997550     1.2061250    -0.0133040
  C       -4.6532730    -0.0006360     0.5253300
  H       -0.6057720    -2.1536140    -0.4772800
  H       -0.6057800     2.1547590    -0.4721140
  H       -3.0298860    -2.1498930     0.0955450
  H       -3.0298940     2.1496560     0.1007020
  H       -5.1606490     0.8856040     0.1349280
  H       -5.1606620    -0.8858980     0.1327310
  H       -4.7748820    -0.0019860     1.6139510
units angstrom
no_reorient  #important for SAPT in psi4, default
symmetry c1  #important for SAPT in psi4, default
}

set PROPERTIES_ORIGIN ["COM"]
properties('MP2/aug-cc-pvtz', properties = ['dipole'])
--------------------------------------------------------------------------

    Molecular point group: c1
  Charge       = 0
  Multiplicity = 1
  Basis Set: AUG-CC-PVTZ
    Blend: AUG-CC-PVTZ
  Basis Set: (AUG-CC-PVTZ AUX)
    Blend: AUG-CC-PVTZ-JKFIT

    Orbital Energies [Eh]
    ---------------------

    Doubly Occupied:

       1A    -92.206980     2A    -26.374520     3A    -26.373443
       4A    -26.370059     5A    -20.614323     6A    -20.551621
       7A    -11.552191     8A    -11.288535     9A    -11.277152
      10A    -11.274358    11A    -11.273497    12A    -11.258331
      13A    -11.258268    14A    -11.246166    15A     -9.182280
      16A     -6.868274    17A     -6.865759    18A     -6.864644
      19A     -1.759316    20A     -1.668146    21A     -1.666033
      22A     -1.578098    23A     -1.318567    24A     -1.186577
      25A     -1.085086    26A     -1.045035    27A     -1.039095
      28A     -0.968492    29A     -0.916404    30A     -0.861719
      31A     -0.856679    32A     -0.852607    33A     -0.837847
      34A     -0.798288    35A     -0.757422    36A     -0.738483
      37A     -0.732663    38A     -0.706683    39A     -0.698387
      40A     -0.694007    41A     -0.690883    42A     -0.680396
      43A     -0.673456    44A     -0.662513    45A     -0.644441
      46A     -0.617053    47A     -0.598644    48A     -0.563629
      49A     -0.554909    50A     -0.538621    51A     -0.519868
      52A     -0.519484    53A     -0.508402    54A     -0.478822
      55A     -0.444591    56A     -0.365355    57A     -0.361877

  @DF-RHF Final Energy: -1152.76069976952226

   => Energetics <=

    Nuclear Repulsion Energy =           1101.7789741727435739
    One-Electron Energy =               -3779.3013891878918002
    Two-Electron Energy =                1524.7617152456257372
    Total Energy =                      -1152.7606997695222617
  Basis Set: (AUG-CC-PVTZ AUX)
    Blend: AUG-CC-PVTZ-RI
    Molecular point group: c1

    Geometry (in Angstrom), charge = 0, multiplicity = 1:

       Center              X                  Y                   Z               Mass
    ------------   -----------------  -----------------  -----------------  -----------------
         S            1.195868290113     0.144519512461    -0.895932898657    31.972071174400
         F            1.446418290113    -1.117181887539     1.498408701343    18.998403162730
         F            3.173530290113    -0.024775887539     0.726261701343    18.998403162730
         F            1.446447290113     1.065815112461     1.501034701343    18.998403162730
         O            1.473971290113    -1.309498887539    -1.459458298657    15.994914619570
         O            1.473968290113     1.265264112461    -1.456348298657    15.994914619570
         C           -0.622740709887    -0.023288887539    -0.490157298657    12.000000000000
         C           -1.282599709887    -1.244275887539    -0.335140298657    12.000000000000
         C           -1.282604709887     1.197320112461    -0.332212298657    12.000000000000
         C           -3.336392709887    -0.024051887539     0.141691701343    12.000000000000
         C            1.841663290113    -0.024879887539     0.827970701343    12.000000000000
         C           -2.640739709887    -1.229960887539    -0.023922298657    12.000000000000
         C           -2.640744709887     1.182254112461    -0.021029298657    12.000000000000
         C           -4.794262709887    -0.024506887539     0.517604701343    12.000000000000
         H           -0.746761709887    -2.177484887539    -0.485005298657     1.007825032230
         H           -0.746769709887     2.130888112461    -0.479839298657     1.007825032230
         H           -3.170875709887    -2.173763887539     0.087819701343     1.007825032230
         H           -3.170883709887     2.125785112461     0.092976701343     1.007825032230
         H           -5.301638709887     0.861733112461     0.127202701343     1.007825032230
         H           -5.301651709887    -0.909768887539     0.125005701343     1.007825032230
         H           -4.915871709887    -0.025856887539     1.606225701343     1.007825032230

  Basis Set: AUG-CC-PVTZ
    Blend: AUG-CC-PVTZ
  Basis Set: (AUG-CC-PVTZ AUX)
    Blend: AUG-CC-PVTZ-JKFIT
	 Reference Energy          =   -1152.7606997695222617 [Eh]
	 Singles Energy            =      -0.0000000000000000 [Eh]
	 Same-Spin Energy          =      -0.7675936241337801 [Eh]
	 Opposite-Spin Energy      =      -2.2403209562732389 [Eh]
	 Correlation Energy        =      -3.0079145804070189 [Eh]
	 Total Energy              =   -1155.7686143499292939 [Eh]

	 ================> DF-SCS-MP2 Energies <==================
	-----------------------------------------------------------
	 SCS Same-Spin Scale       =       0.3333333333333333 [-]
	 SCS Opposite-Spin Scale   =       1.2000000000000000 [-]
	 SCS Same-Spin Energy      =      -0.2558645413779267 [Eh]
	 SCS Opposite-Spin Energy  =      -2.6883851475278866 [Eh]
	 SCS Correlation Energy    =      -2.9442496889058134 [Eh]
	 SCS Total Energy          =   -1155.7049494584280183 [Eh]
	-----------------------------------------------------------

  Dipole Moment: [D]
     X:    -4.3279      Y:     1.2966      Z:     1.8477     Total:     4.8811

*** Psi4 exiting successfully. Buy a developer a beer!
