                               Psi4 1.4a3.dev225

  ==> Input File <==

--------------------------------------------------------------------------
#psi4
#
memory 32 gb

molecule  {
0 1
  S        1.2441830     0.0010390    -0.8590750
  F        1.5874080    -1.0933110     1.5061340
  F        3.3145200    -0.0009050     0.7339870
  F        1.5874370     1.0896860     1.5087600
  O        1.6149610    -1.2856280    -1.4517330
  O        1.6149580     1.2891350    -1.4486230
  C       -0.4817510     0.0005820    -0.4824320
  C       -1.1416100    -1.2204050    -0.3274150
  C       -1.1416150     1.2211910    -0.3244870
  C       -3.1954030    -0.0001810     0.1494170
  C        1.9826530    -0.0010090     0.8356960
  C       -2.4005121    -1.3781181    -0.0398226
  C       -2.4997550     1.2061250    -0.0133040
  C       -4.6532730    -0.0006360     0.5253300
  H       -0.6057720    -2.1536140    -0.4772800
  H       -0.6057800     2.1547590    -0.4721140
  H       -3.0298860    -2.1498930     0.0955450
  H       -3.0298940     2.1496560     0.1007020
  H       -5.1606490     0.8856040     0.1349280
  H       -5.1606620    -0.8858980     0.1327310
  H       -4.7748820    -0.0019860     1.6139510
units angstrom
no_reorient  #important for SAPT in psi4, default
symmetry c1  #important for SAPT in psi4, default
}

set PROPERTIES_ORIGIN ["COM"]
properties('MP2/aug-cc-pvtz', properties = ['dipole'])
--------------------------------------------------------------------------

    Molecular point group: c1
  Charge       = 0
  Multiplicity = 1
  Basis Set: AUG-CC-PVTZ
    Blend: AUG-CC-PVTZ
  Basis Set: (AUG-CC-PVTZ AUX)
    Blend: AUG-CC-PVTZ-JKFIT

    Orbital Energies [Eh]
    ---------------------

    Doubly Occupied:

       1A    -92.214587     2A    -26.369903     3A    -26.369779
       4A    -26.367076     5A    -20.572180     6A    -20.571412
       7A    -11.548029     8A    -11.306570     9A    -11.292897
      10A    -11.289241    11A    -11.269154    12A    -11.265680
      13A    -11.262571    14A    -11.256096    15A     -9.182998
      16A     -6.867869    17A     -6.867164    18A     -6.866888
      19A     -1.755194    20A     -1.663579    21A     -1.662634
      22A     -1.463576    23A     -1.356220    24A     -1.191743
      25A     -1.089965    26A     -1.068807    27A     -1.037313
      28A     -0.982507    29A     -0.912890    30A     -0.869276
      31A     -0.851603    32A     -0.848921    33A     -0.839547
      34A     -0.798863    35A     -0.742634    36A     -0.735181
      37A     -0.726350    38A     -0.697957    39A     -0.692104
      40A     -0.690760    41A     -0.676518    42A     -0.668547
      43A     -0.664762    44A     -0.648984    45A     -0.640299
      46A     -0.629360    47A     -0.604212    48A     -0.580194
      49A     -0.551461    50A     -0.533046    51A     -0.521205
      52A     -0.514587    53A     -0.496683    54A     -0.485282
      55A     -0.467711    56A     -0.390511    57A     -0.356113

  @DF-RHF Final Energy: -1152.79108232223030

   => Energetics <=

    Nuclear Repulsion Energy =           1101.1783366545903391
    One-Electron Energy =               -3778.2444506461310993
    Two-Electron Energy =                1524.2750316693106925
    Total Energy =                      -1152.7910823222302952
  Basis Set: (AUG-CC-PVTZ AUX)
    Blend: AUG-CC-PVTZ-RI
    Molecular point group: c1

    Geometry (in Angstrom), charge = 0, multiplicity = 1:

       Center              X                  Y                   Z               Mass
    ------------   -----------------  -----------------  -----------------  -----------------
         S            1.111104285082     0.010268624373    -0.869692655731    31.972071174400
         F            1.454329285082    -1.084081375627     1.495516344269    18.998403162730
         F            3.181441285082     0.008324624373     0.723369344269    18.998403162730
         F            1.454358285082     1.098915624373     1.498142344269    18.998403162730
         O            1.481882285082    -1.276398375627    -1.462350655731    15.994914619570
         O            1.481879285082     1.298364624373    -1.459240655731    15.994914619570
         C           -0.614829714918     0.009811624373    -0.493049655731    12.000000000000
         C           -1.274688714918    -1.211175375627    -0.338032655731    12.000000000000
         C           -1.274693714918     1.230420624373    -0.335104655731    12.000000000000
         C           -3.328481714918     0.009048624373     0.138799344269    12.000000000000
         C            1.849574285082     0.008220624373     0.825078344269    12.000000000000
         C           -2.533590814918    -1.368888475627    -0.050440255731    12.000000000000
         C           -2.632833714918     1.215354624373    -0.023921655731    12.000000000000
         C           -4.786351714918     0.008593624373     0.514712344269    12.000000000000
         H           -0.738850714918    -2.144384375627    -0.487897655731     1.007825032230
         H           -0.738858714918     2.163988624373    -0.482731655731     1.007825032230
         H           -3.162964714918    -2.140663375627     0.084927344269     1.007825032230
         H           -3.162972714918     2.158885624373     0.090084344269     1.007825032230
         H           -5.293727714918     0.894833624373     0.124310344269     1.007825032230
         H           -5.293740714918    -0.876668375627     0.122113344269     1.007825032230
         H           -4.907960714918     0.007243624373     1.603333344269     1.007825032230

  Basis Set: AUG-CC-PVTZ
    Blend: AUG-CC-PVTZ
  Basis Set: (AUG-CC-PVTZ AUX)
    Blend: AUG-CC-PVTZ-JKFIT
	 Reference Energy          =   -1152.7910823222302952 [Eh]
	 Singles Energy            =      -0.0000000000000000 [Eh]
	 Same-Spin Energy          =      -0.7685490087871231 [Eh]
	 Opposite-Spin Energy      =      -2.2437358974201218 [Eh]
	 Correlation Energy        =      -3.0122849062072450 [Eh]
	 Total Energy              =   -1155.8033672284375371 [Eh]

	 ================> DF-SCS-MP2 Energies <==================
	-----------------------------------------------------------
	 SCS Same-Spin Scale       =       0.3333333333333333 [-]
	 SCS Opposite-Spin Scale   =       1.2000000000000000 [-]
	 SCS Same-Spin Energy      =      -0.2561830029290410 [Eh]
	 SCS Opposite-Spin Energy  =      -2.6924830769041459 [Eh]
	 SCS Correlation Energy    =      -2.9486660798331870 [Eh]
	 SCS Total Energy          =   -1155.7397484020634693 [Eh]
	-----------------------------------------------------------

  Dipole Moment: [D]
     X:    -5.5294      Y:     0.0072      Z:     2.1621     Total:     5.9371

*** Psi4 exiting successfully. Buy a developer a beer!
