                               Psi4 1.4a3.dev225

  ==> Input File <==

--------------------------------------------------------------------------
#psi4
#
memory 32 gb

molecule  {
0 1
  S        1.2441830     0.0010390    -0.8590750
  F        1.5874080    -1.0933110     1.5061340
  F        3.3145200    -0.0009050     0.7339870
  F        1.5874370     1.0896860     1.5087600
  O        1.6149610    -1.2856280    -1.4517330
  O        1.6149580     1.2891350    -1.4486230
  C       -0.4817510     0.0005820    -0.4824320
  C       -1.1416100    -1.2204050    -0.3274150
  C       -1.1416150     1.2211910    -0.3244870
  C       -3.1954030    -0.0001810     0.1494170
  C        1.9826530    -0.0010090     0.8356960
  C       -2.4997500    -1.2060900    -0.0161970
  C       -2.4997550     1.2061250    -0.0133040
  C       -4.6532730    -0.0006360     0.5253300
  H       -0.6057720    -2.1536140    -0.4772800
  H       -0.6057800     2.1547590    -0.4721140
  H       -3.0298860    -2.1498930     0.0955450
  H       -3.1273233     2.3230588     0.1216541
  H       -5.1606490     0.8856040     0.1349280
  H       -5.1606620    -0.8858980     0.1327310
  H       -4.7748820    -0.0019860     1.6139510
units angstrom
no_reorient  #important for SAPT in psi4, default
symmetry c1  #important for SAPT in psi4, default
}

set PROPERTIES_ORIGIN ["COM"]
properties('MP2/aug-cc-pvtz', properties = ['dipole'])
--------------------------------------------------------------------------

    Molecular point group: c1
  Charge       = 0
  Multiplicity = 1
  Basis Set: AUG-CC-PVTZ
    Blend: AUG-CC-PVTZ
  Basis Set: (AUG-CC-PVTZ AUX)
    Blend: AUG-CC-PVTZ-JKFIT

    Orbital Energies [Eh]
    ---------------------

    Doubly Occupied:

       1A    -92.216983     2A    -26.371898     3A    -26.371834
       4A    -26.369306     5A    -20.574687     6A    -20.574569
       7A    -11.550620     8A    -11.294446     9A    -11.289855
      10A    -11.287027    11A    -11.285667    12A    -11.285528
      13A    -11.266764    14A    -11.252213    15A     -9.185657
      16A     -6.870518    17A     -6.869797    18A     -6.869498
      19A     -1.757282    20A     -1.665587    21A     -1.664734
      22A     -1.466479    23A     -1.359024    24A     -1.198725
      25A     -1.100994    26A     -1.051270    27A     -1.039614
      28A     -0.980639    29A     -0.917543    30A     -0.864310
      31A     -0.857359    32A     -0.850958    33A     -0.845350
      34A     -0.792072    35A     -0.742500    36A     -0.737018
      37A     -0.724523    38A     -0.695931    39A     -0.693567
      40A     -0.684886    41A     -0.678462    42A     -0.669504
      43A     -0.665706    44A     -0.647775    45A     -0.633630
      46A     -0.611153    47A     -0.604745    48A     -0.563771
      49A     -0.546075    50A     -0.533652    51A     -0.524018
      52A     -0.517498    53A     -0.511516    54A     -0.497763
      55A     -0.468095    56A     -0.375250    57A     -0.373553

  @DF-RHF Final Energy: -1152.80826023321220

   => Energetics <=

    Nuclear Repulsion Energy =           1101.5502382324002610
    One-Electron Energy =               -3778.9182009935743736
    Two-Electron Energy =                1524.5597025279619174
    Total Energy =                      -1152.8082602332121951
  Basis Set: (AUG-CC-PVTZ AUX)
    Blend: AUG-CC-PVTZ-RI
    Molecular point group: c1

    Geometry (in Angstrom), charge = 0, multiplicity = 1:

       Center              X                  Y                   Z               Mass
    ------------   -----------------  -----------------  -----------------  -----------------
         S            1.116858651582     0.000273186491    -0.871052508806    31.972071174400
         F            1.460083651582    -1.094076813509     1.494156491194    18.998403162730
         F            3.187195651582    -0.001670813509     0.722009491194    18.998403162730
         F            1.460112651582     1.088920186491     1.496782491194    18.998403162730
         O            1.487636651582    -1.286393813509    -1.463710508806    15.994914619570
         O            1.487633651582     1.288369186491    -1.460600508806    15.994914619570
         C           -0.609075348418    -0.000183813509    -0.494409508806    12.000000000000
         C           -1.268934348418    -1.221170813509    -0.339392508806    12.000000000000
         C           -1.268939348418     1.220425186491    -0.336464508806    12.000000000000
         C           -3.322727348418    -0.000946813509     0.137439491194    12.000000000000
         C            1.855328651582    -0.001774813509     0.823718491194    12.000000000000
         C           -2.627074348418    -1.206855813509    -0.028174508806    12.000000000000
         C           -2.627079348418     1.205359186491    -0.025281508806    12.000000000000
         C           -4.780597348418    -0.001401813509     0.513352491194    12.000000000000
         H           -0.733096348418    -2.154379813509    -0.489257508806     1.007825032230
         H           -0.733104348418     2.153993186491    -0.484091508806     1.007825032230
         H           -3.157210348418    -2.150658813509     0.083567491194     1.007825032230
         H           -3.254647648418     2.322292986491     0.109676591194     1.007825032230
         H           -5.287973348418     0.884838186491     0.122950491194     1.007825032230
         H           -5.287986348418    -0.886663813509     0.120753491194     1.007825032230
         H           -4.902206348418    -0.002751813509     1.601973491194     1.007825032230

  Basis Set: AUG-CC-PVTZ
    Blend: AUG-CC-PVTZ
  Basis Set: (AUG-CC-PVTZ AUX)
    Blend: AUG-CC-PVTZ-JKFIT
	 Reference Energy          =   -1152.8082602332121951 [Eh]
	 Singles Energy            =      -0.0000000000000000 [Eh]
	 Same-Spin Energy          =      -0.7702729821591853 [Eh]
	 Opposite-Spin Energy      =      -2.2449847422837119 [Eh]
	 Correlation Energy        =      -3.0152577244428973 [Eh]
	 Total Energy              =   -1155.8235179576549854 [Eh]

	 ================> DF-SCS-MP2 Energies <==================
	-----------------------------------------------------------
	 SCS Same-Spin Scale       =       0.3333333333333333 [-]
	 SCS Opposite-Spin Scale   =       1.2000000000000000 [-]
	 SCS Same-Spin Energy      =      -0.2567576607197284 [Eh]
	 SCS Opposite-Spin Energy  =      -2.6939816907404541 [Eh]
	 SCS Correlation Energy    =      -2.9507393514601827 [Eh]
	 SCS Total Energy          =   -1155.7589995846724378 [Eh]
	-----------------------------------------------------------

  Dipole Moment: [D]
     X:    -5.3601      Y:    -0.0641      Z:     2.1249     Total:     5.7663

*** Psi4 exiting successfully. Buy a developer a beer!
