                               Psi4 1.4a3.dev225

  ==> Input File <==

--------------------------------------------------------------------------
#psi4
#
memory 32 gb

molecule  {
0 1
  S        1.2441830     0.0010390    -0.8590750
  F        1.5874080    -1.0933110     1.5061340
  F        3.3145200    -0.0009050     0.7339870
  F        1.5874370     1.0896860     1.5087600
  O        1.6149610    -1.2856280    -1.4517330
  O        1.6149580     1.2891350    -1.4486230
  C       -0.4817510     0.0005820    -0.4824320
  C       -1.1416100    -1.2204050    -0.3274150
  C       -1.1416150     1.2211910    -0.3244870
  C       -3.1954030    -0.0001810     0.1494170
  C        1.9826530    -0.0010090     0.8356960
  C       -2.4201214    -1.1532817    -0.0373315
  C       -2.4997550     1.2061250    -0.0133040
  C       -4.6532730    -0.0006360     0.5253300
  H       -0.6057720    -2.1536140    -0.4772800
  H       -0.6057800     2.1547590    -0.4721140
  H       -3.0298860    -2.1498930     0.0955450
  H       -3.0298940     2.1496560     0.1007020
  H       -5.1606490     0.8856040     0.1349280
  H       -5.1606620    -0.8858980     0.1327310
  H       -4.7748820    -0.0019860     1.6139510
units angstrom
no_reorient  #important for SAPT in psi4, default
symmetry c1  #important for SAPT in psi4, default
}

set PROPERTIES_ORIGIN ["COM"]
properties('MP2/aug-cc-pvtz', properties = ['dipole'])
--------------------------------------------------------------------------

    Molecular point group: c1
  Charge       = 0
  Multiplicity = 1
  Basis Set: AUG-CC-PVTZ
    Blend: AUG-CC-PVTZ
  Basis Set: (AUG-CC-PVTZ AUX)
    Blend: AUG-CC-PVTZ-JKFIT

    Orbital Energies [Eh]
    ---------------------

    Doubly Occupied:

       1A    -92.215300     2A    -26.371355     3A    -26.371125
       4A    -26.368559     5A    -20.573742     6A    -20.573109
       7A    -11.549692     8A    -11.292346     9A    -11.289020
      10A    -11.284652    11A    -11.273216    12A    -11.265046
      13A    -11.263249    14A    -11.255942    15A     -9.184051
      16A     -6.868908    17A     -6.868170    18A     -6.867894
      19A     -1.756621    20A     -1.664982    21A     -1.664047
      22A     -1.465300    23A     -1.357892    24A     -1.206731
      25A     -1.100205    26A     -1.062879    27A     -1.039375
      28A     -0.983725    29A     -0.917956    30A     -0.863026
      31A     -0.859369    32A     -0.850319    33A     -0.846631
      34A     -0.796147    35A     -0.743049    36A     -0.736489
      37A     -0.726657    38A     -0.696088    39A     -0.693305
      40A     -0.688209    41A     -0.677856    42A     -0.669799
      43A     -0.665725    44A     -0.647873    45A     -0.632990
      46A     -0.620007    47A     -0.607335    48A     -0.570578
      49A     -0.555284    50A     -0.539163    51A     -0.522982
      52A     -0.516584    53A     -0.505564    54A     -0.496814
      55A     -0.467099    56A     -0.381796    57A     -0.371893

  @DF-RHF Final Energy: -1152.81784427039725

   => Energetics <=

    Nuclear Repulsion Energy =           1104.6641555078836063
    One-Electron Energy =               -3785.1565583182900809
    Two-Electron Energy =                1527.6745585400092295
    Total Energy =                      -1152.8178442703972451
  Basis Set: (AUG-CC-PVTZ AUX)
    Blend: AUG-CC-PVTZ-RI
    Molecular point group: c1

    Geometry (in Angstrom), charge = 0, multiplicity = 1:

       Center              X                  Y                   Z               Mass
    ------------   -----------------  -----------------  -----------------  -----------------
         S            1.112154727561    -0.001775543723    -0.869826100436    31.972071174400
         F            1.455379727561    -1.096125543723     1.495382899564    18.998403162730
         F            3.182491727561    -0.003719543723     0.723235899564    18.998403162730
         F            1.455408727561     1.086871456277     1.498008899564    18.998403162730
         O            1.482932727561    -1.288442543723    -1.462484100436    15.994914619570
         O            1.482929727561     1.286320456277    -1.459374100436    15.994914619570
         C           -0.613779272439    -0.002232543723    -0.493183100436    12.000000000000
         C           -1.273638272439    -1.223219543723    -0.338166100436    12.000000000000
         C           -1.273643272439     1.218376456277    -0.335238100436    12.000000000000
         C           -3.327431272439    -0.002995543723     0.138665899564    12.000000000000
         C            1.850624727561    -0.003823543723     0.824944899564    12.000000000000
         C           -2.552149672439    -1.156096243723    -0.048082600436    12.000000000000
         C           -2.631783272439     1.203310456277    -0.024055100436    12.000000000000
         C           -4.785301272439    -0.003450543723     0.514578899564    12.000000000000
         H           -0.737800272439    -2.156428543723    -0.488031100436     1.007825032230
         H           -0.737808272439     2.151944456277    -0.482865100436     1.007825032230
         H           -3.161914272439    -2.152707543723     0.084793899564     1.007825032230
         H           -3.161922272439     2.146841456277     0.089950899564     1.007825032230
         H           -5.292677272439     0.882789456277     0.124176899564     1.007825032230
         H           -5.292690272439    -0.888712543723     0.121979899564     1.007825032230
         H           -4.906910272439    -0.004800543723     1.603199899564     1.007825032230

  Basis Set: AUG-CC-PVTZ
    Blend: AUG-CC-PVTZ
  Basis Set: (AUG-CC-PVTZ AUX)
    Blend: AUG-CC-PVTZ-JKFIT
	 Reference Energy          =   -1152.8178442703972451 [Eh]
	 Singles Energy            =      -0.0000000000000000 [Eh]
	 Same-Spin Energy          =      -0.7700983929688235 [Eh]
	 Opposite-Spin Energy      =      -2.2432066127486410 [Eh]
	 Correlation Energy        =      -3.0133050057174646 [Eh]
	 Total Energy              =   -1155.8311492761147292 [Eh]

	 ================> DF-SCS-MP2 Energies <==================
	-----------------------------------------------------------
	 SCS Same-Spin Scale       =       0.3333333333333333 [-]
	 SCS Opposite-Spin Scale   =       1.2000000000000000 [-]
	 SCS Same-Spin Energy      =      -0.2566994643229412 [Eh]
	 SCS Opposite-Spin Energy  =      -2.6918479352983691 [Eh]
	 SCS Correlation Energy    =      -2.9485473996213103 [Eh]
	 SCS Total Energy          =   -1155.7663916700184927 [Eh]
	-----------------------------------------------------------

  Dipole Moment: [D]
     X:    -5.4500      Y:     0.0881      Z:     2.1430     Total:     5.8568

*** Psi4 exiting successfully. Buy a developer a beer!
