                               Psi4 1.4a3.dev225

  ==> Input File <==

--------------------------------------------------------------------------
#psi4
#
memory 32 gb

molecule  {
0 1
  S        1.2441830     0.0010390    -0.8590750
  F        1.5874080    -1.0933110     1.5061340
  F        3.3145200    -0.0009050     0.7339870
  F        1.5874370     1.0896860     1.5087600
  O        1.6149610    -1.2856280    -1.4517330
  O        1.6149580     1.2891350    -1.4486230
  C       -0.4817510     0.0005820    -0.4824320
  C       -1.1416100    -1.2204050    -0.3274150
  C       -1.1419004     1.1725554    -0.3242864
  C       -3.1954030    -0.0001810     0.1494170
  C        1.9826530    -0.0010090     0.8356960
  C       -2.4997500    -1.2060900    -0.0161970
  C       -2.4997550     1.2061250    -0.0133040
  C       -4.6532730    -0.0006360     0.5253300
  H       -0.6057720    -2.1536140    -0.4772800
  H       -0.6057800     2.1547590    -0.4721140
  H       -3.0298860    -2.1498930     0.0955450
  H       -3.0298940     2.1496560     0.1007020
  H       -5.1606490     0.8856040     0.1349280
  H       -5.1606620    -0.8858980     0.1327310
  H       -4.7748820    -0.0019860     1.6139510
units angstrom
no_reorient  #important for SAPT in psi4, default
symmetry c1  #important for SAPT in psi4, default
}

set PROPERTIES_ORIGIN ["COM"]
properties('MP2/aug-cc-pvtz', properties = ['dipole'])
--------------------------------------------------------------------------

    Molecular point group: c1
  Charge       = 0
  Multiplicity = 1
  Basis Set: AUG-CC-PVTZ
    Blend: AUG-CC-PVTZ
  Basis Set: (AUG-CC-PVTZ AUX)
    Blend: AUG-CC-PVTZ-JKFIT

    Orbital Energies [Eh]
    ---------------------

    Doubly Occupied:

       1A    -92.217127     2A    -26.372004     3A    -26.371846
       4A    -26.369427     5A    -20.574949     6A    -20.574448
       7A    -11.550791     8A    -11.289252     9A    -11.286485
      10A    -11.283577    11A    -11.282419    12A    -11.264389
      13A    -11.264193    14A    -11.251813    15A     -9.185828
      16A     -6.870691    17A     -6.869971    18A     -6.869657
      19A     -1.757361    20A     -1.665641    21A     -1.664822
      22A     -1.466551    23A     -1.359023    24A     -1.202422
      25A     -1.103326    26A     -1.052120    27A     -1.039885
      28A     -0.981619    29A     -0.918415    30A     -0.870587
      31A     -0.856476    32A     -0.851020    33A     -0.844514
      34A     -0.797992    35A     -0.743689    36A     -0.737073
      37A     -0.726229    38A     -0.696013    39A     -0.693649
      40A     -0.686071    41A     -0.678541    42A     -0.668885
      43A     -0.663811    44A     -0.648022    45A     -0.641385
      46A     -0.619137    47A     -0.604784    48A     -0.570755
      49A     -0.544329    50A     -0.536164    51A     -0.523906
      52A     -0.523239    53A     -0.515031    54A     -0.497280
      55A     -0.468859    56A     -0.377469    57A     -0.370583

  @DF-RHF Final Energy: -1152.82781497611177

   => Energetics <=

    Nuclear Repulsion Energy =           1103.5678524043228208
    One-Electron Energy =               -3782.9602458792583093
    Two-Electron Energy =                1526.5645784988237210
    Total Energy =                      -1152.8278149761117675
  Basis Set: (AUG-CC-PVTZ AUX)
    Blend: AUG-CC-PVTZ-RI
    Molecular point group: c1

    Geometry (in Angstrom), charge = 0, multiplicity = 1:

       Center              X                  Y                   Z               Mass
    ------------   -----------------  -----------------  -----------------  -----------------
         S            1.116435607566     0.003658662588    -0.870968991582    31.972071174400
         F            1.459660607566    -1.090691337412     1.494240008418    18.998403162730
         F            3.186772607566     0.001714662588     0.722093008418    18.998403162730
         F            1.459689607566     1.092305662588     1.496866008418    18.998403162730
         O            1.487213607566    -1.283008337412    -1.463626991582    15.994914619570
         O            1.487210607566     1.291754662588    -1.460516991582    15.994914619570
         C           -0.609498392434     0.003201662588    -0.494325991582    12.000000000000
         C           -1.269357392434    -1.217785337412    -0.339308991582    12.000000000000
         C           -1.269647792434     1.175175062588    -0.336180391582    12.000000000000
         C           -3.323150392434     0.002438662588     0.137523008418    12.000000000000
         C            1.854905607566     0.001610662588     0.823802008418    12.000000000000
         C           -2.627497392434    -1.203470337412    -0.028090991582    12.000000000000
         C           -2.627502392434     1.208744662588    -0.025197991582    12.000000000000
         C           -4.781020392434     0.001983662588     0.513436008418    12.000000000000
         H           -0.733519392434    -2.150994337412    -0.489173991582     1.007825032230
         H           -0.733527392434     2.157378662588    -0.484007991582     1.007825032230
         H           -3.157633392434    -2.147273337412     0.083651008418     1.007825032230
         H           -3.157641392434     2.152275662588     0.088808008418     1.007825032230
         H           -5.288396392434     0.888223662588     0.123034008418     1.007825032230
         H           -5.288409392434    -0.883278337412     0.120837008418     1.007825032230
         H           -4.902629392434     0.000633662588     1.602057008418     1.007825032230

  Basis Set: AUG-CC-PVTZ
    Blend: AUG-CC-PVTZ
  Basis Set: (AUG-CC-PVTZ AUX)
    Blend: AUG-CC-PVTZ-JKFIT
	 Reference Energy          =   -1152.8278149761117675 [Eh]
	 Singles Energy            =      -0.0000000000000000 [Eh]
	 Same-Spin Energy          =      -0.7697432307867420 [Eh]
	 Opposite-Spin Energy      =      -2.2426215068912261 [Eh]
	 Correlation Energy        =      -3.0123647376779683 [Eh]
	 Total Energy              =   -1155.8401797137896665 [Eh]

	 ================> DF-SCS-MP2 Energies <==================
	-----------------------------------------------------------
	 SCS Same-Spin Scale       =       0.3333333333333333 [-]
	 SCS Opposite-Spin Scale   =       1.2000000000000000 [-]
	 SCS Same-Spin Energy      =      -0.2565810769289140 [Eh]
	 SCS Opposite-Spin Energy  =      -2.6911458082694710 [Eh]
	 SCS Correlation Energy    =      -2.9477268851983851 [Eh]
	 SCS Total Energy          =   -1155.7755418613101028 [Eh]
	-----------------------------------------------------------

  Dipole Moment: [D]
     X:    -5.3806      Y:     0.0037      Z:     2.1302     Total:     5.7869

*** Psi4 exiting successfully. Buy a developer a beer!
