                               Psi4 1.4a3.dev225

  ==> Input File <==

--------------------------------------------------------------------------
#psi4
#
memory 32 gb

molecule  {
0 1
  S        1.2441830     0.0010390    -0.8590750
  F        1.5874080    -1.0933110     1.5061340
  F        3.3145200    -0.0009050     0.7339870
  F        1.5874370     1.0896860     1.5087600
  O        1.6149610    -1.2856280    -1.4517330
  O        1.6149580     1.2891350    -1.4486230
  C       -0.5012911     0.0005768    -0.4781678
  C       -1.1416100    -1.2204050    -0.3274150
  C       -1.1416150     1.2211910    -0.3244870
  C       -3.1954030    -0.0001810     0.1494170
  C        1.9826530    -0.0010090     0.8356960
  C       -2.4997500    -1.2060900    -0.0161970
  C       -2.4997550     1.2061250    -0.0133040
  C       -4.6532730    -0.0006360     0.5253300
  H       -0.6057720    -2.1536140    -0.4772800
  H       -0.6057800     2.1547590    -0.4721140
  H       -3.0298860    -2.1498930     0.0955450
  H       -3.0298940     2.1496560     0.1007020
  H       -5.1606490     0.8856040     0.1349280
  H       -5.1606620    -0.8858980     0.1327310
  H       -4.7748820    -0.0019860     1.6139510
units angstrom
no_reorient  #important for SAPT in psi4, default
symmetry c1  #important for SAPT in psi4, default
}

set PROPERTIES_ORIGIN ["COM"]
properties('MP2/aug-cc-pvtz', properties = ['dipole'])
--------------------------------------------------------------------------

    Molecular point group: c1
  Charge       = 0
  Multiplicity = 1
  Basis Set: AUG-CC-PVTZ
    Blend: AUG-CC-PVTZ
  Basis Set: (AUG-CC-PVTZ AUX)
    Blend: AUG-CC-PVTZ-JKFIT

    Orbital Energies [Eh]
    ---------------------

    Doubly Occupied:

       1A    -92.215833     2A    -26.371646     3A    -26.371625
       4A    -26.369099     5A    -20.574205     6A    -20.574186
       7A    -11.550366     8A    -11.293507     9A    -11.286216
      10A    -11.282785    11A    -11.282695    12A    -11.265077
      13A    -11.265037    14A    -11.251836    15A     -9.184488
      16A     -6.869331    17A     -6.868559    18A     -6.868317
      19A     -1.757049    20A     -1.665354    21A     -1.664518
      22A     -1.465424    23A     -1.358406    24A     -1.199656
      25A     -1.099734    26A     -1.054625    27A     -1.038981
      28A     -0.979411    29A     -0.916988    30A     -0.870816
      31A     -0.856125    32A     -0.850730    33A     -0.844342
      34A     -0.797131    35A     -0.743165    36A     -0.736779
      37A     -0.725911    38A     -0.695600    39A     -0.693406
      40A     -0.684044    41A     -0.678235    42A     -0.670631
      43A     -0.666089    44A     -0.647339    45A     -0.638089
      46A     -0.627029    47A     -0.604572    48A     -0.569780
      49A     -0.545455    50A     -0.533871    51A     -0.527370
      52A     -0.523065    53A     -0.514118    54A     -0.497246
      55A     -0.465828    56A     -0.374008    57A     -0.372434

  @DF-RHF Final Energy: -1152.83024332111836

   => Energetics <=

    Nuclear Repulsion Energy =           1102.4075990896433268
    One-Electron Energy =               -3780.6793568807906922
    Two-Electron Energy =                1525.4415144700287783
    Total Energy =                      -1152.8302433211183597
  Basis Set: (AUG-CC-PVTZ AUX)
    Blend: AUG-CC-PVTZ-RI
    Molecular point group: c1

    Geometry (in Angstrom), charge = 0, multiplicity = 1:

       Center              X                  Y                   Z               Mass
    ------------   -----------------  -----------------  -----------------  -----------------
         S            1.117467054625     0.001053600809    -0.871186672889    31.972071174400
         F            1.460692054625    -1.093296399191     1.494022327111    18.998403162730
         F            3.187804054625    -0.000890399191     0.721875327111    18.998403162730
         F            1.460721054625     1.089700600809     1.496648327111    18.998403162730
         O            1.488245054625    -1.285613399191    -1.463844672889    15.994914619570
         O            1.488242054625     1.289149600809    -1.460734672889    15.994914619570
         C           -0.628007045375     0.000591400809    -0.490279472889    12.000000000000
         C           -1.268325945375    -1.220390399191    -0.339526672889    12.000000000000
         C           -1.268330945375     1.221205600809    -0.336598672889    12.000000000000
         C           -3.322118945375    -0.000166399191     0.137305327111    12.000000000000
         C            1.855937054625    -0.000994399191     0.823584327111    12.000000000000
         C           -2.626465945375    -1.206075399191    -0.028308672889    12.000000000000
         C           -2.626470945375     1.206139600809    -0.025415672889    12.000000000000
         C           -4.779988945375    -0.000621399191     0.513218327111    12.000000000000
         H           -0.732487945375    -2.153599399191    -0.489391672889     1.007825032230
         H           -0.732495945375     2.154773600809    -0.484225672889     1.007825032230
         H           -3.156601945375    -2.149878399191     0.083433327111     1.007825032230
         H           -3.156609945375     2.149670600809     0.088590327111     1.007825032230
         H           -5.287364945375     0.885618600809     0.122816327111     1.007825032230
         H           -5.287377945375    -0.885883399191     0.120619327111     1.007825032230
         H           -4.901597945375    -0.001971399191     1.601839327111     1.007825032230

  Basis Set: AUG-CC-PVTZ
    Blend: AUG-CC-PVTZ
  Basis Set: (AUG-CC-PVTZ AUX)
    Blend: AUG-CC-PVTZ-JKFIT
	 Reference Energy          =   -1152.8302433211183597 [Eh]
	 Singles Energy            =      -0.0000000000000000 [Eh]
	 Same-Spin Energy          =      -0.7697102498835093 [Eh]
	 Opposite-Spin Energy      =      -2.2427038371898682 [Eh]
	 Correlation Energy        =      -3.0124140870733775 [Eh]
	 Total Energy              =   -1155.8426574081918261 [Eh]

	 ================> DF-SCS-MP2 Energies <==================
	-----------------------------------------------------------
	 SCS Same-Spin Scale       =       0.3333333333333333 [-]
	 SCS Opposite-Spin Scale   =       1.2000000000000000 [-]
	 SCS Same-Spin Energy      =      -0.2565700832945031 [Eh]
	 SCS Opposite-Spin Energy  =      -2.6912446046278418 [Eh]
	 SCS Correlation Energy    =      -2.9478146879223450 [Eh]
	 SCS Total Energy          =   -1155.7780580090407057 [Eh]
	-----------------------------------------------------------

  Dipole Moment: [D]
     X:    -5.3659      Y:    -0.0026      Z:     2.1234     Total:     5.7708

*** Psi4 exiting successfully. Buy a developer a beer!
