                               Psi4 1.4a3.dev225

  ==> Input File <==

--------------------------------------------------------------------------
#psi4
#
memory 32 gb

molecule  {
0 1
  S        1.2441830     0.0010390    -0.8590750
  F        1.5874080    -1.0933110     1.5061340
  F        3.3145200    -0.0009050     0.7339870
  F        1.5874370     1.0896860     1.5087600
  O        1.6149610    -1.2856280    -1.4517330
  O        1.6149580     1.2891350    -1.4486230
  C       -0.4817510     0.0005820    -0.4824320
  C       -1.1416100    -1.2204050    -0.3274150
  C       -1.1416150     1.2211910    -0.3244870
  C       -3.1954030    -0.0001810     0.1494170
  C        1.9826530    -0.0010090     0.8356960
  C       -2.5096738    -1.1888872    -0.0138344
  C       -2.4997550     1.2061250    -0.0133040
  C       -4.6532730    -0.0006360     0.5253300
  H       -0.6057720    -2.1536140    -0.4772800
  H       -0.6057800     2.1547590    -0.4721140
  H       -3.0298860    -2.1498930     0.0955450
  H       -3.0298940     2.1496560     0.1007020
  H       -5.1606490     0.8856040     0.1349280
  H       -5.1606620    -0.8858980     0.1327310
  H       -4.7748820    -0.0019860     1.6139510
units angstrom
no_reorient  #important for SAPT in psi4, default
symmetry c1  #important for SAPT in psi4, default
}

set PROPERTIES_ORIGIN ["COM"]
properties('MP2/aug-cc-pvtz', properties = ['dipole'])
--------------------------------------------------------------------------

    Molecular point group: c1
  Charge       = 0
  Multiplicity = 1
  Basis Set: AUG-CC-PVTZ
    Blend: AUG-CC-PVTZ
  Basis Set: (AUG-CC-PVTZ AUX)
    Blend: AUG-CC-PVTZ-JKFIT

    Orbital Energies [Eh]
    ---------------------

    Doubly Occupied:

       1A    -92.216252     2A    -26.371583     3A    -26.371560
       4A    -26.369009     5A    -20.574158     6A    -20.574090
       7A    -11.550243     8A    -11.293421     9A    -11.286367
      10A    -11.284755    11A    -11.283790    12A    -11.265337
      13A    -11.264967    14A    -11.251949    15A     -9.184978
      16A     -6.869836    17A     -6.869107    18A     -6.868816
      19A     -1.756989    20A     -1.665299    21A     -1.664446
      22A     -1.465989    23A     -1.358551    24A     -1.199026
      25A     -1.102243    26A     -1.052235    27A     -1.039131
      28A     -0.980679    29A     -0.917813    30A     -0.870799
      31A     -0.857112    32A     -0.850671    33A     -0.845220
      34A     -0.796261    35A     -0.743081    36A     -0.736756
      37A     -0.725764    38A     -0.695620    39A     -0.693353
      40A     -0.684252    41A     -0.678177    42A     -0.671305
      43A     -0.666548    44A     -0.647341    45A     -0.638413
      46A     -0.623905    47A     -0.605122    48A     -0.568779
      49A     -0.545605    50A     -0.532651    51A     -0.527565
      52A     -0.522808    53A     -0.514547    54A     -0.497303
      55A     -0.467815    56A     -0.376405    57A     -0.370753

  @DF-RHF Final Energy: -1152.82998482446192

   => Energetics <=

    Nuclear Repulsion Energy =           1102.7535602814580216
    One-Electron Energy =               -3781.3539884529354822
    Two-Electron Energy =                1525.7704433470157710
    Total Energy =                      -1152.8299848244619170
  Basis Set: (AUG-CC-PVTZ AUX)
    Blend: AUG-CC-PVTZ-RI
    Molecular point group: c1

    Geometry (in Angstrom), charge = 0, multiplicity = 1:

       Center              X                  Y                   Z               Mass
    ------------   -----------------  -----------------  -----------------  -----------------
         S            1.116951923028     0.000131792576    -0.871084806865    31.972071174400
         F            1.460176923028    -1.094218207424     1.494124193135    18.998403162730
         F            3.187288923028    -0.001812207424     0.721977193135    18.998403162730
         F            1.460205923028     1.088778792576     1.496750193135    18.998403162730
         O            1.487729923028    -1.286535207424    -1.463742806865    15.994914619570
         O            1.487726923028     1.288227792576    -1.460632806865    15.994914619570
         C           -0.608982076972    -0.000325207424    -0.494441806865    12.000000000000
         C           -1.268841076972    -1.221312207424    -0.339424806865    12.000000000000
         C           -1.268846076972     1.220283792576    -0.336496806865    12.000000000000
         C           -3.322634076972    -0.001088207424     0.137407193135    12.000000000000
         C            1.855421923028    -0.001916207424     0.823686193135    12.000000000000
         C           -2.636904876972    -1.189794407424    -0.025844206865    12.000000000000
         C           -2.626986076972     1.205217792576    -0.025313806865    12.000000000000
         C           -4.780504076972    -0.001543207424     0.513320193135    12.000000000000
         H           -0.733003076972    -2.154521207424    -0.489289806865     1.007825032230
         H           -0.733011076972     2.153851792576    -0.484123806865     1.007825032230
         H           -3.157117076972    -2.150800207424     0.083535193135     1.007825032230
         H           -3.157125076972     2.148748792576     0.088692193135     1.007825032230
         H           -5.287880076972     0.884696792576     0.122918193135     1.007825032230
         H           -5.287893076972    -0.886805207424     0.120721193135     1.007825032230
         H           -4.902113076972    -0.002893207424     1.601941193135     1.007825032230

  Basis Set: AUG-CC-PVTZ
    Blend: AUG-CC-PVTZ
  Basis Set: (AUG-CC-PVTZ AUX)
    Blend: AUG-CC-PVTZ-JKFIT
	 Reference Energy          =   -1152.8299848244619170 [Eh]
	 Singles Energy            =      -0.0000000000000000 [Eh]
	 Same-Spin Energy          =      -0.7697500245058249 [Eh]
	 Opposite-Spin Energy      =      -2.2427688215190766 [Eh]
	 Correlation Energy        =      -3.0125188460249017 [Eh]
	 Total Energy              =   -1155.8425036704868489 [Eh]

	 ================> DF-SCS-MP2 Energies <==================
	-----------------------------------------------------------
	 SCS Same-Spin Scale       =       0.3333333333333333 [-]
	 SCS Opposite-Spin Scale   =       1.2000000000000000 [-]
	 SCS Same-Spin Energy      =      -0.2565833415019416 [Eh]
	 SCS Opposite-Spin Energy  =      -2.6913225858228920 [Eh]
	 SCS Correlation Energy    =      -2.9479059273248334 [Eh]
	 SCS Total Energy          =   -1155.7778907517867992 [Eh]
	-----------------------------------------------------------

  Dipole Moment: [D]
     X:    -5.4048      Y:    -0.0011      Z:     2.1310     Total:     5.8097

*** Psi4 exiting successfully. Buy a developer a beer!
