                               Psi4 1.4a3.dev225

  ==> Input File <==

--------------------------------------------------------------------------
#psi4
#
memory 32 gb

molecule  {
0 1
  S        1.2441830     0.0010390    -0.8590750
  F        1.5874080    -1.0933110     1.5061340
  F        3.3145200    -0.0009050     0.7339870
  F        1.5874370     1.0896860     1.5087600
  O        1.6149610    -1.2856280    -1.4517330
  O        1.6149580     1.2891350    -1.4486230
  C       -0.4817510     0.0005820    -0.4824320
  C       -1.1416100    -1.2204050    -0.3274150
  C       -1.1416150     1.2211910    -0.3244870
  C       -3.1954030    -0.0001810     0.1494170
  C        1.9826530    -0.0010090     0.8356960
  C       -2.5245595    -1.1630830    -0.0102906
  C       -2.4997550     1.2061250    -0.0133040
  C       -4.6532730    -0.0006360     0.5253300
  H       -0.6057720    -2.1536140    -0.4772800
  H       -0.6057800     2.1547590    -0.4721140
  H       -3.0298860    -2.1498930     0.0955450
  H       -3.0298940     2.1496560     0.1007020
  H       -5.1606490     0.8856040     0.1349280
  H       -5.1606620    -0.8858980     0.1327310
  H       -4.7748820    -0.0019860     1.6139510
units angstrom
no_reorient  #important for SAPT in psi4, default
symmetry c1  #important for SAPT in psi4, default
}

set PROPERTIES_ORIGIN ["COM"]
properties('MP2/aug-cc-pvtz', properties = ['dipole'])
--------------------------------------------------------------------------

    Molecular point group: c1
  Charge       = 0
  Multiplicity = 1
  Basis Set: AUG-CC-PVTZ
    Blend: AUG-CC-PVTZ
  Basis Set: (AUG-CC-PVTZ AUX)
    Blend: AUG-CC-PVTZ-JKFIT

    Orbital Energies [Eh]
    ---------------------

    Doubly Occupied:

       1A    -92.216483     2A    -26.371841     3A    -26.371816
       4A    -26.369284     5A    -20.574535     6A    -20.574375
       7A    -11.550558     8A    -11.294081     9A    -11.289005
      10A    -11.282605    11A    -11.280315    12A    -11.265703
      13A    -11.264673    14A    -11.251233    15A     -9.185253
      16A     -6.870109    17A     -6.869377    18A     -6.869084
      19A     -1.757252    20A     -1.665556    21A     -1.664709
      22A     -1.466330    23A     -1.358881    24A     -1.200736
      25A     -1.104731    26A     -1.050308    27A     -1.039198
      28A     -0.980407    29A     -0.918863    30A     -0.872781
      31A     -0.857304    32A     -0.850929    33A     -0.845369
      34A     -0.795244    35A     -0.743232    36A     -0.737020
      37A     -0.725858    38A     -0.695914    39A     -0.693604
      40A     -0.685033    41A     -0.678438    42A     -0.671279
      43A     -0.666753    44A     -0.647792    45A     -0.638206
      46A     -0.621780    47A     -0.605427    48A     -0.567087
      49A     -0.546326    50A     -0.533047    51A     -0.527889
      52A     -0.522855    53A     -0.514057    54A     -0.497620
      55A     -0.467420    56A     -0.380413    57A     -0.368460

  @DF-RHF Final Energy: -1152.82716553701789

   => Energetics <=

    Nuclear Repulsion Energy =           1103.0069115468922973
    One-Electron Energy =               -3781.8392786465360587
    Two-Electron Energy =                1526.0052015626258708
    Total Energy =                      -1152.8271655370178905
  Basis Set: (AUG-CC-PVTZ AUX)
    Blend: AUG-CC-PVTZ-RI
    Molecular point group: c1

    Geometry (in Angstrom), charge = 0, multiplicity = 1:

       Center              X                  Y                   Z               Mass
    ------------   -----------------  -----------------  -----------------  -----------------
         S            1.117749328933    -0.001250501939    -0.871274643222    31.972071174400
         F            1.460974328933    -1.095600501939     1.493934356778    18.998403162730
         F            3.188086328933    -0.003194501939     0.721787356778    18.998403162730
         F            1.461003328933     1.087396498061     1.496560356778    18.998403162730
         O            1.488527328933    -1.287917501939    -1.463932643222    15.994914619570
         O            1.488524328933     1.286845498061    -1.460822643222    15.994914619570
         C           -0.608184671067    -0.001707501939    -0.494631643222    12.000000000000
         C           -1.268043671067    -1.222694501939    -0.339614643222    12.000000000000
         C           -1.268048671067     1.218901498061    -0.336686643222    12.000000000000
         C           -3.321836671067    -0.002470501939     0.137217356778    12.000000000000
         C            1.856219328933    -0.003298501939     0.823496356778    12.000000000000
         C           -2.650993171067    -1.165372501939    -0.022490243222    12.000000000000
         C           -2.626188671067     1.203835498061    -0.025503643222    12.000000000000
         C           -4.779706671067    -0.002925501939     0.513130356778    12.000000000000
         H           -0.732205671067    -2.155903501939    -0.489479643222     1.007825032230
         H           -0.732213671067     2.152469498061    -0.484313643222     1.007825032230
         H           -3.156319671067    -2.152182501939     0.083345356778     1.007825032230
         H           -3.156327671067     2.147366498061     0.088502356778     1.007825032230
         H           -5.287082671067     0.883314498061     0.122728356778     1.007825032230
         H           -5.287095671067    -0.888187501939     0.120531356778     1.007825032230
         H           -4.901315671067    -0.004275501939     1.601751356778     1.007825032230

  Basis Set: AUG-CC-PVTZ
    Blend: AUG-CC-PVTZ
  Basis Set: (AUG-CC-PVTZ AUX)
    Blend: AUG-CC-PVTZ-JKFIT
	 Reference Energy          =   -1152.8271655370178905 [Eh]
	 Singles Energy            =      -0.0000000000000000 [Eh]
	 Same-Spin Energy          =      -0.7698187994757903 [Eh]
	 Opposite-Spin Energy      =      -2.2429633218302882 [Eh]
	 Correlation Energy        =      -3.0127821213060786 [Eh]
	 Total Energy              =   -1155.8399476583240357 [Eh]

	 ================> DF-SCS-MP2 Energies <==================
	-----------------------------------------------------------
	 SCS Same-Spin Scale       =       0.3333333333333333 [-]
	 SCS Opposite-Spin Scale   =       1.2000000000000000 [-]
	 SCS Same-Spin Energy      =      -0.2566062664919301 [Eh]
	 SCS Opposite-Spin Energy  =      -2.6915559861963456 [Eh]
	 SCS Correlation Energy    =      -2.9481622526882756 [Eh]
	 SCS Total Energy          =   -1155.7753277897061253 [Eh]
	-----------------------------------------------------------

  Dipole Moment: [D]
     X:    -5.3757      Y:     0.0022      Z:     2.1241     Total:     5.7802

*** Psi4 exiting successfully. Buy a developer a beer!
