                               Psi4 1.4a3.dev225

  ==> Input File <==

--------------------------------------------------------------------------
#psi4
#
memory 32 gb

molecule  {
0 1
  S        1.1868354    -0.1106545    -0.8293095
  F        1.5874080    -1.0933110     1.5061340
  F        3.3145200    -0.0009050     0.7339870
  F        1.5874370     1.0896860     1.5087600
  O        1.6149610    -1.2856280    -1.4517330
  O        1.6149580     1.2891350    -1.4486230
  C       -0.4817510     0.0005820    -0.4824320
  C       -1.1416100    -1.2204050    -0.3274150
  C       -1.1416150     1.2211910    -0.3244870
  C       -3.1954030    -0.0001810     0.1494170
  C        1.9826530    -0.0010090     0.8356960
  C       -2.4997500    -1.2060900    -0.0161970
  C       -2.4997550     1.2061250    -0.0133040
  C       -4.6532730    -0.0006360     0.5253300
  H       -0.6057720    -2.1536140    -0.4772800
  H       -0.6057800     2.1547590    -0.4721140
  H       -3.0298860    -2.1498930     0.0955450
  H       -3.0298940     2.1496560     0.1007020
  H       -5.1606490     0.8856040     0.1349280
  H       -5.1606620    -0.8858980     0.1327310
  H       -4.7748820    -0.0019860     1.6139510
units angstrom
no_reorient  #important for SAPT in psi4, default
symmetry c1  #important for SAPT in psi4, default
}

set PROPERTIES_ORIGIN ["COM"]
properties('MP2/aug-cc-pvtz', properties = ['dipole'])
--------------------------------------------------------------------------

    Molecular point group: c1
  Charge       = 0
  Multiplicity = 1
  Basis Set: AUG-CC-PVTZ
    Blend: AUG-CC-PVTZ
  Basis Set: (AUG-CC-PVTZ AUX)
    Blend: AUG-CC-PVTZ-JKFIT

    Orbital Energies [Eh]
    ---------------------

    Doubly Occupied:

       1A    -92.210060     2A    -26.370490     3A    -26.369770
       4A    -26.368353     5A    -20.587448     6A    -20.544643
       7A    -11.549891     8A    -11.294973     9A    -11.293886
      10A    -11.291282    11A    -11.290745    12A    -11.269343
      13A    -11.269173    14A    -11.256250    15A     -9.181214
      16A     -6.865748    17A     -6.865498    18A     -6.864537
      19A     -1.755886    20A     -1.664815    21A     -1.662605
      22A     -1.483724    23A     -1.305422    24A     -1.204877
      25A     -1.111182    26A     -1.058854    27A     -1.039983
      28A     -0.988229    29A     -0.919358    30A     -0.876106
      31A     -0.859701    32A     -0.849434    33A     -0.846849
      34A     -0.799912    35A     -0.742241    36A     -0.736436
      37A     -0.727325    38A     -0.695696    39A     -0.692444
      40A     -0.688937    41A     -0.677389    42A     -0.677037
      43A     -0.668397    44A     -0.642531    45A     -0.638775
      46A     -0.629762    47A     -0.608872    48A     -0.573639
      49A     -0.551491    50A     -0.539437    51A     -0.531445
      52A     -0.517054    53A     -0.503784    54A     -0.466872
      55A     -0.455678    56A     -0.380590    57A     -0.376567

  @DF-RHF Final Energy: -1152.80389213069566

   => Energetics <=

    Nuclear Repulsion Energy =           1103.7647802916037563
    One-Electron Energy =               -3783.3520633721395825
    Two-Electron Energy =                1526.7833909498399407
    Total Energy =                      -1152.8038921306956581
  Basis Set: (AUG-CC-PVTZ AUX)
    Blend: AUG-CC-PVTZ-RI
    Molecular point group: c1

    Geometry (in Angstrom), charge = 0, multiplicity = 1:

       Center              X                  Y                   Z               Mass
    ------------   -----------------  -----------------  -----------------  -----------------
         S            1.067257648868    -0.094698735490    -0.845441023372    31.972071174400
         F            1.467830248868    -1.077355235490     1.490002476628    18.998403162730
         F            3.194942248868     0.015050764510     0.717855476628    18.998403162730
         F            1.467859248868     1.105641764510     1.492628476628    18.998403162730
         O            1.495383248868    -1.269672235490    -1.467864523372    15.994914619570
         O            1.495380248868     1.305090764510    -1.464754523372    15.994914619570
         C           -0.601328751132     0.016537764510    -0.498563523372    12.000000000000
         C           -1.261187751132    -1.204449235490    -0.343546523372    12.000000000000
         C           -1.261192751132     1.237146764510    -0.340618523372    12.000000000000
         C           -3.314980751132     0.015774764510     0.133285476628    12.000000000000
         C            1.863075248868     0.014946764510     0.819564476628    12.000000000000
         C           -2.619327751132    -1.190134235490    -0.032328523372    12.000000000000
         C           -2.619332751132     1.222080764510    -0.029435523372    12.000000000000
         C           -4.772850751132     0.015319764510     0.509198476628    12.000000000000
         H           -0.725349751132    -2.137658235490    -0.493411523372     1.007825032230
         H           -0.725357751132     2.170714764510    -0.488245523372     1.007825032230
         H           -3.149463751132    -2.133937235490     0.079413476628     1.007825032230
         H           -3.149471751132     2.165611764510     0.084570476628     1.007825032230
         H           -5.280226751132     0.901559764510     0.118796476628     1.007825032230
         H           -5.280239751132    -0.869942235490     0.116599476628     1.007825032230
         H           -4.894459751132     0.013969764510     1.597819476628     1.007825032230

  Basis Set: AUG-CC-PVTZ
    Blend: AUG-CC-PVTZ
  Basis Set: (AUG-CC-PVTZ AUX)
    Blend: AUG-CC-PVTZ-JKFIT
	 Reference Energy          =   -1152.8038921306956581 [Eh]
	 Singles Energy            =      -0.0000000000000000 [Eh]
	 Same-Spin Energy          =      -0.7702399954682103 [Eh]
	 Opposite-Spin Energy      =      -2.2439824309541927 [Eh]
	 Correlation Energy        =      -3.0142224264224029 [Eh]
	 Total Energy              =   -1155.8181145571179513 [Eh]

	 ================> DF-SCS-MP2 Energies <==================
	-----------------------------------------------------------
	 SCS Same-Spin Scale       =       0.3333333333333333 [-]
	 SCS Opposite-Spin Scale   =       1.2000000000000000 [-]
	 SCS Same-Spin Energy      =      -0.2567466651560701 [Eh]
	 SCS Opposite-Spin Energy  =      -2.6927789171450311 [Eh]
	 SCS Correlation Energy    =      -2.9495255823011011 [Eh]
	 SCS Total Energy          =   -1155.7534177129966793 [Eh]
	-----------------------------------------------------------

  Dipole Moment: [D]
     X:    -6.1492      Y:    -0.8884      Z:     2.4641     Total:     6.6839

*** Psi4 exiting successfully. Buy a developer a beer!
