                               Psi4 1.4a3.dev225

  ==> Input File <==

--------------------------------------------------------------------------
#psi4
#
memory 32 gb

molecule  {
0 1
  S        1.2441830     0.0010390    -0.8590750
  F        1.5874080    -1.0933110     1.5061340
  F        3.3145200    -0.0009050     0.7339870
  F        1.5874370     1.0896860     1.5087600
  O        1.6029656    -1.2976327    -1.4326241
  O        1.6149580     1.2891350    -1.4486230
  C       -0.4817510     0.0005820    -0.4824320
  C       -1.1416100    -1.2204050    -0.3274150
  C       -1.1416150     1.2211910    -0.3244870
  C       -3.1954030    -0.0001810     0.1494170
  C        1.9826530    -0.0010090     0.8356960
  C       -2.4997500    -1.2060900    -0.0161970
  C       -2.4997550     1.2061250    -0.0133040
  C       -4.6532730    -0.0006360     0.5253300
  H       -0.6057720    -2.1536140    -0.4772800
  H       -0.6057800     2.1547590    -0.4721140
  H       -3.0298860    -2.1498930     0.0955450
  H       -3.0298940     2.1496560     0.1007020
  H       -5.1606490     0.8856040     0.1349280
  H       -5.1606620    -0.8858980     0.1327310
  H       -4.7748820    -0.0019860     1.6139510
units angstrom
no_reorient  #important for SAPT in psi4, default
symmetry c1  #important for SAPT in psi4, default
}

set PROPERTIES_ORIGIN ["COM"]
properties('MP2/aug-cc-pvtz', properties = ['dipole'])
--------------------------------------------------------------------------

    Molecular point group: c1
  Charge       = 0
  Multiplicity = 1
  Basis Set: AUG-CC-PVTZ
    Blend: AUG-CC-PVTZ
  Basis Set: (AUG-CC-PVTZ AUX)
    Blend: AUG-CC-PVTZ-JKFIT

    Orbital Energies [Eh]
    ---------------------

    Doubly Occupied:

       1A    -92.216378     2A    -26.370991     3A    -26.370947
       4A    -26.368607     5A    -20.575409     6A    -20.574085
       7A    -11.549526     8A    -11.292428     9A    -11.287229
      10A    -11.284238    11A    -11.284086    12A    -11.264779
      13A    -11.264731    14A    -11.252205    15A     -9.185033
      16A     -6.869894    17A     -6.869188    18A     -6.868864
      19A     -1.756466    20A     -1.664710    21A     -1.664008
      22A     -1.466151    23A     -1.359775    24A     -1.197594
      25A     -1.100185    26A     -1.053246    27A     -1.038550
      28A     -0.980552    29A     -0.916848    30A     -0.869356
      31A     -0.856584    32A     -0.850133    33A     -0.844755
      34A     -0.796724    35A     -0.742999    36A     -0.736247
      37A     -0.725675    38A     -0.695109    39A     -0.692906
      40A     -0.683682    41A     -0.677688    42A     -0.671051
      43A     -0.666250    44A     -0.647880    45A     -0.638542
      46A     -0.624861    47A     -0.604737    48A     -0.569762
      49A     -0.545320    50A     -0.532209    51A     -0.526169
      52A     -0.523757    53A     -0.514698    54A     -0.498279
      55A     -0.467665    56A     -0.373627    57A     -0.371945

  @DF-RHF Final Energy: -1152.83026415192967

   => Energetics <=

    Nuclear Repulsion Energy =           1102.8462255709944202
    One-Electron Energy =               -3781.5623447432635658
    Two-Electron Energy =                1525.8858550203392497
    Total Energy =                      -1152.8302641519296685
  Basis Set: (AUG-CC-PVTZ AUX)
    Blend: AUG-CC-PVTZ-RI
    Molecular point group: c1

    Geometry (in Angstrom), charge = 0, multiplicity = 1:

       Center              X                  Y                   Z               Mass
    ------------   -----------------  -----------------  -----------------  -----------------
         S            1.117276815606     0.001910482806    -0.872322660936    31.972071174400
         F            1.460501815606    -1.092439517194     1.492886339064    18.998403162730
         F            3.187613815606    -0.000033517194     0.720739339064    18.998403162730
         F            1.460530815606     1.090557482806     1.495512339064    18.998403162730
         O            1.476059415606    -1.296761217194    -1.445871760936    15.994914619570
         O            1.488051815606     1.290006482806    -1.461870660936    15.994914619570
         C           -0.608657184394     0.001453482806    -0.495679660936    12.000000000000
         C           -1.268516184394    -1.219533517194    -0.340662660936    12.000000000000
         C           -1.268521184394     1.222062482806    -0.337734660936    12.000000000000
         C           -3.322309184394     0.000690482806     0.136169339064    12.000000000000
         C            1.855746815606    -0.000137517194     0.822448339064    12.000000000000
         C           -2.626656184394    -1.205218517194    -0.029444660936    12.000000000000
         C           -2.626661184394     1.206996482806    -0.026551660936    12.000000000000
         C           -4.780179184394     0.000235482806     0.512082339064    12.000000000000
         H           -0.732678184394    -2.152742517194    -0.490527660936     1.007825032230
         H           -0.732686184394     2.155630482806    -0.485361660936     1.007825032230
         H           -3.156792184394    -2.149021517194     0.082297339064     1.007825032230
         H           -3.156800184394     2.150527482806     0.087454339064     1.007825032230
         H           -5.287555184394     0.886475482806     0.121680339064     1.007825032230
         H           -5.287568184394    -0.885026517194     0.119483339064     1.007825032230
         H           -4.901788184394    -0.001114517194     1.600703339064     1.007825032230

  Basis Set: AUG-CC-PVTZ
    Blend: AUG-CC-PVTZ
  Basis Set: (AUG-CC-PVTZ AUX)
    Blend: AUG-CC-PVTZ-JKFIT
	 Reference Energy          =   -1152.8302641519296685 [Eh]
	 Singles Energy            =      -0.0000000000000000 [Eh]
	 Same-Spin Energy          =      -0.7697631090876281 [Eh]
	 Opposite-Spin Energy      =      -2.2428177339173869 [Eh]
	 Correlation Energy        =      -3.0125808430050149 [Eh]
	 Total Energy              =   -1155.8428449949346941 [Eh]

	 ================> DF-SCS-MP2 Energies <==================
	-----------------------------------------------------------
	 SCS Same-Spin Scale       =       0.3333333333333333 [-]
	 SCS Opposite-Spin Scale   =       1.2000000000000000 [-]
	 SCS Same-Spin Energy      =      -0.2565877030292094 [Eh]
	 SCS Opposite-Spin Energy  =      -2.6913812807008641 [Eh]
	 SCS Correlation Energy    =      -2.9479689837300733 [Eh]
	 SCS Total Energy          =   -1155.7782331356597751 [Eh]
	-----------------------------------------------------------

  Dipole Moment: [D]
     X:    -5.3832      Y:     0.0217      Z:     2.0883     Total:     5.7741

*** Psi4 exiting successfully. Buy a developer a beer!
