                               Psi4 1.4a3.dev225

  ==> Input File <==

--------------------------------------------------------------------------
#psi4
#
memory 32 gb

molecule  {
0 1
  S        1.2441830     0.0010390    -0.8590750
  F        1.5874080    -1.0933110     1.5061340
  F        3.3145200    -0.0009050     0.7339870
  F        1.5874370     1.0896860     1.5087600
  O        1.6149610    -1.2856280    -1.4517330
  O        1.6149580     1.2891350    -1.4486230
  C       -0.4817510     0.0005820    -0.4824320
  C       -1.1416100    -1.2204050    -0.3274150
  C       -1.1416150     1.2211910    -0.3244870
  C       -3.1954030    -0.0001810     0.1494170
  C        1.9826530    -0.0010090     0.8356960
  C       -2.4997500    -1.2060900    -0.0161970
  C       -2.4997550     1.2061250    -0.0133040
  C       -4.6532730    -0.0006360     0.5253300
  H       -0.6057720    -2.1536140    -0.4772800
  H       -0.6057800     2.1547590    -0.4721140
  H       -3.0298860    -2.1498930     0.0955450
  H       -3.0298940     2.1496560     0.1007020
  H       -5.1606490     0.8856040     0.1349280
  H       -5.1606620    -0.8858980     0.1327310
  H       -4.7804329    -0.0020476     1.6636419
units angstrom
no_reorient  #important for SAPT in psi4, default
symmetry c1  #important for SAPT in psi4, default
}

set PROPERTIES_ORIGIN ["COM"]
properties('MP2/aug-cc-pvtz', properties = ['dipole'])
--------------------------------------------------------------------------

    Molecular point group: c1
  Charge       = 0
  Multiplicity = 1
  Basis Set: AUG-CC-PVTZ
    Blend: AUG-CC-PVTZ
  Basis Set: (AUG-CC-PVTZ AUX)
    Blend: AUG-CC-PVTZ-JKFIT

    Orbital Energies [Eh]
    ---------------------

    Doubly Occupied:

       1A    -92.216178     2A    -26.371460     3A    -26.371439
       4A    -26.368874     5A    -20.573988     6A    -20.573969
       7A    -11.550091     8A    -11.293140     9A    -11.287865
      10A    -11.284748    11A    -11.284646    12A    -11.265306
      13A    -11.265267    14A    -11.258209    15A     -9.184874
      16A     -6.869733    17A     -6.869006    18A     -6.868717
      19A     -1.756863    20A     -1.665177    21A     -1.664320
      22A     -1.465836    23A     -1.358404    24A     -1.198103
      25A     -1.100273    26A     -1.053749    27A     -1.038686
      28A     -0.978737    29A     -0.916309    30A     -0.869875
      31A     -0.856479    32A     -0.850547    33A     -0.844765
      34A     -0.796866    35A     -0.742983    36A     -0.736632
      37A     -0.725616    38A     -0.695497    39A     -0.693202
      40A     -0.684034    41A     -0.678054    42A     -0.671251
      43A     -0.666426    44A     -0.647169    45A     -0.638422
      46A     -0.625324    47A     -0.597146    48A     -0.570520
      49A     -0.545715    50A     -0.530716    51A     -0.526506
      52A     -0.522769    53A     -0.514694    54A     -0.497152
      55A     -0.468088    56A     -0.373563    57A     -0.372409

  @DF-RHF Final Energy: -1152.82845588355326

   => Energetics <=

    Nuclear Repulsion Energy =           1102.3758030044880343
    One-Electron Energy =               -3780.6157499479604667
    Two-Electron Energy =                1525.4114910599189443
    Total Energy =                      -1152.8284558835532607
  Basis Set: (AUG-CC-PVTZ AUX)
    Blend: AUG-CC-PVTZ-RI
    Molecular point group: c1

    Geometry (in Angstrom), charge = 0, multiplicity = 1:

       Center              X                  Y                   Z               Mass
    ------------   -----------------  -----------------  -----------------  -----------------
         S            1.116445292481     0.001053599390    -0.871181804098    31.972071174400
         F            1.459670292481    -1.093296400610     1.494027195902    18.998403162730
         F            3.186782292481    -0.000890400610     0.721880195902    18.998403162730
         F            1.459699292481     1.089700599390     1.496653195902    18.998403162730
         O            1.487223292481    -1.285613400610    -1.463839804098    15.994914619570
         O            1.487220292481     1.289149599390    -1.460729804098    15.994914619570
         C           -0.609488707519     0.000596599390    -0.494538804098    12.000000000000
         C           -1.269347707519    -1.220390400610    -0.339521804098    12.000000000000
         C           -1.269352707519     1.221205599390    -0.336593804098    12.000000000000
         C           -3.323140707519    -0.000166400610     0.137310195902    12.000000000000
         C            1.854915292481    -0.000994400610     0.823589195902    12.000000000000
         C           -2.627487707519    -1.206075400610    -0.028303804098    12.000000000000
         C           -2.627492707519     1.206139599390    -0.025410804098    12.000000000000
         C           -4.781010707519    -0.000621400610     0.513223195902    12.000000000000
         H           -0.733509707519    -2.153599400610    -0.489386804098     1.007825032230
         H           -0.733517707519     2.154773599390    -0.484220804098     1.007825032230
         H           -3.157623707519    -2.149878400610     0.083438195902     1.007825032230
         H           -3.157631707519     2.149670599390     0.088595195902     1.007825032230
         H           -5.288386707519     0.885618599390     0.122821195902     1.007825032230
         H           -5.288399707519    -0.885883400610     0.120624195902     1.007825032230
         H           -4.908170607519    -0.002033000610     1.651535095902     1.007825032230

  Basis Set: AUG-CC-PVTZ
    Blend: AUG-CC-PVTZ
  Basis Set: (AUG-CC-PVTZ AUX)
    Blend: AUG-CC-PVTZ-JKFIT
	 Reference Energy          =   -1152.8284558835532607 [Eh]
	 Singles Energy            =      -0.0000000000000000 [Eh]
	 Same-Spin Energy          =      -0.7696897030444068 [Eh]
	 Opposite-Spin Energy      =      -2.2430134006640432 [Eh]
	 Correlation Energy        =      -3.0127031037084500 [Eh]
	 Total Energy              =   -1155.8411589872616787 [Eh]

	 ================> DF-SCS-MP2 Energies <==================
	-----------------------------------------------------------
	 SCS Same-Spin Scale       =       0.3333333333333333 [-]
	 SCS Opposite-Spin Scale   =       1.2000000000000000 [-]
	 SCS Same-Spin Energy      =      -0.2565632343481355 [Eh]
	 SCS Opposite-Spin Energy  =      -2.6916160807968517 [Eh]
	 SCS Correlation Energy    =      -2.9481793151449871 [Eh]
	 SCS Total Energy          =   -1155.7766351986981590 [Eh]
	-----------------------------------------------------------

  Dipole Moment: [D]
     X:    -5.4092      Y:    -0.0026      Z:     2.1180     Total:     5.8090

*** Psi4 exiting successfully. Buy a developer a beer!
