                               Psi4 1.4a3.dev225

  ==> Input File <==

--------------------------------------------------------------------------
#psi4
#
memory 32 gb

molecule  {
0 1
  S        1.2441830     0.0010390    -0.8590750
  F        1.5874080    -1.0933110     1.5061340
  F        3.3145200    -0.0009050     0.7339870
  F        1.5874370     1.0896860     1.5087600
  O        1.6149610    -1.2856280    -1.4517330
  O        1.6149580     1.2891350    -1.4486230
  C       -0.4817510     0.0005820    -0.4824320
  C       -1.1416100    -1.2204050    -0.3274150
  C       -1.1888658     1.3085949    -0.3131771
  C       -3.1954030    -0.0001810     0.1494170
  C        1.9826530    -0.0010090     0.8356960
  C       -2.4997500    -1.2060900    -0.0161970
  C       -2.4997550     1.2061250    -0.0133040
  C       -4.6532730    -0.0006360     0.5253300
  H       -0.6057720    -2.1536140    -0.4772800
  H       -0.6057800     2.1547590    -0.4721140
  H       -3.0298860    -2.1498930     0.0955450
  H       -3.0298940     2.1496560     0.1007020
  H       -5.1606490     0.8856040     0.1349280
  H       -5.1606620    -0.8858980     0.1327310
  H       -4.7748820    -0.0019860     1.6139510
units angstrom
no_reorient  #important for SAPT in psi4, default
symmetry c1  #important for SAPT in psi4, default
}

set PROPERTIES_ORIGIN ["COM"]
properties('MP2/aug-cc-pvtz', properties = ['dipole'])
--------------------------------------------------------------------------

    Molecular point group: c1
  Charge       = 0
  Multiplicity = 1
  Basis Set: AUG-CC-PVTZ
    Blend: AUG-CC-PVTZ
  Basis Set: (AUG-CC-PVTZ AUX)
    Blend: AUG-CC-PVTZ-JKFIT

    Orbital Energies [Eh]
    ---------------------

    Doubly Occupied:

       1A    -92.214907     2A    -26.370470     3A    -26.370193
       4A    -26.367703     5A    -20.572768     6A    -20.572412
       7A    -11.548665     8A    -11.298052     9A    -11.290671
      10A    -11.287350    11A    -11.286037    12A    -11.265504
      13A    -11.262213    14A    -11.253938    15A     -9.183413
      16A     -6.868282    17A     -6.867550    18A     -6.867291
      19A     -1.755723    20A     -1.664078    21A     -1.663194
      22A     -1.464266    23A     -1.357055    24A     -1.193597
      25A     -1.094985    26A     -1.061143    27A     -1.037916
      28A     -0.980350    29A     -0.915272    30A     -0.867156
      31A     -0.857675    32A     -0.849453    33A     -0.845304
      34A     -0.794308    35A     -0.741579    36A     -0.735593
      37A     -0.725335    38A     -0.694846    39A     -0.692922
      40A     -0.686765    41A     -0.677439    42A     -0.676430
      43A     -0.665577    44A     -0.647588    45A     -0.636199
      46A     -0.626350    47A     -0.606074    48A     -0.568056
      49A     -0.551676    50A     -0.528973    51A     -0.524404
      52A     -0.518708    53A     -0.511111    54A     -0.496176
      55A     -0.466007    56A     -0.382970    57A     -0.364389

  @DF-RHF Final Energy: -1152.81903051486779

   => Energetics <=

    Nuclear Repulsion Energy =           1100.6591877630164618
    One-Electron Energy =               -3777.2083107503581232
    Two-Electron Energy =                1523.7300924724736433
    Total Energy =                      -1152.8190305148677908
  Basis Set: (AUG-CC-PVTZ AUX)
    Blend: AUG-CC-PVTZ-RI
    Molecular point group: c1

    Geometry (in Angstrom), charge = 0, multiplicity = 1:

       Center              X                  Y                   Z               Mass
    ------------   -----------------  -----------------  -----------------  -----------------
         S            1.118951477649    -0.003628781107    -0.871564101078    31.972071174400
         F            1.462176477649    -1.097978781107     1.493644898922    18.998403162730
         F            3.189288477649    -0.005572781107     0.721497898922    18.998403162730
         F            1.462205477649     1.085018218893     1.496270898922    18.998403162730
         O            1.489729477649    -1.290295781107    -1.464222101078    15.994914619570
         O            1.489726477649     1.284467218893    -1.461112101078    15.994914619570
         C           -0.606982522351    -0.004085781107    -0.494921101078    12.000000000000
         C           -1.266841522351    -1.225072781107    -0.339904101078    12.000000000000
         C           -1.314097322351     1.303927118893    -0.325666201078    12.000000000000
         C           -3.320634522351    -0.004848781107     0.136927898922    12.000000000000
         C            1.857421477649    -0.005676781107     0.823206898922    12.000000000000
         C           -2.624981522351    -1.210757781107    -0.028686101078    12.000000000000
         C           -2.624986522351     1.201457218893    -0.025793101078    12.000000000000
         C           -4.778504522351    -0.005303781107     0.512840898922    12.000000000000
         H           -0.731003522351    -2.158281781107    -0.489769101078     1.007825032230
         H           -0.731011522351     2.150091218893    -0.484603101078     1.007825032230
         H           -3.155117522351    -2.154560781107     0.083055898922     1.007825032230
         H           -3.155125522351     2.144988218893     0.088212898922     1.007825032230
         H           -5.285880522351     0.880936218893     0.122438898922     1.007825032230
         H           -5.285893522351    -0.890565781107     0.120241898922     1.007825032230
         H           -4.900113522351    -0.006653781107     1.601461898922     1.007825032230

  Basis Set: AUG-CC-PVTZ
    Blend: AUG-CC-PVTZ
  Basis Set: (AUG-CC-PVTZ AUX)
    Blend: AUG-CC-PVTZ-JKFIT
	 Reference Energy          =   -1152.8190305148677908 [Eh]
	 Singles Energy            =      -0.0000000000000000 [Eh]
	 Same-Spin Energy          =      -0.7694692430446632 [Eh]
	 Opposite-Spin Energy      =      -2.2434158387164351 [Eh]
	 Correlation Energy        =      -3.0128850817610981 [Eh]
	 Total Energy              =   -1155.8319155966289600 [Eh]

	 ================> DF-SCS-MP2 Energies <==================
	-----------------------------------------------------------
	 SCS Same-Spin Scale       =       0.3333333333333333 [-]
	 SCS Opposite-Spin Scale   =       1.2000000000000000 [-]
	 SCS Same-Spin Energy      =      -0.2564897476815544 [Eh]
	 SCS Opposite-Spin Energy  =      -2.6920990064597219 [Eh]
	 SCS Correlation Energy    =      -2.9485887541412761 [Eh]
	 SCS Total Energy          =   -1155.7676192690091739 [Eh]
	-----------------------------------------------------------

  Dipole Moment: [D]
     X:    -5.4813      Y:    -0.0393      Z:     2.1433     Total:     5.8855

*** Psi4 exiting successfully. Buy a developer a beer!
