                               Psi4 1.4a3.dev225

  ==> Input File <==

--------------------------------------------------------------------------
#psi4
#
memory 32 gb

molecule  {
0 1
  S        1.2441830     0.0010390    -0.8590750
  F        1.5874080    -1.0933110     1.5061340
  F        3.3145200    -0.0009050     0.7339870
  F        1.5874370     1.0896860     1.5087600
  O        1.6149610    -1.2856280    -1.4517330
  O        1.6149580     1.2891350    -1.4486230
  C       -0.4817510     0.0005820    -0.4824320
  C       -1.1416100    -1.2204050    -0.3274150
  C       -1.1416150     1.2211910    -0.3244870
  C       -3.1954030    -0.0001810     0.1494170
  C        1.9826530    -0.0010090     0.8356960
  C       -2.4997500    -1.2060900    -0.0161970
  C       -2.4997550     1.2061250    -0.0133040
  C       -4.6532730    -0.0006360     0.5253300
  H       -0.6057720    -2.1536140    -0.4772800
  H       -0.6057800     2.1547590    -0.4721140
  H       -3.0298860    -2.1498930     0.0955450
  H       -3.0298940     2.1496560     0.1007020
  H       -5.1606490     0.8856040     0.1349280
  H       -5.1606620    -0.8858980     0.1327310
  H       -4.7970857    -0.0022325     1.8127145
units angstrom
no_reorient  #important for SAPT in psi4, default
symmetry c1  #important for SAPT in psi4, default
}

set PROPERTIES_ORIGIN ["COM"]
properties('MP2/aug-cc-pvtz', properties = ['dipole'])
--------------------------------------------------------------------------

    Molecular point group: c1
  Charge       = 0
  Multiplicity = 1
  Basis Set: AUG-CC-PVTZ
    Blend: AUG-CC-PVTZ
  Basis Set: (AUG-CC-PVTZ AUX)
    Blend: AUG-CC-PVTZ-JKFIT

    Orbital Energies [Eh]
    ---------------------

    Doubly Occupied:

       1A    -92.216579     2A    -26.371708     3A    -26.371687
       4A    -26.369126     5A    -20.574365     6A    -20.574346
       7A    -11.550392     8A    -11.293855     9A    -11.289036
      10A    -11.285206    11A    -11.285107    12A    -11.274277
      13A    -11.266178    14A    -11.266139    15A     -9.185278
      16A     -6.870138    17A     -6.869411    18A     -6.869119
      19A     -1.757111    20A     -1.665422    21A     -1.664565
      22A     -1.466214    23A     -1.358772    24A     -1.198660
      25A     -1.099852    26A     -1.054365    27A     -1.038285
      28A     -0.974670    29A     -0.914516    30A     -0.870526
      31A     -0.855920    32A     -0.850792    33A     -0.844276
      34A     -0.797182    35A     -0.743162    36A     -0.736882
      37A     -0.725634    38A     -0.695785    39A     -0.693395
      40A     -0.684806    41A     -0.678300    42A     -0.671566
      43A     -0.666721    44A     -0.647666    45A     -0.638551
      46A     -0.625905    47A     -0.577791    48A     -0.572675
      49A     -0.546213    50A     -0.527325    51A     -0.523148
      52A     -0.521613    53A     -0.514116    54A     -0.497522
      55A     -0.468517    56A     -0.372918    57A     -0.372213

  @DF-RHF Final Energy: -1152.81065815355032

   => Energetics <=

    Nuclear Repulsion Energy =           1101.7931246054631629
    One-Electron Energy =               -3779.4165647766335496
    Two-Electron Energy =                1524.8127820176200657
    Total Energy =                      -1152.8106581535503210
  Basis Set: (AUG-CC-PVTZ AUX)
    Blend: AUG-CC-PVTZ-RI
    Molecular point group: c1

    Geometry (in Angstrom), charge = 0, multiplicity = 1:

       Center              X                  Y                   Z               Mass
    ------------   -----------------  -----------------  -----------------  -----------------
         S            1.116520213098     0.001054431251    -0.871852478771    31.972071174400
         F            1.459745213098    -1.093295568749     1.493356521229    18.998403162730
         F            3.186857213098    -0.000889568749     0.721209521229    18.998403162730
         F            1.459774213098     1.089701431251     1.495982521229    18.998403162730
         O            1.487298213098    -1.285612568749    -1.464510478771    15.994914619570
         O            1.487295213098     1.289150431251    -1.461400478771    15.994914619570
         C           -0.609413786902     0.000597431251    -0.495209478771    12.000000000000
         C           -1.269272786902    -1.220389568749    -0.340192478771    12.000000000000
         C           -1.269277786902     1.221206431251    -0.337264478771    12.000000000000
         C           -3.323065786902    -0.000165568749     0.136639521229    12.000000000000
         C            1.854990213098    -0.000993568749     0.822918521229    12.000000000000
         C           -2.627412786902    -1.206074568749    -0.028974478771    12.000000000000
         C           -2.627417786902     1.206140431251    -0.026081478771    12.000000000000
         C           -4.780935786902    -0.000620568749     0.512552521229    12.000000000000
         H           -0.733434786902    -2.153598568749    -0.490057478771     1.007825032230
         H           -0.733442786902     2.154774431251    -0.484891478771     1.007825032230
         H           -3.157548786902    -2.149877568749     0.082767521229     1.007825032230
         H           -3.157556786902     2.149671431251     0.087924521229     1.007825032230
         H           -5.288311786902     0.885619431251     0.122150521229     1.007825032230
         H           -5.288324786902    -0.885882568749     0.119953521229     1.007825032230
         H           -4.924748486902    -0.002217068749     1.799937021229     1.007825032230

  Basis Set: AUG-CC-PVTZ
    Blend: AUG-CC-PVTZ
  Basis Set: (AUG-CC-PVTZ AUX)
    Blend: AUG-CC-PVTZ-JKFIT
	 Reference Energy          =   -1152.8106581535503210 [Eh]
	 Singles Energy            =      -0.0000000000000000 [Eh]
	 Same-Spin Energy          =      -0.7697304044377051 [Eh]
	 Opposite-Spin Energy      =      -2.2442576768164502 [Eh]
	 Correlation Energy        =      -3.0139880812541553 [Eh]
	 Total Energy              =   -1155.8246462348045043 [Eh]

	 ================> DF-SCS-MP2 Energies <==================
	-----------------------------------------------------------
	 SCS Same-Spin Scale       =       0.3333333333333333 [-]
	 SCS Opposite-Spin Scale   =       1.2000000000000000 [-]
	 SCS Same-Spin Energy      =      -0.2565768014792350 [Eh]
	 SCS Opposite-Spin Energy  =      -2.6931092121797402 [Eh]
	 SCS Correlation Energy    =      -2.9496860136589751 [Eh]
	 SCS Total Energy          =   -1155.7603441672092686 [Eh]
	-----------------------------------------------------------

  Dipole Moment: [D]
     X:    -5.3488      Y:    -0.0025      Z:     2.0439     Total:     5.7260

*** Psi4 exiting successfully. Buy a developer a beer!
