                               Psi4 1.4a3.dev225

  ==> Input File <==

--------------------------------------------------------------------------
#psi4
#
memory 32 gb

molecule  {
0 1
  S        1.2441830     0.0010390    -0.8590750
  F        1.5874080    -1.0933110     1.5061340
  F        3.3145200    -0.0009050     0.7339870
  F        1.5874370     1.0896860     1.5087600
  O        1.6098968    -1.2680544    -1.4436383
  O        1.6149580     1.2891350    -1.4486230
  C       -0.4817510     0.0005820    -0.4824320
  C       -1.1416100    -1.2204050    -0.3274150
  C       -1.1416150     1.2211910    -0.3244870
  C       -3.1954030    -0.0001810     0.1494170
  C        1.9826530    -0.0010090     0.8356960
  C       -2.4997500    -1.2060900    -0.0161970
  C       -2.4997550     1.2061250    -0.0133040
  C       -4.6532730    -0.0006360     0.5253300
  H       -0.6057720    -2.1536140    -0.4772800
  H       -0.6057800     2.1547590    -0.4721140
  H       -3.0298860    -2.1498930     0.0955450
  H       -3.0298940     2.1496560     0.1007020
  H       -5.1606490     0.8856040     0.1349280
  H       -5.1606620    -0.8858980     0.1327310
  H       -4.7748820    -0.0019860     1.6139510
units angstrom
no_reorient  #important for SAPT in psi4, default
symmetry c1  #important for SAPT in psi4, default
}

set PROPERTIES_ORIGIN ["COM"]
properties('MP2/aug-cc-pvtz', properties = ['dipole'])
--------------------------------------------------------------------------

    Molecular point group: c1
  Charge       = 0
  Multiplicity = 1
  Basis Set: AUG-CC-PVTZ
    Blend: AUG-CC-PVTZ
  Basis Set: (AUG-CC-PVTZ AUX)
    Blend: AUG-CC-PVTZ-JKFIT

    Orbital Energies [Eh]
    ---------------------

    Doubly Occupied:

       1A    -92.214554     2A    -26.370866     3A    -26.370408
       4A    -26.368262     5A    -20.574473     6A    -20.572477
       7A    -11.548579     8A    -11.291946     9A    -11.287100
      10A    -11.284240    11A    -11.283916    12A    -11.264795
      13A    -11.264658    14A    -11.252141    15A     -9.183541
      16A     -6.868386    17A     -6.867720    18A     -6.867479
      19A     -1.756147    20A     -1.664444    21A     -1.663668
      22A     -1.472775    23A     -1.363130    24A     -1.197537
      25A     -1.100065    26A     -1.053189    27A     -1.038090
      28A     -0.980392    29A     -0.916220    30A     -0.869294
      31A     -0.856495    32A     -0.849827    33A     -0.844513
      34A     -0.796387    35A     -0.743146    36A     -0.736012
      37A     -0.725847    38A     -0.694887    39A     -0.692653
      40A     -0.683716    41A     -0.677409    42A     -0.671761
      43A     -0.667982    44A     -0.649333    45A     -0.639375
      46A     -0.624817    47A     -0.604684    48A     -0.569761
      49A     -0.546016    50A     -0.532414    51A     -0.526486
      52A     -0.524339    53A     -0.516153    54A     -0.499047
      55A     -0.467809    56A     -0.373498    57A     -0.371910

  @DF-RHF Final Energy: -1152.83250832901240

   => Energetics <=

    Nuclear Repulsion Energy =           1103.6663132495943955
    One-Electron Energy =               -3783.2041031172379917
    Two-Electron Energy =                1526.7052815386309703
    Total Energy =                      -1152.8325083290123985
  Basis Set: (AUG-CC-PVTZ AUX)
    Blend: AUG-CC-PVTZ-RI
    Molecular point group: c1

    Geometry (in Angstrom), charge = 0, multiplicity = 1:

       Center              X                  Y                   Z               Mass
    ------------   -----------------  -----------------  -----------------  -----------------
         S            1.116781913507    -0.000201469347    -0.871536224143    31.972071174400
         F            1.460006913507    -1.094551469347     1.493672775857    18.998403162730
         F            3.187118913507    -0.002145469347     0.721525775857    18.998403162730
         F            1.460035913507     1.088445530653     1.496298775857    18.998403162730
         O            1.482495713507    -1.269294869347    -1.456099524143    15.994914619570
         O            1.487556913507     1.287894530653    -1.461084224143    15.994914619570
         C           -0.609152086493    -0.000658469347    -0.494893224143    12.000000000000
         C           -1.269011086493    -1.221645469347    -0.339876224143    12.000000000000
         C           -1.269016086493     1.219950530653    -0.336948224143    12.000000000000
         C           -3.322804086493    -0.001421469347     0.136955775857    12.000000000000
         C            1.855251913507    -0.002249469347     0.823234775857    12.000000000000
         C           -2.627151086493    -1.207330469347    -0.028658224143    12.000000000000
         C           -2.627156086493     1.204884530653    -0.025765224143    12.000000000000
         C           -4.780674086493    -0.001876469347     0.512868775857    12.000000000000
         H           -0.733173086493    -2.154854469347    -0.489741224143     1.007825032230
         H           -0.733181086493     2.153518530653    -0.484575224143     1.007825032230
         H           -3.157287086493    -2.151133469347     0.083083775857     1.007825032230
         H           -3.157295086493     2.148415530653     0.088240775857     1.007825032230
         H           -5.288050086493     0.884363530653     0.122466775857     1.007825032230
         H           -5.288063086493    -0.887138469347     0.120269775857     1.007825032230
         H           -4.902283086493    -0.003226469347     1.601489775857     1.007825032230

  Basis Set: AUG-CC-PVTZ
    Blend: AUG-CC-PVTZ
  Basis Set: (AUG-CC-PVTZ AUX)
    Blend: AUG-CC-PVTZ-JKFIT
	 Reference Energy          =   -1152.8325083290123985 [Eh]
	 Singles Energy            =      -0.0000000000000000 [Eh]
	 Same-Spin Energy          =      -0.7692095351555249 [Eh]
	 Opposite-Spin Energy      =      -2.2415503785103241 [Eh]
	 Correlation Energy        =      -3.0107599136658489 [Eh]
	 Total Energy              =   -1155.8432682426782776 [Eh]

	 ================> DF-SCS-MP2 Energies <==================
	-----------------------------------------------------------
	 SCS Same-Spin Scale       =       0.3333333333333333 [-]
	 SCS Opposite-Spin Scale   =       1.2000000000000000 [-]
	 SCS Same-Spin Energy      =      -0.2564031783851750 [Eh]
	 SCS Opposite-Spin Energy  =      -2.6898604542123890 [Eh]
	 SCS Correlation Energy    =      -2.9462636325975637 [Eh]
	 SCS Total Energy          =   -1155.7787719616098912 [Eh]
	-----------------------------------------------------------

  Dipole Moment: [D]
     X:    -5.3797      Y:    -0.0799      Z:     2.0811     Total:     5.7687

*** Psi4 exiting successfully. Buy a developer a beer!
