                               Psi4 1.4a3.dev225

  ==> Input File <==

--------------------------------------------------------------------------
#psi4
#
memory 32 gb

molecule  {
0 1
  S        1.2441830     0.0010390    -0.8590750
  F        1.5874080    -1.0933110     1.5061340
  F        3.3145200    -0.0009050     0.7339870
  F        1.5874370     1.0896860     1.5087600
  O        1.6149610    -1.2856280    -1.4517330
  O        1.6149580     1.2891350    -1.4486230
  C       -0.4817510     0.0005820    -0.4824320
  C       -1.1418956    -1.1717700    -0.3270978
  C       -1.1416150     1.2211910    -0.3244870
  C       -3.1954030    -0.0001810     0.1494170
  C        1.9826530    -0.0010090     0.8356960
  C       -2.4997500    -1.2060900    -0.0161970
  C       -2.4997550     1.2061250    -0.0133040
  C       -4.6532730    -0.0006360     0.5253300
  H       -0.6057720    -2.1536140    -0.4772800
  H       -0.6057800     2.1547590    -0.4721140
  H       -3.0298860    -2.1498930     0.0955450
  H       -3.0298940     2.1496560     0.1007020
  H       -5.1606490     0.8856040     0.1349280
  H       -5.1606620    -0.8858980     0.1327310
  H       -4.7748820    -0.0019860     1.6139510
units angstrom
no_reorient  #important for SAPT in psi4, default
symmetry c1  #important for SAPT in psi4, default
}

set PROPERTIES_ORIGIN ["COM"]
properties('MP2/aug-cc-pvtz', properties = ['dipole'])
--------------------------------------------------------------------------

    Molecular point group: c1
  Charge       = 0
  Multiplicity = 1
  Basis Set: AUG-CC-PVTZ
    Blend: AUG-CC-PVTZ
  Basis Set: (AUG-CC-PVTZ AUX)
    Blend: AUG-CC-PVTZ-JKFIT

    Orbital Energies [Eh]
    ---------------------

    Doubly Occupied:

       1A    -92.217127     2A    -26.372004     3A    -26.371846
       4A    -26.369427     5A    -20.574949     6A    -20.574448
       7A    -11.550791     8A    -11.289252     9A    -11.286485
      10A    -11.283577    11A    -11.282419    12A    -11.264389
      13A    -11.264193    14A    -11.251813    15A     -9.185828
      16A     -6.870691    17A     -6.869971    18A     -6.869657
      19A     -1.757361    20A     -1.665641    21A     -1.664821
      22A     -1.466551    23A     -1.359023    24A     -1.202422
      25A     -1.103326    26A     -1.052120    27A     -1.039885
      28A     -0.981619    29A     -0.918415    30A     -0.870587
      31A     -0.856476    32A     -0.851020    33A     -0.844514
      34A     -0.797992    35A     -0.743689    36A     -0.737073
      37A     -0.726229    38A     -0.696013    39A     -0.693649
      40A     -0.686071    41A     -0.678541    42A     -0.668885
      43A     -0.663811    44A     -0.648022    45A     -0.641385
      46A     -0.619137    47A     -0.604784    48A     -0.570755
      49A     -0.544329    50A     -0.536164    51A     -0.523906
      52A     -0.523239    53A     -0.515031    54A     -0.497280
      55A     -0.468859    56A     -0.377469    57A     -0.370583

  @DF-RHF Final Energy: -1152.82781499741395

   => Energetics <=

    Nuclear Repulsion Energy =           1103.5678507898910539
    One-Electron Energy =               -3782.9602430350373652
    Two-Electron Energy =                1526.5645772477323590
    Total Energy =                      -1152.8278149974139524
  Basis Set: (AUG-CC-PVTZ AUX)
    Blend: AUG-CC-PVTZ-RI
    Molecular point group: c1

    Geometry (in Angstrom), charge = 0, multiplicity = 1:

       Center              X                  Y                   Z               Mass
    ------------   -----------------  -----------------  -----------------  -----------------
         S            1.116435618280    -0.001551985942    -0.870975237679    31.972071174400
         F            1.459660618280    -1.095901985942     1.494233762321    18.998403162730
         F            3.186772618280    -0.003495985942     0.722086762321    18.998403162730
         F            1.459689618280     1.087095014058     1.496859762321    18.998403162730
         O            1.487213618280    -1.288218985942    -1.463633237679    15.994914619570
         O            1.487210618280     1.286544014058    -1.460523237679    15.994914619570
         C           -0.609498381720    -0.002008985942    -0.494332237679    12.000000000000
         C           -1.269642981720    -1.174360985942    -0.338998037679    12.000000000000
         C           -1.269362381720     1.218600014058    -0.336387237679    12.000000000000
         C           -3.323150381720    -0.002771985942     0.137516762321    12.000000000000
         C            1.854905618280    -0.003599985942     0.823795762321    12.000000000000
         C           -2.627497381720    -1.208680985942    -0.028097237679    12.000000000000
         C           -2.627502381720     1.203534014058    -0.025204237679    12.000000000000
         C           -4.781020381720    -0.003226985942     0.513429762321    12.000000000000
         H           -0.733519381720    -2.156204985942    -0.489180237679     1.007825032230
         H           -0.733527381720     2.152168014058    -0.484014237679     1.007825032230
         H           -3.157633381720    -2.152483985942     0.083644762321     1.007825032230
         H           -3.157641381720     2.147065014058     0.088801762321     1.007825032230
         H           -5.288396381720     0.883013014058     0.123027762321     1.007825032230
         H           -5.288409381720    -0.888488985942     0.120830762321     1.007825032230
         H           -4.902629381720    -0.004576985942     1.602050762321     1.007825032230

  Basis Set: AUG-CC-PVTZ
    Blend: AUG-CC-PVTZ
  Basis Set: (AUG-CC-PVTZ AUX)
    Blend: AUG-CC-PVTZ-JKFIT
	 Reference Energy          =   -1152.8278149974139524 [Eh]
	 Singles Energy            =      -0.0000000000000000 [Eh]
	 Same-Spin Energy          =      -0.7697432371907732 [Eh]
	 Opposite-Spin Energy      =      -2.2426215089799015 [Eh]
	 Correlation Energy        =      -3.0123647461706748 [Eh]
	 Total Energy              =   -1155.8401797435847129 [Eh]

	 ================> DF-SCS-MP2 Energies <==================
	-----------------------------------------------------------
	 SCS Same-Spin Scale       =       0.3333333333333333 [-]
	 SCS Opposite-Spin Scale   =       1.2000000000000000 [-]
	 SCS Same-Spin Energy      =      -0.2565810790635911 [Eh]
	 SCS Opposite-Spin Energy  =      -2.6911458107758817 [Eh]
	 SCS Correlation Energy    =      -2.9477268898394726 [Eh]
	 SCS Total Energy          =   -1155.7755418872534392 [Eh]
	-----------------------------------------------------------

  Dipole Moment: [D]
     X:    -5.3806      Y:    -0.0089      Z:     2.1302     Total:     5.7869

*** Psi4 exiting successfully. Buy a developer a beer!
