                               Psi4 1.4a3.dev225

  ==> Input File <==

--------------------------------------------------------------------------
#psi4
#
memory 32 gb

molecule  {
0 1
  S        1.2441830     0.0010390    -0.8590750
  F        1.5874080    -1.0933110     1.5061340
  F        3.3145200    -0.0009050     0.7339870
  F        1.5874370     1.0896860     1.5087600
  O        1.6149610    -1.2856280    -1.4517330
  O        1.6149580     1.2891350    -1.4486230
  C       -0.4817510     0.0005820    -0.4824320
  C       -1.1416100    -1.2204050    -0.3274150
  C       -1.1460066     1.3183480    -0.3237509
  C       -3.1954030    -0.0001810     0.1494170
  C        1.9826530    -0.0010090     0.8356960
  C       -2.4997500    -1.2060900    -0.0161970
  C       -2.4997550     1.2061250    -0.0133040
  C       -4.6532730    -0.0006360     0.5253300
  H       -0.6057720    -2.1536140    -0.4772800
  H       -0.6057800     2.1547590    -0.4721140
  H       -3.0298860    -2.1498930     0.0955450
  H       -3.0298940     2.1496560     0.1007020
  H       -5.1606490     0.8856040     0.1349280
  H       -5.1606620    -0.8858980     0.1327310
  H       -4.7748820    -0.0019860     1.6139510
units angstrom
no_reorient  #important for SAPT in psi4, default
symmetry c1  #important for SAPT in psi4, default
}

set PROPERTIES_ORIGIN ["COM"]
properties('MP2/aug-cc-pvtz', properties = ['dipole'])
--------------------------------------------------------------------------

    Molecular point group: c1
  Charge       = 0
  Multiplicity = 1
  Basis Set: AUG-CC-PVTZ
    Blend: AUG-CC-PVTZ
  Basis Set: (AUG-CC-PVTZ AUX)
    Blend: AUG-CC-PVTZ-JKFIT

    Orbital Energies [Eh]
    ---------------------

    Doubly Occupied:

       1A    -92.214152     2A    -26.370516     3A    -26.370285
       4A    -26.367719     5A    -20.572847     6A    -20.571950
       7A    -11.548651     8A    -11.299645     9A    -11.289808
      10A    -11.289031    11A    -11.286729    12A    -11.267874
      13A    -11.266664    14A    -11.253671    15A     -9.182839
      16A     -6.867691    17A     -6.866952    18A     -6.866699
      19A     -1.755783    20A     -1.664162    21A     -1.663233
      22A     -1.464230    23A     -1.356975    24A     -1.191197
      25A     -1.096187    26A     -1.056632    27A     -1.037586
      28A     -0.979548    29A     -0.915665    30A     -0.872516
      31A     -0.857177    32A     -0.849514    33A     -0.845003
      34A     -0.793272    35A     -0.741832    36A     -0.735651
      37A     -0.725775    38A     -0.694596    39A     -0.693572
      40A     -0.687266    41A     -0.679365    42A     -0.676916
      43A     -0.665661    44A     -0.647188    45A     -0.633059
      46A     -0.630149    47A     -0.605527    48A     -0.568011
      49A     -0.551346    50A     -0.529249    51A     -0.525280
      52A     -0.520022    53A     -0.511400    54A     -0.495947
      55A     -0.464941    56A     -0.377120    57A     -0.366503

  @DF-RHF Final Energy: -1152.81715354492371

   => Energetics <=

    Nuclear Repulsion Energy =           1100.6516180531787086
    One-Electron Energy =               -3777.1799877825906151
    Two-Electron Energy =                1523.7112161844879665
    Total Energy =                      -1152.8171535449237126
  Basis Set: (AUG-CC-PVTZ AUX)
    Blend: AUG-CC-PVTZ-RI
    Molecular point group: c1

    Geometry (in Angstrom), charge = 0, multiplicity = 1:

       Center              X                  Y                   Z               Mass
    ------------   -----------------  -----------------  -----------------  -----------------
         S            1.116655570895    -0.004151240886    -0.870997677560    31.972071174400
         F            1.459880570895    -1.098501240886     1.494211322440    18.998403162730
         F            3.186992570895    -0.006095240886     0.722064322440    18.998403162730
         F            1.459909570895     1.084495759114     1.496837322440    18.998403162730
         O            1.487433570895    -1.290818240886    -1.463655677560    15.994914619570
         O            1.487430570895     1.283944759114    -1.460545677560    15.994914619570
         C           -0.609278429105    -0.004608240886    -0.494354677560    12.000000000000
         C           -1.269137429105    -1.225595240886    -0.339337677560    12.000000000000
         C           -1.273534029105     1.313157759114    -0.335673577560    12.000000000000
         C           -3.322930429105    -0.005371240886     0.137494322440    12.000000000000
         C            1.855125570895    -0.006199240886     0.823773322440    12.000000000000
         C           -2.627277429105    -1.211280240886    -0.028119677560    12.000000000000
         C           -2.627282429105     1.200934759114    -0.025226677560    12.000000000000
         C           -4.780800429105    -0.005826240886     0.513407322440    12.000000000000
         H           -0.733299429105    -2.158804240886    -0.489202677560     1.007825032230
         H           -0.733307429105     2.149568759114    -0.484036677560     1.007825032230
         H           -3.157413429105    -2.155083240886     0.083622322440     1.007825032230
         H           -3.157421429105     2.144465759114     0.088779322440     1.007825032230
         H           -5.288176429105     0.880413759114     0.123005322440     1.007825032230
         H           -5.288189429105    -0.891088240886     0.120808322440     1.007825032230
         H           -4.902409429105    -0.007176240886     1.602028322440     1.007825032230

  Basis Set: AUG-CC-PVTZ
    Blend: AUG-CC-PVTZ
  Basis Set: (AUG-CC-PVTZ AUX)
    Blend: AUG-CC-PVTZ-JKFIT
	 Reference Energy          =   -1152.8171535449237126 [Eh]
	 Singles Energy            =      -0.0000000000000000 [Eh]
	 Same-Spin Energy          =      -0.7698122635806098 [Eh]
	 Opposite-Spin Energy      =      -2.2439301162610223 [Eh]
	 Correlation Energy        =      -3.0137423798416321 [Eh]
	 Total Energy              =   -1155.8308959247654002 [Eh]

	 ================> DF-SCS-MP2 Energies <==================
	-----------------------------------------------------------
	 SCS Same-Spin Scale       =       0.3333333333333333 [-]
	 SCS Opposite-Spin Scale   =       1.2000000000000000 [-]
	 SCS Same-Spin Energy      =      -0.2566040878602033 [Eh]
	 SCS Opposite-Spin Energy  =      -2.6927161395132266 [Eh]
	 SCS Correlation Energy    =      -2.9493202273734300 [Eh]
	 SCS Total Energy          =   -1155.7664737722971040 [Eh]
	-----------------------------------------------------------

  Dipole Moment: [D]
     X:    -5.5080      Y:    -0.0271      Z:     2.1468     Total:     5.9117

*** Psi4 exiting successfully. Buy a developer a beer!
