                               Psi4 1.4a3.dev225

  ==> Input File <==

--------------------------------------------------------------------------
#psi4
#
memory 32 gb

molecule  {
0 1
  S        1.2441830     0.0010390    -0.8590750
  F        1.5874080    -1.0933110     1.5061340
  F        3.3145200    -0.0009050     0.7339870
  F        1.5874370     1.0896860     1.5087600
  O        1.6149610    -1.2856280    -1.4517330
  O        1.6149580     1.2891350    -1.4486230
  C       -0.4817510     0.0005820    -0.4824320
  C       -1.1416100    -1.2204050    -0.3274150
  C       -1.1416150     1.2211910    -0.3244870
  C       -3.1954030    -0.0001810     0.1494170
  C        1.9826530    -0.0010090     0.8356960
  C       -2.4997500    -1.2060900    -0.0161970
  C       -2.4997550     1.2061250    -0.0133040
  C       -4.6532730    -0.0006360     0.5253300
  H       -0.6057720    -2.1536140    -0.4772800
  H       -0.6057800     2.1547590    -0.4721140
  H       -3.0298860    -2.1498930     0.0955450
  H       -3.0298940     2.1496560     0.1007020
  H       -5.1606490     0.8856040     0.1349280
  H       -5.1606620    -0.8858980     0.1327310
  H       -4.7726616    -0.0019614     1.5940746
units angstrom
no_reorient  #important for SAPT in psi4, default
symmetry c1  #important for SAPT in psi4, default
}

set PROPERTIES_ORIGIN ["COM"]
properties('MP2/aug-cc-pvtz', properties = ['dipole'])
--------------------------------------------------------------------------

    Molecular point group: c1
  Charge       = 0
  Multiplicity = 1
  Basis Set: AUG-CC-PVTZ
    Blend: AUG-CC-PVTZ
  Basis Set: (AUG-CC-PVTZ AUX)
    Blend: AUG-CC-PVTZ-JKFIT

    Orbital Energies [Eh]
    ---------------------

    Doubly Occupied:

       1A    -92.216071     2A    -26.371395     3A    -26.371374
       4A    -26.368809     5A    -20.573887     6A    -20.573868
       7A    -11.550013     8A    -11.292953     9A    -11.287418
      10A    -11.284612    11A    -11.284510    12A    -11.265055
      13A    -11.265016    14A    -11.250055    15A     -9.184767
      16A     -6.869626    17A     -6.868899    18A     -6.868610
      19A     -1.756798    20A     -1.665113    21A     -1.664256
      22A     -1.465735    23A     -1.358305    24A     -1.197991
      25A     -1.100924    26A     -1.053569    27A     -1.039197
      28A     -0.981846    29A     -0.917556    30A     -0.869678
      31A     -0.856998    32A     -0.850484    33A     -0.845147
      34A     -0.796843    35A     -0.743001    36A     -0.736567
      37A     -0.725786    38A     -0.695419    39A     -0.693191
      40A     -0.683792    41A     -0.677989    42A     -0.671370
      43A     -0.666412    44A     -0.647022    45A     -0.638951
      46A     -0.625154    47A     -0.608141    48A     -0.569775
      49A     -0.545632    50A     -0.533222    51A     -0.526243
      52A     -0.522664    53A     -0.514664    54A     -0.497051
      55A     -0.467969    56A     -0.374135    57A     -0.372255

  @DF-RHF Final Energy: -1152.83058348000759

   => Energetics <=

    Nuclear Repulsion Energy =           1102.6812406774588453
    One-Electron Energy =               -3781.2160803378505989
    Two-Electron Energy =                1525.7042561803841636
    Total Energy =                      -1152.8305834800075900
  Basis Set: (AUG-CC-PVTZ AUX)
    Blend: AUG-CC-PVTZ-RI
    Molecular point group: c1

    Geometry (in Angstrom), charge = 0, multiplicity = 1:

       Center              X                  Y                   Z               Mass
    ------------   -----------------  -----------------  -----------------  -----------------
         S            1.116410329556     0.001053211577    -0.870868822194    31.972071174400
         F            1.459635329556    -1.093296788423     1.494340177806    18.998403162730
         F            3.186747329556    -0.000890788423     0.722193177806    18.998403162730
         F            1.459664329556     1.089700211577     1.496966177806    18.998403162730
         O            1.487188329556    -1.285613788423    -1.463526822194    15.994914619570
         O            1.487185329556     1.289149211577    -1.460416822194    15.994914619570
         C           -0.609523670444     0.000596211577    -0.494225822194    12.000000000000
         C           -1.269382670444    -1.220390788423    -0.339208822194    12.000000000000
         C           -1.269387670444     1.221205211577    -0.336280822194    12.000000000000
         C           -3.323175670444    -0.000166788423     0.137623177806    12.000000000000
         C            1.854880329556    -0.000994788423     0.823902177806    12.000000000000
         C           -2.627522670444    -1.206075788423    -0.027990822194    12.000000000000
         C           -2.627527670444     1.206139211577    -0.025097822194    12.000000000000
         C           -4.781045670444    -0.000621788423     0.513536177806    12.000000000000
         H           -0.733544670444    -2.153599788423    -0.489073822194     1.007825032230
         H           -0.733552670444     2.154773211577    -0.483907822194     1.007825032230
         H           -3.157658670444    -2.149878788423     0.083751177806     1.007825032230
         H           -3.157666670444     2.149670211577     0.088908177806     1.007825032230
         H           -5.288421670444     0.885618211577     0.123134177806     1.007825032230
         H           -5.288434670444    -0.885883788423     0.120937177806     1.007825032230
         H           -4.900434270444    -0.001947188423     1.582280777806     1.007825032230

  Basis Set: AUG-CC-PVTZ
    Blend: AUG-CC-PVTZ
  Basis Set: (AUG-CC-PVTZ AUX)
    Blend: AUG-CC-PVTZ-JKFIT
	 Reference Energy          =   -1152.8305834800075900 [Eh]
	 Singles Energy            =      -0.0000000000000000 [Eh]
	 Same-Spin Energy          =      -0.7696808895352815 [Eh]
	 Opposite-Spin Energy      =      -2.2425664168535673 [Eh]
	 Correlation Energy        =      -3.0122473063888489 [Eh]
	 Total Energy              =   -1155.8428307863964619 [Eh]

	 ================> DF-SCS-MP2 Energies <==================
	-----------------------------------------------------------
	 SCS Same-Spin Scale       =       0.3333333333333333 [-]
	 SCS Opposite-Spin Scale   =       1.2000000000000000 [-]
	 SCS Same-Spin Energy      =      -0.2565602965117605 [Eh]
	 SCS Opposite-Spin Energy  =      -2.6910797002242806 [Eh]
	 SCS Correlation Energy    =      -2.9476399967360409 [Eh]
	 SCS Total Energy          =   -1155.7782234767437330 [Eh]
	-----------------------------------------------------------

  Dipole Moment: [D]
     X:    -5.4266      Y:    -0.0026      Z:     2.1410     Total:     5.8337

*** Psi4 exiting successfully. Buy a developer a beer!
