                               Psi4 1.4a3.dev225

  ==> Input File <==

--------------------------------------------------------------------------
#psi4
#
memory 32 gb

molecule  {
0 1
  S        1.2441830     0.0010390    -0.8590750
  F        1.5874080    -1.0933110     1.5061340
  F        3.3145200    -0.0009050     0.7339870
  F        1.5874370     1.0896860     1.5087600
  O        1.6276214    -1.3295620    -1.4719696
  O        1.6149580     1.2891350    -1.4486230
  C       -0.4817510     0.0005820    -0.4824320
  C       -1.1416100    -1.2204050    -0.3274150
  C       -1.1416150     1.2211910    -0.3244870
  C       -3.1954030    -0.0001810     0.1494170
  C        1.9826530    -0.0010090     0.8356960
  C       -2.4997500    -1.2060900    -0.0161970
  C       -2.4997550     1.2061250    -0.0133040
  C       -4.6532730    -0.0006360     0.5253300
  H       -0.6057720    -2.1536140    -0.4772800
  H       -0.6057800     2.1547590    -0.4721140
  H       -3.0298860    -2.1498930     0.0955450
  H       -3.0298940     2.1496560     0.1007020
  H       -5.1606490     0.8856040     0.1349280
  H       -5.1606620    -0.8858980     0.1327310
  H       -4.7748820    -0.0019860     1.6139510
units angstrom
no_reorient  #important for SAPT in psi4, default
symmetry c1  #important for SAPT in psi4, default
}

set PROPERTIES_ORIGIN ["COM"]
properties('MP2/aug-cc-pvtz', properties = ['dipole'])
--------------------------------------------------------------------------

    Molecular point group: c1
  Charge       = 0
  Multiplicity = 1
  Basis Set: AUG-CC-PVTZ
    Blend: AUG-CC-PVTZ
  Basis Set: (AUG-CC-PVTZ AUX)
    Blend: AUG-CC-PVTZ-JKFIT

    Orbital Energies [Eh]
    ---------------------

    Doubly Occupied:

       1A    -92.218916     2A    -26.373726     3A    -26.372685
       4A    -26.370177     5A    -20.577197     6A    -20.572647
       7A    -11.553432     8A    -11.295460     9A    -11.288574
      10A    -11.286169    11A    -11.285460    12A    -11.266134
      13A    -11.265824    14A    -11.253087    15A     -9.187296
      16A     -6.872124    17A     -6.871402    18A     -6.870790
      19A     -1.758403    20A     -1.666850    21A     -1.665609
      22A     -1.452958    23A     -1.343230    24A     -1.199129
      25A     -1.102247    26A     -1.054622    27A     -1.041294
      28A     -0.982019    29A     -0.919487    30A     -0.870766
      31A     -0.857731    32A     -0.852108    33A     -0.846254
      34A     -0.798022    35A     -0.743056    36A     -0.737948
      37A     -0.725489    38A     -0.696807    39A     -0.694474
      40A     -0.684382    41A     -0.679415    42A     -0.671061
      43A     -0.662771    44A     -0.641529    45A     -0.637414
      46A     -0.626079    47A     -0.605645    48A     -0.570460
      49A     -0.545286    50A     -0.533381    51A     -0.527010
      52A     -0.517463    53A     -0.510700    54A     -0.491296
      55A     -0.467987    56A     -0.375080    57A     -0.373200

  @DF-RHF Final Energy: -1152.82250828430256

   => Energetics <=

    Nuclear Repulsion Energy =           1099.9862634728226567
    One-Electron Energy =               -3775.7980150734920244
    Two-Electron Energy =                1522.9892433163670376
    Total Energy =                      -1152.8225082843025575
  Basis Set: (AUG-CC-PVTZ AUX)
    Blend: AUG-CC-PVTZ-RI
    Molecular point group: c1

    Geometry (in Angstrom), charge = 0, multiplicity = 1:

       Center              X                  Y                   Z               Mass
    ------------   -----------------  -----------------  -----------------  -----------------
         S            1.115516340194     0.004190301250    -0.869513310384    31.972071174400
         F            1.458741340194    -1.090159698750     1.495695689616    18.998403162730
         F            3.185853340194     0.002246301250     0.723548689616    18.998403162730
         F            1.458770340194     1.092837301250     1.498321689616    18.998403162730
         O            1.498954740194    -1.326410698750    -1.482407910384    15.994914619570
         O            1.486291340194     1.292286301250    -1.459061310384    15.994914619570
         C           -0.610417659806     0.003733301250    -0.492870310384    12.000000000000
         C           -1.270276659806    -1.217253698750    -0.337853310384    12.000000000000
         C           -1.270281659806     1.224342301250    -0.334925310384    12.000000000000
         C           -3.324069659806     0.002970301250     0.138978689616    12.000000000000
         C            1.853986340194     0.002142301250     0.825257689616    12.000000000000
         C           -2.628416659806    -1.202938698750    -0.026635310384    12.000000000000
         C           -2.628421659806     1.209276301250    -0.023742310384    12.000000000000
         C           -4.781939659806     0.002515301250     0.514891689616    12.000000000000
         H           -0.734438659806    -2.150462698750    -0.487718310384     1.007825032230
         H           -0.734446659806     2.157910301250    -0.482552310384     1.007825032230
         H           -3.158552659806    -2.146741698750     0.085106689616     1.007825032230
         H           -3.158560659806     2.152807301250     0.090263689616     1.007825032230
         H           -5.289315659806     0.888755301250     0.124489689616     1.007825032230
         H           -5.289328659806    -0.882746698750     0.122292689616     1.007825032230
         H           -4.903548659806     0.001165301250     1.603512689616     1.007825032230

  Basis Set: AUG-CC-PVTZ
    Blend: AUG-CC-PVTZ
  Basis Set: (AUG-CC-PVTZ AUX)
    Blend: AUG-CC-PVTZ-JKFIT
	 Reference Energy          =   -1152.8225082843025575 [Eh]
	 Singles Energy            =      -0.0000000000000000 [Eh]
	 Same-Spin Energy          =      -0.7707225942759841 [Eh]
	 Opposite-Spin Energy      =      -2.2453195522599398 [Eh]
	 Correlation Energy        =      -3.0160421465359240 [Eh]
	 Total Energy              =   -1155.8385504308384952 [Eh]

	 ================> DF-SCS-MP2 Energies <==================
	-----------------------------------------------------------
	 SCS Same-Spin Scale       =       0.3333333333333333 [-]
	 SCS Opposite-Spin Scale   =       1.2000000000000000 [-]
	 SCS Same-Spin Energy      =      -0.2569075314253280 [Eh]
	 SCS Opposite-Spin Energy  =      -2.6943834627119276 [Eh]
	 SCS Correlation Energy    =      -2.9512909941372558 [Eh]
	 SCS Total Energy          =   -1155.7737992784398102 [Eh]
	-----------------------------------------------------------

  Dipole Moment: [D]
     X:    -5.5293      Y:     0.1919      Z:     2.2701     Total:     5.9802

*** Psi4 exiting successfully. Buy a developer a beer!
