                               Psi4 1.4a3.dev225

  ==> Input File <==

--------------------------------------------------------------------------
#psi4
#
memory 32 gb

molecule  {
0 1
  S        1.2441830     0.0010390    -0.8590750
  F        1.5874080    -1.0933110     1.5061340
  F        3.3145200    -0.0009050     0.7339870
  F        1.5874370     1.0896860     1.5087600
  O        1.6149610    -1.2856280    -1.4517330
  O        1.6149580     1.2891350    -1.4486230
  C       -0.4817510     0.0005820    -0.4824320
  C       -1.1416100    -1.2204050    -0.3274150
  C       -1.1416150     1.2211910    -0.3244870
  C       -3.1954030    -0.0001810     0.1494170
  C        1.9826530    -0.0010090     0.8356960
  C       -2.4997500    -1.2060900    -0.0161970
  C       -2.4997550     1.2061250    -0.0133040
  C       -4.6532730    -0.0006360     0.5253300
  H       -0.6057720    -2.1536140    -0.4772800
  H       -0.6057800     2.1547590    -0.4721140
  H       -3.0298860    -2.1498930     0.0955450
  H       -2.9324647     1.9762532     0.0797499
  H       -5.1606490     0.8856040     0.1349280
  H       -5.1606620    -0.8858980     0.1327310
  H       -4.7748820    -0.0019860     1.6139510
units angstrom
no_reorient  #important for SAPT in psi4, default
symmetry c1  #important for SAPT in psi4, default
}

set PROPERTIES_ORIGIN ["COM"]
properties('MP2/aug-cc-pvtz', properties = ['dipole'])
--------------------------------------------------------------------------

    Molecular point group: c1
  Charge       = 0
  Multiplicity = 1
  Basis Set: AUG-CC-PVTZ
    Blend: AUG-CC-PVTZ
  Basis Set: (AUG-CC-PVTZ AUX)
    Blend: AUG-CC-PVTZ-JKFIT

    Orbital Energies [Eh]
    ---------------------

    Doubly Occupied:

       1A    -92.215582     2A    -26.371191     3A    -26.371152
       4A    -26.368566     5A    -20.573542     6A    -20.573462
       7A    -11.549712     8A    -11.292118     9A    -11.286374
      10A    -11.284321    11A    -11.283568    12A    -11.264020
      13A    -11.252731    14A    -11.241567    15A     -9.184292
      16A     -6.869150    17A     -6.868419    18A     -6.868137
      19A     -1.756576    20A     -1.664905    21A     -1.664031
      22A     -1.465364    23A     -1.357951    24A     -1.198990
      25A     -1.102013    26A     -1.060394    27A     -1.038724
      28A     -0.982298    29A     -0.917813    30A     -0.883796
      31A     -0.856510    32A     -0.850270    33A     -0.845026
      34A     -0.805223    35A     -0.744838    36A     -0.736399
      37A     -0.728425    38A     -0.695255    39A     -0.693329
      40A     -0.683490    41A     -0.682100    42A     -0.677776
      43A     -0.666859    44A     -0.651271    45A     -0.646554
      46A     -0.628162    47A     -0.605172    48A     -0.574269
      49A     -0.545723    50A     -0.532628    51A     -0.529987
      52A     -0.522639    53A     -0.514472    54A     -0.496707
      55A     -0.467855    56A     -0.373415    57A     -0.371846

  @DF-RHF Final Energy: -1152.79626195624337

   => Energetics <=

    Nuclear Repulsion Energy =           1103.8793920473301569
    One-Electron Energy =               -3783.4773874788975263
    Two-Electron Energy =                1526.8017334753237719
    Total Energy =                      -1152.7962619562433702
  Basis Set: (AUG-CC-PVTZ AUX)
    Blend: AUG-CC-PVTZ-RI
    Molecular point group: c1

    Geometry (in Angstrom), charge = 0, multiplicity = 1:

       Center              X                  Y                   Z               Mass
    ------------   -----------------  -----------------  -----------------  -----------------
         S            1.115981986602     0.001833458013    -0.870863982641    31.972071174400
         F            1.459206986602    -1.092516541987     1.494345017359    18.998403162730
         F            3.186318986602    -0.000110541987     0.722198017359    18.998403162730
         F            1.459235986602     1.090480458013     1.496971017359    18.998403162730
         O            1.486759986602    -1.284833541987    -1.463521982641    15.994914619570
         O            1.486756986602     1.289929458013    -1.460411982641    15.994914619570
         C           -0.609952013398     0.001376458013    -0.494220982641    12.000000000000
         C           -1.269811013398    -1.219610541987    -0.339203982641    12.000000000000
         C           -1.269816013398     1.221985458013    -0.336275982641    12.000000000000
         C           -3.323604013398     0.000613458013     0.137628017359    12.000000000000
         C            1.854451986602    -0.000214541987     0.823907017359    12.000000000000
         C           -2.627951013398    -1.205295541987    -0.027985982641    12.000000000000
         C           -2.627956013398     1.206919458013    -0.025092982641    12.000000000000
         C           -4.781474013398     0.000158458013     0.513541017359    12.000000000000
         H           -0.733973013398    -2.152819541987    -0.489068982641     1.007825032230
         H           -0.733981013398     2.155553458013    -0.483902982641     1.007825032230
         H           -3.158087013398    -2.149098541987     0.083756017359     1.007825032230
         H           -3.060665713398     1.977047658013     0.067960917359     1.007825032230
         H           -5.288850013398     0.886398458013     0.123139017359     1.007825032230
         H           -5.288863013398    -0.885103541987     0.120942017359     1.007825032230
         H           -4.903083013398    -0.001191541987     1.602162017359     1.007825032230

  Basis Set: AUG-CC-PVTZ
    Blend: AUG-CC-PVTZ
  Basis Set: (AUG-CC-PVTZ AUX)
    Blend: AUG-CC-PVTZ-JKFIT
	 Reference Energy          =   -1152.7962619562433702 [Eh]
	 Singles Energy            =      -0.0000000000000000 [Eh]
	 Same-Spin Energy          =      -0.7693960813594006 [Eh]
	 Opposite-Spin Energy      =      -2.2420555377158857 [Eh]
	 Correlation Energy        =      -3.0114516190752862 [Eh]
	 Total Energy              =   -1155.8077135753187576 [Eh]

	 ================> DF-SCS-MP2 Energies <==================
	-----------------------------------------------------------
	 SCS Same-Spin Scale       =       0.3333333333333333 [-]
	 SCS Opposite-Spin Scale   =       1.2000000000000000 [-]
	 SCS Same-Spin Energy      =      -0.2564653604531335 [Eh]
	 SCS Opposite-Spin Energy  =      -2.6904666452590629 [Eh]
	 SCS Correlation Energy    =      -2.9469320057121964 [Eh]
	 SCS Total Energy          =   -1155.7431939619555123 [Eh]
	-----------------------------------------------------------

  Dipole Moment: [D]
     X:    -5.4505      Y:     0.0116      Z:     2.1394     Total:     5.8554

*** Psi4 exiting successfully. Buy a developer a beer!
