                               Psi4 1.4a3.dev225

  ==> Input File <==

--------------------------------------------------------------------------
#psi4
#
memory 32 gb

molecule  {
0 1
  S        1.2441830     0.0010390    -0.8590750
  F        1.5874080    -1.0933110     1.5061340
  F        3.3145200    -0.0009050     0.7339870
  F        1.5874370     1.0896860     1.5087600
  O        1.5896402    -1.1977601    -1.4112597
  O        1.6149580     1.2891350    -1.4486230
  C       -0.4817510     0.0005820    -0.4824320
  C       -1.1416100    -1.2204050    -0.3274150
  C       -1.1416150     1.2211910    -0.3244870
  C       -3.1954030    -0.0001810     0.1494170
  C        1.9826530    -0.0010090     0.8356960
  C       -2.4997500    -1.2060900    -0.0161970
  C       -2.4997550     1.2061250    -0.0133040
  C       -4.6532730    -0.0006360     0.5253300
  H       -0.6057720    -2.1536140    -0.4772800
  H       -0.6057800     2.1547590    -0.4721140
  H       -3.0298860    -2.1498930     0.0955450
  H       -3.0298940     2.1496560     0.1007020
  H       -5.1606490     0.8856040     0.1349280
  H       -5.1606620    -0.8858980     0.1327310
  H       -4.7748820    -0.0019860     1.6139510
units angstrom
no_reorient  #important for SAPT in psi4, default
symmetry c1  #important for SAPT in psi4, default
}

set PROPERTIES_ORIGIN ["COM"]
properties('MP2/aug-cc-pvtz', properties = ['dipole'])
--------------------------------------------------------------------------

    Molecular point group: c1
  Charge       = 0
  Multiplicity = 1
  Basis Set: AUG-CC-PVTZ
    Blend: AUG-CC-PVTZ
  Basis Set: (AUG-CC-PVTZ AUX)
    Blend: AUG-CC-PVTZ-JKFIT

    Orbital Energies [Eh]
    ---------------------

    Doubly Occupied:

       1A    -92.205998     2A    -26.368659     3A    -26.366170
       4A    -26.365935     5A    -20.576891     6A    -20.566317
       7A    -11.542341     8A    -11.287450     9A    -11.285250
      10A    -11.282706    11A    -11.281062    12A    -11.263525
      13A    -11.262828    14A    -11.250957    15A     -9.177317
      16A     -6.862435    17A     -6.861779    18A     -6.860966
      19A     -1.753373    20A     -1.662010    21A     -1.660697
      22A     -1.511900    23A     -1.374752    24A     -1.195512
      25A     -1.097477    26A     -1.051409    27A     -1.034294
      28A     -0.978503    29A     -0.912327    30A     -0.867511
      31A     -0.855508    32A     -0.847047    33A     -0.842330
      34A     -0.794817    35A     -0.745665    36A     -0.733678
      37A     -0.726285    38A     -0.692999    39A     -0.690476
      40A     -0.684069    41A     -0.679863    42A     -0.674898
      43A     -0.671290    44A     -0.658169    45A     -0.642509
      46A     -0.623188    47A     -0.603483    48A     -0.568902
      49A     -0.549468    50A     -0.536574    51A     -0.529360
      52A     -0.523989    53A     -0.520865    54A     -0.503993
      55A     -0.466085    56A     -0.371483    57A     -0.370270

  @DF-RHF Final Energy: -1152.82982962259393

   => Energetics <=

    Nuclear Repulsion Energy =           1108.1715010470575180
    One-Electron Energy =               -3792.2514311714676296
    Two-Electron Energy =                1531.2501005018161777
    Total Energy =                      -1152.8298296225939339
  Basis Set: (AUG-CC-PVTZ AUX)
    Blend: AUG-CC-PVTZ-RI
    Molecular point group: c1

    Geometry (in Angstrom), charge = 0, multiplicity = 1:

       Center              X                  Y                   Z               Mass
    ------------   -----------------  -----------------  -----------------  -----------------
         S            1.118228276888    -0.005220628603    -0.873848123542    31.972071174400
         F            1.461453276888    -1.099570628603     1.491360876458    18.998403162730
         F            3.188565276888    -0.007164628603     0.719213876458    18.998403162730
         F            1.461482276888     1.083426371397     1.493986876458    18.998403162730
         O            1.463685476888    -1.204019728603    -1.426032823542    15.994914619570
         O            1.489003276888     1.282875371397    -1.463396123542    15.994914619570
         C           -0.607705723112    -0.005677628603    -0.497205123542    12.000000000000
         C           -1.267564723112    -1.226664628603    -0.342188123542    12.000000000000
         C           -1.267569723112     1.214931371397    -0.339260123542    12.000000000000
         C           -3.321357723112    -0.006440628603     0.134643876458    12.000000000000
         C            1.856698276888    -0.007268628603     0.820922876458    12.000000000000
         C           -2.625704723112    -1.212349628603    -0.030970123542    12.000000000000
         C           -2.625709723112     1.199865371397    -0.028077123542    12.000000000000
         C           -4.779227723112    -0.006895628603     0.510556876458    12.000000000000
         H           -0.731726723112    -2.159873628603    -0.492053123542     1.007825032230
         H           -0.731734723112     2.148499371397    -0.486887123542     1.007825032230
         H           -3.155840723112    -2.156152628603     0.080771876458     1.007825032230
         H           -3.155848723112     2.143396371397     0.085928876458     1.007825032230
         H           -5.286603723112     0.879344371397     0.120154876458     1.007825032230
         H           -5.286616723112    -0.892157628603     0.117957876458     1.007825032230
         H           -4.900836723112    -0.008245628603     1.599177876458     1.007825032230

  Basis Set: AUG-CC-PVTZ
    Blend: AUG-CC-PVTZ
  Basis Set: (AUG-CC-PVTZ AUX)
    Blend: AUG-CC-PVTZ-JKFIT
	 Reference Energy          =   -1152.8298296225939339 [Eh]
	 Singles Energy            =      -0.0000000000000000 [Eh]
	 Same-Spin Energy          =      -0.7671157311284924 [Eh]
	 Opposite-Spin Energy      =      -2.2367563627441926 [Eh]
	 Correlation Energy        =      -3.0038720938726851 [Eh]
	 Total Energy              =   -1155.8337017164665212 [Eh]

	 ================> DF-SCS-MP2 Energies <==================
	-----------------------------------------------------------
	 SCS Same-Spin Scale       =       0.3333333333333333 [-]
	 SCS Opposite-Spin Scale   =       1.2000000000000000 [-]
	 SCS Same-Spin Energy      =      -0.2557052437094974 [Eh]
	 SCS Opposite-Spin Energy  =      -2.6841076352930311 [Eh]
	 SCS Correlation Energy    =      -2.9398128790025284 [Eh]
	 SCS Total Energy          =   -1155.7696425015965360 [Eh]
	-----------------------------------------------------------

  Dipole Moment: [D]
     X:    -5.2080      Y:    -0.3908      Z:     1.8617     Total:     5.5446

*** Psi4 exiting successfully. Buy a developer a beer!
