                               Psi4 1.4a3.dev225

  ==> Input File <==

--------------------------------------------------------------------------
#psi4
#
memory 32 gb

molecule  {
0 1
  S        1.2343343     0.1856843    -0.8585924
  F        1.5874080    -1.0933110     1.5061340
  F        3.3145200    -0.0009050     0.7339870
  F        1.5874370     1.0896860     1.5087600
  O        1.6149610    -1.2856280    -1.4517330
  O        1.6149580     1.2891350    -1.4486230
  C       -0.4817510     0.0005820    -0.4824320
  C       -1.1416100    -1.2204050    -0.3274150
  C       -1.1416150     1.2211910    -0.3244870
  C       -3.1954030    -0.0001810     0.1494170
  C        1.9826530    -0.0010090     0.8356960
  C       -2.4997500    -1.2060900    -0.0161970
  C       -2.4997550     1.2061250    -0.0133040
  C       -4.6532730    -0.0006360     0.5253300
  H       -0.6057720    -2.1536140    -0.4772800
  H       -0.6057800     2.1547590    -0.4721140
  H       -3.0298860    -2.1498930     0.0955450
  H       -3.0298940     2.1496560     0.1007020
  H       -5.1606490     0.8856040     0.1349280
  H       -5.1606620    -0.8858980     0.1327310
  H       -4.7748820    -0.0019860     1.6139510
units angstrom
no_reorient  #important for SAPT in psi4, default
symmetry c1  #important for SAPT in psi4, default
}

set PROPERTIES_ORIGIN ["COM"]
properties('MP2/aug-cc-pvtz', properties = ['dipole'])
--------------------------------------------------------------------------

    Molecular point group: c1
  Charge       = 0
  Multiplicity = 1
  Basis Set: AUG-CC-PVTZ
    Blend: AUG-CC-PVTZ
  Basis Set: (AUG-CC-PVTZ AUX)
    Blend: AUG-CC-PVTZ-JKFIT

    Orbital Energies [Eh]
    ---------------------

    Doubly Occupied:

       1A    -92.204229     2A    -26.370592     3A    -26.369391
       4A    -26.367487     5A    -20.606667     6A    -20.537014
       7A    -11.548732     8A    -11.294011     9A    -11.287608
      10A    -11.285246    11A    -11.284403    12A    -11.265538
      13A    -11.265321    14A    -11.252523    15A     -9.179166
      16A     -6.864612    17A     -6.862777    18A     -6.861784
      19A     -1.755509    20A     -1.664768    21A     -1.662065
      22A     -1.553786    23A     -1.287493    24A     -1.197689
      25A     -1.100802    26A     -1.053922    27A     -1.035784
      28A     -0.981124    29A     -0.916488    30A     -0.871311
      31A     -0.857046    32A     -0.848878    33A     -0.843438
      34A     -0.799709    35A     -0.751892    36A     -0.736422
      37A     -0.729733    38A     -0.698065    39A     -0.693807
      40A     -0.690680    41A     -0.685849    42A     -0.678498
      43A     -0.676902    44A     -0.661061    45A     -0.646469
      46A     -0.625112    47A     -0.605183    48A     -0.570152
      49A     -0.557473    50A     -0.537810    51A     -0.527720
      52A     -0.520207    53A     -0.499266    54A     -0.459042
      55A     -0.443340    56A     -0.374674    57A     -0.371347

  @DF-RHF Final Energy: -1152.76832144605896

   => Energetics <=

    Nuclear Repulsion Energy =           1103.1230883136761349
    One-Electron Energy =               -3782.0275884224715810
    Two-Electron Energy =                1526.1361786627362562
    Total Energy =                      -1152.7683214460589625
  Basis Set: (AUG-CC-PVTZ AUX)
    Blend: AUG-CC-PVTZ-RI
    Molecular point group: c1

    Geometry (in Angstrom), charge = 0, multiplicity = 1:

       Center              X                  Y                   Z               Mass
    ------------   -----------------  -----------------  -----------------  -----------------
         S            1.107977273694     0.159345142524    -0.870544524754    31.972071174400
         F            1.461050973694    -1.119650157476     1.494181875246    18.998403162730
         F            3.188162973694    -0.027244157476     0.722034875246    18.998403162730
         F            1.461079973694     1.063346842524     1.496807875246    18.998403162730
         O            1.488603973694    -1.311967157476    -1.463685124754    15.994914619570
         O            1.488600973694     1.262795842524    -1.460575124754    15.994914619570
         C           -0.608108026306    -0.025757157476    -0.494384124754    12.000000000000
         C           -1.267967026306    -1.246744157476    -0.339367124754    12.000000000000
         C           -1.267972026306     1.194851842524    -0.336439124754    12.000000000000
         C           -3.321760026306    -0.026520157476     0.137464875246    12.000000000000
         C            1.856295973694    -0.027348157476     0.823743875246    12.000000000000
         C           -2.626107026306    -1.232429157476    -0.028149124754    12.000000000000
         C           -2.626112026306     1.179785842524    -0.025256124754    12.000000000000
         C           -4.779630026306    -0.026975157476     0.513377875246    12.000000000000
         H           -0.732129026306    -2.179953157476    -0.489232124754     1.007825032230
         H           -0.732137026306     2.128419842524    -0.484066124754     1.007825032230
         H           -3.156243026306    -2.176232157476     0.083592875246     1.007825032230
         H           -3.156251026306     2.123316842524     0.088749875246     1.007825032230
         H           -5.287006026306     0.859264842524     0.122975875246     1.007825032230
         H           -5.287019026306    -0.912237157476     0.120778875246     1.007825032230
         H           -4.901239026306    -0.028325157476     1.601998875246     1.007825032230

  Basis Set: AUG-CC-PVTZ
    Blend: AUG-CC-PVTZ
  Basis Set: (AUG-CC-PVTZ AUX)
    Blend: AUG-CC-PVTZ-JKFIT
	 Reference Energy          =   -1152.7683214460589625 [Eh]
	 Singles Energy            =      -0.0000000000000000 [Eh]
	 Same-Spin Energy          =      -0.7683889756402732 [Eh]
	 Opposite-Spin Energy      =      -2.2415240283116500 [Eh]
	 Correlation Energy        =      -3.0099130039519233 [Eh]
	 Total Energy              =   -1155.7782344500108138 [Eh]

	 ================> DF-SCS-MP2 Energies <==================
	-----------------------------------------------------------
	 SCS Same-Spin Scale       =       0.3333333333333333 [-]
	 SCS Opposite-Spin Scale   =       1.2000000000000000 [-]
	 SCS Same-Spin Energy      =      -0.2561296585467577 [Eh]
	 SCS Opposite-Spin Energy  =      -2.6898288339739800 [Eh]
	 SCS Correlation Energy    =      -2.9459584925207376 [Eh]
	 SCS Total Energy          =   -1155.7142799385796934 [Eh]
	-----------------------------------------------------------

  Dipole Moment: [D]
     X:    -5.5579      Y:     1.4547      Z:     2.2236     Total:     6.1604

*** Psi4 exiting successfully. Buy a developer a beer!
