                               Psi4 1.4a3.dev225

  ==> Input File <==

--------------------------------------------------------------------------
#psi4
#
memory 32 gb

molecule  {
0 1
  S        1.2441830     0.0010390    -0.8590750
  F        1.5874080    -1.0933110     1.5061340
  F        3.3145200    -0.0009050     0.7339870
  F        1.5874370     1.0896860     1.5087600
  O        1.6149610    -1.2856280    -1.4517330
  O        1.6149580     1.2891350    -1.4486230
  C       -0.4817510     0.0005820    -0.4824320
  C       -1.1416100    -1.2204050    -0.3274150
  C       -1.1416150     1.2211910    -0.3244870
  C       -3.1954030    -0.0001810     0.1494170
  C        1.9826530    -0.0010090     0.8356960
  C       -2.4997500    -1.2060900    -0.0161970
  C       -2.4997550     1.2061250    -0.0133040
  C       -4.6532730    -0.0006360     0.5253300
  H       -0.6057720    -2.1536140    -0.4772800
  H       -0.6057800     2.1547590    -0.4721140
  H       -3.0298860    -2.1498930     0.0955450
  H       -3.0786087     2.2363574     0.1111781
  H       -5.1606490     0.8856040     0.1349280
  H       -5.1606620    -0.8858980     0.1327310
  H       -4.7748820    -0.0019860     1.6139510
units angstrom
no_reorient  #important for SAPT in psi4, default
symmetry c1  #important for SAPT in psi4, default
}

set PROPERTIES_ORIGIN ["COM"]
properties('MP2/aug-cc-pvtz', properties = ['dipole'])
--------------------------------------------------------------------------

    Molecular point group: c1
  Charge       = 0
  Multiplicity = 1
  Basis Set: AUG-CC-PVTZ
    Blend: AUG-CC-PVTZ
  Basis Set: (AUG-CC-PVTZ AUX)
    Blend: AUG-CC-PVTZ-JKFIT

    Orbital Energies [Eh]
    ---------------------

    Doubly Occupied:

       1A    -92.216494     2A    -26.371620     3A    -26.371585
       4A    -26.369037     5A    -20.574253     6A    -20.574195
       7A    -11.550292     8A    -11.293649     9A    -11.288549
      10A    -11.285541    11A    -11.284975    12A    -11.276057
      13A    -11.265857    14A    -11.252300    15A     -9.185180
      16A     -6.870040    17A     -6.869315    18A     -6.869022
      19A     -1.757018    20A     -1.665327    21A     -1.664474
      22A     -1.466079    23A     -1.358637    24A     -1.198205
      25A     -1.100709    26A     -1.052031    27A     -1.039282
      28A     -0.980636    29A     -0.917280    30A     -0.866231
      31A     -0.857074    32A     -0.850699    33A     -0.845145
      34A     -0.793998    35A     -0.742616    36A     -0.736768
      37A     -0.724942    38A     -0.695648    39A     -0.693335
      40A     -0.684297    41A     -0.678204    42A     -0.669799
      43A     -0.665961    44A     -0.647365    45A     -0.634592
      46A     -0.618895    47A     -0.604890    48A     -0.566978
      49A     -0.545787    50A     -0.533030    51A     -0.524087
      52A     -0.520997    53A     -0.514509    54A     -0.497379
      55A     -0.468091    56A     -0.374530    57A     -0.372818

  @DF-RHF Final Energy: -1152.82310351863043

   => Energetics <=

    Nuclear Repulsion Energy =           1102.0466142257125739
    One-Electron Energy =               -3779.9468292797159847
    Two-Electron Energy =                1525.0771115353732057
    Total Energy =                      -1152.8231035186304325
  Basis Set: (AUG-CC-PVTZ AUX)
    Blend: AUG-CC-PVTZ-RI
    Molecular point group: c1

    Geometry (in Angstrom), charge = 0, multiplicity = 1:

       Center              X                  Y                   Z               Mass
    ------------   -----------------  -----------------  -----------------  -----------------
         S            1.116639485562     0.000663254372    -0.871005377490    31.972071174400
         F            1.459864485562    -1.093686745628     1.494203622510    18.998403162730
         F            3.186976485562    -0.001280745628     0.722056622510    18.998403162730
         F            1.459893485562     1.089310254372     1.496829622510    18.998403162730
         O            1.487417485562    -1.286003745628    -1.463663377490    15.994914619570
         O            1.487414485562     1.288759254372    -1.460553377490    15.994914619570
         C           -0.609294514438     0.000206254372    -0.494362377490    12.000000000000
         C           -1.269153514438    -1.220780745628    -0.339345377490    12.000000000000
         C           -1.269158514438     1.220815254372    -0.336417377490    12.000000000000
         C           -3.322946514438    -0.000556745628     0.137486622510    12.000000000000
         C            1.855109485562    -0.001384745628     0.823765622510    12.000000000000
         C           -2.627293514438    -1.206465745628    -0.028127377490    12.000000000000
         C           -2.627298514438     1.205749254372    -0.025234377490    12.000000000000
         C           -4.780816514438    -0.001011745628     0.513399622510    12.000000000000
         H           -0.733315514438    -2.153989745628    -0.489210377490     1.007825032230
         H           -0.733323514438     2.154383254372    -0.484044377490     1.007825032230
         H           -3.157429514438    -2.150268745628     0.083614622510     1.007825032230
         H           -3.206152214438     2.235981654372     0.099247722510     1.007825032230
         H           -5.288192514438     0.885228254372     0.122997622510     1.007825032230
         H           -5.288205514438    -0.886273745628     0.120800622510     1.007825032230
         H           -4.902425514438    -0.002361745628     1.602020622510     1.007825032230

  Basis Set: AUG-CC-PVTZ
    Blend: AUG-CC-PVTZ
  Basis Set: (AUG-CC-PVTZ AUX)
    Blend: AUG-CC-PVTZ-JKFIT
	 Reference Energy          =   -1152.8231035186304325 [Eh]
	 Singles Energy            =      -0.0000000000000000 [Eh]
	 Same-Spin Energy          =      -0.7699537377700491 [Eh]
	 Opposite-Spin Energy      =      -2.2436686462310060 [Eh]
	 Correlation Energy        =      -3.0136223840010552 [Eh]
	 Total Energy              =   -1155.8367259026315423 [Eh]

	 ================> DF-SCS-MP2 Energies <==================
	-----------------------------------------------------------
	 SCS Same-Spin Scale       =       0.3333333333333333 [-]
	 SCS Opposite-Spin Scale   =       1.2000000000000000 [-]
	 SCS Same-Spin Energy      =      -0.2566512459233496 [Eh]
	 SCS Opposite-Spin Energy  =      -2.6924023754772071 [Eh]
	 SCS Correlation Energy    =      -2.9490536214005569 [Eh]
	 SCS Total Energy          =   -1155.7721571400309131 [Eh]
	-----------------------------------------------------------

  Dipole Moment: [D]
     X:    -5.3952      Y:    -0.0276      Z:     2.1307     Total:     5.8008

*** Psi4 exiting successfully. Buy a developer a beer!
