                               Psi4 1.4a3.dev225

  ==> Input File <==

--------------------------------------------------------------------------
#psi4
#
memory 32 gb

molecule  {
0 1
  S        1.2441830     0.0010390    -0.8590750
  F        1.5874080    -1.0933110     1.5061340
  F        3.3145200    -0.0009050     0.7339870
  F        1.5874370     1.0896860     1.5087600
  O        1.6149610    -1.2856280    -1.4517330
  O        1.6149580     1.2891350    -1.4486230
  C       -0.4817510     0.0005820    -0.4824320
  C       -1.1416100    -1.2204050    -0.3274150
  C       -1.1416150     1.2211910    -0.3244870
  C       -3.1954030    -0.0001810     0.1494170
  C        1.9826530    -0.0010090     0.8356960
  C       -2.4997500    -1.2060900    -0.0161970
  C       -2.4997550     1.2061250    -0.0133040
  C       -4.6532730    -0.0006360     0.5253300
  H       -0.6057720    -2.1536140    -0.4772800
  H       -0.6057800     2.1547590    -0.4721140
  H       -3.0298860    -2.1498930     0.0955450
  H       -3.0298940     2.1496560     0.1007020
  H       -5.1606490     0.8856040     0.1349280
  H       -5.1606620    -0.8858980     0.1327310
  H       -4.7526783    -0.0017395     1.4151875
units angstrom
no_reorient  #important for SAPT in psi4, default
symmetry c1  #important for SAPT in psi4, default
}

set PROPERTIES_ORIGIN ["COM"]
properties('MP2/aug-cc-pvtz', properties = ['dipole'])
--------------------------------------------------------------------------

    Molecular point group: c1
  Charge       = 0
  Multiplicity = 1
  Basis Set: AUG-CC-PVTZ
    Blend: AUG-CC-PVTZ
  Basis Set: (AUG-CC-PVTZ AUX)
    Blend: AUG-CC-PVTZ-JKFIT

    Orbital Energies [Eh]
    ---------------------

    Doubly Occupied:

       1A    -92.216001     2A    -26.371359     3A    -26.371337
       4A    -26.368777     5A    -20.573818     6A    -20.573799
       7A    -11.549975     8A    -11.292846     9A    -11.286569
      10A    -11.284455    11A    -11.284353    12A    -11.264812
      13A    -11.264772    14A    -11.228300    15A     -9.184699
      16A     -6.869558    17A     -6.868831    18A     -6.868542
      19A     -1.756763    20A     -1.665077    21A     -1.664222
      22A     -1.465668    23A     -1.358238    24A     -1.198166
      25A     -1.104804    26A     -1.053381    27A     -1.042229
      28A     -0.994296    29A     -0.921697    30A     -0.869441
      31A     -0.859166    32A     -0.850449    33A     -0.846340
      34A     -0.797120    35A     -0.743404    36A     -0.736528
      37A     -0.726904    38A     -0.695361    39A     -0.693483
      40A     -0.683480    41A     -0.677951    42A     -0.673610
      43A     -0.666838    44A     -0.647599    45A     -0.646869
      46A     -0.629656    47A     -0.624977    48A     -0.568684
      49A     -0.545884    50A     -0.536633    51A     -0.525892
      52A     -0.522583    53A     -0.514643    54A     -0.496976
      55A     -0.467872    56A     -0.375562    57A     -0.372062

  @DF-RHF Final Energy: -1152.79692436810751

   => Energetics <=

    Nuclear Repulsion Energy =           1103.6038577026286021
    One-Electron Energy =               -3782.9149447939912534
    Two-Electron Energy =                1526.5141627232549126
    Total Energy =                      -1152.7969243681075113
  Basis Set: (AUG-CC-PVTZ AUX)
    Blend: AUG-CC-PVTZ-RI
    Molecular point group: c1

    Geometry (in Angstrom), charge = 0, multiplicity = 1:

       Center              X                  Y                   Z               Mass
    ------------   -----------------  -----------------  -----------------  -----------------
         S            1.116320425085     0.001052213254    -0.870064012676    31.972071174400
         F            1.459545425085    -1.093297786746     1.495144987324    18.998403162730
         F            3.186657425085    -0.000891786746     0.722997987324    18.998403162730
         F            1.459574425085     1.089699213254     1.497770987324    18.998403162730
         O            1.487098425085    -1.285614786746    -1.462722012676    15.994914619570
         O            1.487095425085     1.289148213254    -1.459612012676    15.994914619570
         C           -0.609613574915     0.000595213254    -0.493421012676    12.000000000000
         C           -1.269472574915    -1.220391786746    -0.338404012676    12.000000000000
         C           -1.269477574915     1.221204213254    -0.335476012676    12.000000000000
         C           -3.323265574915    -0.000167786746     0.138427987324    12.000000000000
         C            1.854790425085    -0.000995786746     0.824706987324    12.000000000000
         C           -2.627612574915    -1.206076786746    -0.027186012676    12.000000000000
         C           -2.627617574915     1.206138213254    -0.024293012676    12.000000000000
         C           -4.781135574915    -0.000622786746     0.514340987324    12.000000000000
         H           -0.733634574915    -2.153600786746    -0.488269012676     1.007825032230
         H           -0.733642574915     2.154772213254    -0.483103012676     1.007825032230
         H           -3.157748574915    -2.149879786746     0.084555987324     1.007825032230
         H           -3.157756574915     2.149669213254     0.089712987324     1.007825032230
         H           -5.288511574915     0.885617213254     0.123938987324     1.007825032230
         H           -5.288524574915    -0.885884786746     0.121741987324     1.007825032230
         H           -4.880540874915    -0.001726286746     1.404198487324     1.007825032230

  Basis Set: AUG-CC-PVTZ
    Blend: AUG-CC-PVTZ
  Basis Set: (AUG-CC-PVTZ AUX)
    Blend: AUG-CC-PVTZ-JKFIT
	 Reference Energy          =   -1152.7969243681075113 [Eh]
	 Singles Energy            =      -0.0000000000000000 [Eh]
	 Same-Spin Energy          =      -0.7697761417390977 [Eh]
	 Opposite-Spin Energy      =      -2.2420800225070061 [Eh]
	 Correlation Energy        =      -3.0118561642461037 [Eh]
	 Total Energy              =   -1155.8087805323536941 [Eh]

	 ================> DF-SCS-MP2 Energies <==================
	-----------------------------------------------------------
	 SCS Same-Spin Scale       =       0.3333333333333333 [-]
	 SCS Opposite-Spin Scale   =       1.2000000000000000 [-]
	 SCS Same-Spin Energy      =      -0.2565920472463659 [Eh]
	 SCS Opposite-Spin Energy  =      -2.6904960270084071 [Eh]
	 SCS Correlation Energy    =      -2.9470880742547729 [Eh]
	 SCS Total Energy          =   -1155.7440124423621910 [Eh]
	-----------------------------------------------------------

  Dipole Moment: [D]
     X:    -5.4425      Y:    -0.0026      Z:     2.1665     Total:     5.8578

*** Psi4 exiting successfully. Buy a developer a beer!
