                               Psi4 1.4a3.dev225

  ==> Input File <==

--------------------------------------------------------------------------
#psi4
#
memory 32 gb

molecule  {
0 1
  S        1.2441830     0.0010390    -0.8590750
  F        1.5874080    -1.0933110     1.5061340
  F        3.3145200    -0.0009050     0.7339870
  F        1.5874370     1.0896860     1.5087600
  O        1.6149610    -1.2856280    -1.4517330
  O        1.6149580     1.2891350    -1.4486230
  C       -0.4817510     0.0005820    -0.4824320
  C       -1.1416100    -1.2204050    -0.3274150
  C       -1.1416150     1.2211910    -0.3244870
  C       -3.1954030    -0.0001810     0.1494170
  C        1.9826530    -0.0010090     0.8356960
  C       -2.4997500    -1.2060900    -0.0161970
  C       -2.4997550     1.2061250    -0.0133040
  C       -4.6532730    -0.0006360     0.5253300
  H       -0.6057720    -2.1536140    -0.4772800
  H       -0.6057800     2.1547590    -0.4721140
  H       -3.0298860    -2.1498930     0.0955450
  H       -3.0298940     2.1496560     0.1007020
  H       -5.2534660     1.0477287     0.0635096
  H       -5.1606620    -0.8858980     0.1327310
  H       -4.7748820    -0.0019860     1.6139510
units angstrom
no_reorient  #important for SAPT in psi4, default
symmetry c1  #important for SAPT in psi4, default
}

set PROPERTIES_ORIGIN ["COM"]
properties('MP2/aug-cc-pvtz', properties = ['dipole'])
--------------------------------------------------------------------------

    Molecular point group: c1
  Charge       = 0
  Multiplicity = 1
  Basis Set: AUG-CC-PVTZ
    Blend: AUG-CC-PVTZ
  Basis Set: (AUG-CC-PVTZ AUX)
    Blend: AUG-CC-PVTZ-JKFIT

    Orbital Energies [Eh]
    ---------------------

    Doubly Occupied:

       1A    -92.216592     2A    -26.371821     3A    -26.371780
       4A    -26.369202     5A    -20.574366     6A    -20.574345
       7A    -11.550471     8A    -11.293795     9A    -11.289472
      10A    -11.285546    11A    -11.284934    12A    -11.274608
      13A    -11.266803    14A    -11.265559    15A     -9.185291
      16A     -6.870150    17A     -6.869425    18A     -6.869132
      19A     -1.757205    20A     -1.665527    21A     -1.664649
      22A     -1.466219    23A     -1.358775    24A     -1.198731
      25A     -1.099952    26A     -1.054369    27A     -1.038369
      28A     -0.974840    29A     -0.914649    30A     -0.870236
      31A     -0.855975    32A     -0.850891    33A     -0.844327
      34A     -0.797144    35A     -0.743263    36A     -0.736959
      37A     -0.725780    38A     -0.695738    39A     -0.693525
      40A     -0.682959    41A     -0.678368    42A     -0.671106
      43A     -0.666746    44A     -0.646795    45A     -0.639091
      46A     -0.625775    47A     -0.602860    48A     -0.553171
      49A     -0.541852    50A     -0.532288    51A     -0.523167
      52A     -0.518436    53A     -0.512859    54A     -0.497282
      55A     -0.468520    56A     -0.374432    57A     -0.372866

  @DF-RHF Final Energy: -1152.81016108878794

   => Energetics <=

    Nuclear Repulsion Energy =           1101.7785792323300029
    One-Electron Energy =               -3779.3795012546775069
    Two-Electron Energy =                1524.7907609335597954
    Total Energy =                      -1152.8101610887879360
  Basis Set: (AUG-CC-PVTZ AUX)
    Blend: AUG-CC-PVTZ-RI
    Molecular point group: c1

    Geometry (in Angstrom), charge = 0, multiplicity = 1:

       Center              X                  Y                   Z               Mass
    ------------   -----------------  -----------------  -----------------  -----------------
         S            1.116837900935     0.000323926440    -0.870636935757    31.972071174400
         F            1.460062900935    -1.094026073560     1.494572064243    18.998403162730
         F            3.187174900935    -0.001620073560     0.722425064243    18.998403162730
         F            1.460091900935     1.088970926440     1.497198064243    18.998403162730
         O            1.487615900935    -1.286343073560    -1.463294935757    15.994914619570
         O            1.487612900935     1.288419926440    -1.460184935757    15.994914619570
         C           -0.609096099065    -0.000133073560    -0.493993935757    12.000000000000
         C           -1.268955099065    -1.221120073560    -0.338976935757    12.000000000000
         C           -1.268960099065     1.220475926440    -0.336048935757    12.000000000000
         C           -3.322748099065    -0.000896073560     0.137855064243    12.000000000000
         C            1.855307900935    -0.001724073560     0.824134064243    12.000000000000
         C           -2.627095099065    -1.206805073560    -0.027758935757    12.000000000000
         C           -2.627100099065     1.205409926440    -0.024865935757    12.000000000000
         C           -4.780618099065    -0.001351073560     0.513768064243    12.000000000000
         H           -0.733117099065    -2.154329073560    -0.488841935757     1.007825032230
         H           -0.733125099065     2.154043926440    -0.483675935757     1.007825032230
         H           -3.157231099065    -2.150608073560     0.083983064243     1.007825032230
         H           -3.157239099065     2.148940926440     0.089140064243     1.007825032230
         H           -5.380811099065     1.047013626440     0.051947664243     1.007825032230
         H           -5.288007099065    -0.886613073560     0.121169064243     1.007825032230
         H           -4.902227099065    -0.002701073560     1.602389064243     1.007825032230

  Basis Set: AUG-CC-PVTZ
    Blend: AUG-CC-PVTZ
  Basis Set: (AUG-CC-PVTZ AUX)
    Blend: AUG-CC-PVTZ-JKFIT
	 Reference Energy          =   -1152.8101610887879360 [Eh]
	 Singles Energy            =      -0.0000000000000000 [Eh]
	 Same-Spin Energy          =      -0.7697735296051491 [Eh]
	 Opposite-Spin Energy      =      -2.2444075000211079 [Eh]
	 Correlation Energy        =      -3.0141810296262568 [Eh]
	 Total Energy              =   -1155.8243421184142790 [Eh]

	 ================> DF-SCS-MP2 Energies <==================
	-----------------------------------------------------------
	 SCS Same-Spin Scale       =       0.3333333333333333 [-]
	 SCS Opposite-Spin Scale   =       1.2000000000000000 [-]
	 SCS Same-Spin Energy      =      -0.2565911765350497 [Eh]
	 SCS Opposite-Spin Energy  =      -2.6932890000253296 [Eh]
	 SCS Correlation Energy    =      -2.9498801765603790 [Eh]
	 SCS Total Energy          =   -1155.7600412653482636 [Eh]
	-----------------------------------------------------------

  Dipole Moment: [D]
     X:    -5.3168      Y:    -0.0730      Z:     2.1504     Total:     5.7357

*** Psi4 exiting successfully. Buy a developer a beer!
