                               Psi4 1.4a3.dev225

  ==> Input File <==

--------------------------------------------------------------------------
#psi4
#
memory 32 gb

molecule  {
0 1
  S        1.2441830     0.0010390    -0.8590750
  F        1.5874080    -1.0933110     1.5061340
  F        3.3145200    -0.0009050     0.7339870
  F        1.5874370     1.0896860     1.5087600
  O        1.6386093    -1.2604465    -1.4894035
  O        1.6149580     1.2891350    -1.4486230
  C       -0.4817510     0.0005820    -0.4824320
  C       -1.1416100    -1.2204050    -0.3274150
  C       -1.1416150     1.2211910    -0.3244870
  C       -3.1954030    -0.0001810     0.1494170
  C        1.9826530    -0.0010090     0.8356960
  C       -2.4997500    -1.2060900    -0.0161970
  C       -2.4997550     1.2061250    -0.0133040
  C       -4.6532730    -0.0006360     0.5253300
  H       -0.6057720    -2.1536140    -0.4772800
  H       -0.6057800     2.1547590    -0.4721140
  H       -3.0298860    -2.1498930     0.0955450
  H       -3.0298940     2.1496560     0.1007020
  H       -5.1606490     0.8856040     0.1349280
  H       -5.1606620    -0.8858980     0.1327310
  H       -4.7748820    -0.0019860     1.6139510
units angstrom
no_reorient  #important for SAPT in psi4, default
symmetry c1  #important for SAPT in psi4, default
}

set PROPERTIES_ORIGIN ["COM"]
properties('MP2/aug-cc-pvtz', properties = ['dipole'])
--------------------------------------------------------------------------

    Molecular point group: c1
  Charge       = 0
  Multiplicity = 1
  Basis Set: AUG-CC-PVTZ
    Blend: AUG-CC-PVTZ
  Basis Set: (AUG-CC-PVTZ AUX)
    Blend: AUG-CC-PVTZ-JKFIT

    Orbital Energies [Eh]
    ---------------------

    Doubly Occupied:

       1A    -92.215498     2A    -26.372281     3A    -26.372207
       4A    -26.369253     5A    -20.573477     6A    -20.570826
       7A    -11.551037     8A    -11.294120     9A    -11.288145
      10A    -11.285560    11A    -11.285320    12A    -11.265800
      13A    -11.265731    14A    -11.252846    15A     -9.184286
      16A     -6.869140    17A     -6.868373    18A     -6.868149
      19A     -1.757497    20A     -1.665956    21A     -1.664780
      22A     -1.464995    23A     -1.355340    24A     -1.198833
      25A     -1.101711    26A     -1.054334    27A     -1.039955
      28A     -0.981479    29A     -0.917822    30A     -0.870456
      31A     -0.857320    32A     -0.851216    33A     -0.845572
      34A     -0.797078    35A     -0.742993    36A     -0.737240
      37A     -0.725793    38A     -0.696086    39A     -0.693742
      40A     -0.684210    41A     -0.678622    42A     -0.671848
      43A     -0.666662    44A     -0.645337    45A     -0.639102
      46A     -0.625853    47A     -0.605424    48A     -0.570380
      49A     -0.546298    50A     -0.533371    51A     -0.526816
      52A     -0.520250    53A     -0.514570    54A     -0.494466
      55A     -0.468626    56A     -0.374654    57A     -0.372974

  @DF-RHF Final Energy: -1152.83065789126454

   => Energetics <=

    Nuclear Repulsion Energy =           1102.1051052118348252
    One-Electron Energy =               -3780.0481063621200519
    Two-Electron Energy =                1525.1123432590209177
    Total Energy =                      -1152.8306578912645364
  Basis Set: (AUG-CC-PVTZ AUX)
    Blend: AUG-CC-PVTZ-RI
    Molecular point group: c1

    Geometry (in Angstrom), charge = 0, multiplicity = 1:

       Center              X                  Y                   Z               Mass
    ------------   -----------------  -----------------  -----------------  -----------------
         S            1.114731781275    -0.000744689234    -0.868268493656    31.972071174400
         F            1.457956781275    -1.095094689234     1.496940506344    18.998403162730
         F            3.185068781275    -0.002688689234     0.724793506344    18.998403162730
         F            1.457985781275     1.087902310766     1.499566506344    18.998403162730
         O            1.509158081275    -1.262230189234    -1.498596993656    15.994914619570
         O            1.485506781275     1.287351310766    -1.457816493656    15.994914619570
         C           -0.611202218725    -0.001201689234    -0.491625493656    12.000000000000
         C           -1.271061218725    -1.222188689234    -0.336608493656    12.000000000000
         C           -1.271066218725     1.219407310766    -0.333680493656    12.000000000000
         C           -3.324854218725    -0.001964689234     0.140223506344    12.000000000000
         C            1.853201781275    -0.002792689234     0.826502506344    12.000000000000
         C           -2.629201218725    -1.207873689234    -0.025390493656    12.000000000000
         C           -2.629206218725     1.204341310766    -0.022497493656    12.000000000000
         C           -4.782724218725    -0.002419689234     0.516136506344    12.000000000000
         H           -0.735223218725    -2.155397689234    -0.486473493656     1.007825032230
         H           -0.735231218725     2.152975310766    -0.481307493656     1.007825032230
         H           -3.159337218725    -2.151676689234     0.086351506344     1.007825032230
         H           -3.159345218725     2.147872310766     0.091508506344     1.007825032230
         H           -5.290100218725     0.883820310766     0.125734506344     1.007825032230
         H           -5.290113218725    -0.887681689234     0.123537506344     1.007825032230
         H           -4.904333218725    -0.003769689234     1.604757506344     1.007825032230

  Basis Set: AUG-CC-PVTZ
    Blend: AUG-CC-PVTZ
  Basis Set: (AUG-CC-PVTZ AUX)
    Blend: AUG-CC-PVTZ-JKFIT
	 Reference Energy          =   -1152.8306578912645364 [Eh]
	 Singles Energy            =      -0.0000000000000000 [Eh]
	 Same-Spin Energy          =      -0.7695444896066045 [Eh]
	 Opposite-Spin Energy      =      -2.2424645781247525 [Eh]
	 Correlation Energy        =      -3.0120090677313569 [Eh]
	 Total Energy              =   -1155.8426669589960056 [Eh]

	 ================> DF-SCS-MP2 Energies <==================
	-----------------------------------------------------------
	 SCS Same-Spin Scale       =       0.3333333333333333 [-]
	 SCS Opposite-Spin Scale   =       1.2000000000000000 [-]
	 SCS Same-Spin Energy      =      -0.2565148298688681 [Eh]
	 SCS Opposite-Spin Energy  =      -2.6909574937497029 [Eh]
	 SCS Correlation Energy    =      -2.9474723236185709 [Eh]
	 SCS Total Energy          =   -1155.7781302148830491 [Eh]
	-----------------------------------------------------------

  Dipole Moment: [D]
     X:    -5.4990      Y:    -0.0536      Z:     2.2275     Total:     5.9332

*** Psi4 exiting successfully. Buy a developer a beer!
