                               Psi4 1.4a3.dev225

  ==> Input File <==

--------------------------------------------------------------------------
#psi4
#
memory 32 gb

molecule  {
0 1
  S        1.2441830     0.0010390    -0.8590750
  F        1.5874080    -1.0933110     1.5061340
  F        3.3145200    -0.0009050     0.7339870
  F        1.5874370     1.0896860     1.5087600
  O        1.6149610    -1.2856280    -1.4517330
  O        1.6149580     1.2891350    -1.4486230
  C       -0.3840503     0.0006079    -0.5037528
  C       -1.1416100    -1.2204050    -0.3274150
  C       -1.1416150     1.2211910    -0.3244870
  C       -3.1954030    -0.0001810     0.1494170
  C        1.9826530    -0.0010090     0.8356960
  C       -2.4997500    -1.2060900    -0.0161970
  C       -2.4997550     1.2061250    -0.0133040
  C       -4.6532730    -0.0006360     0.5253300
  H       -0.6057720    -2.1536140    -0.4772800
  H       -0.6057800     2.1547590    -0.4721140
  H       -3.0298860    -2.1498930     0.0955450
  H       -3.0298940     2.1496560     0.1007020
  H       -5.1606490     0.8856040     0.1349280
  H       -5.1606620    -0.8858980     0.1327310
  H       -4.7748820    -0.0019860     1.6139510
units angstrom
no_reorient  #important for SAPT in psi4, default
symmetry c1  #important for SAPT in psi4, default
}

set PROPERTIES_ORIGIN ["COM"]
properties('MP2/aug-cc-pvtz', properties = ['dipole'])
--------------------------------------------------------------------------

    Molecular point group: c1
  Charge       = 0
  Multiplicity = 1
  Basis Set: AUG-CC-PVTZ
    Blend: AUG-CC-PVTZ
  Basis Set: (AUG-CC-PVTZ AUX)
    Blend: AUG-CC-PVTZ-JKFIT

    Orbital Energies [Eh]
    ---------------------

    Doubly Occupied:

       1A    -92.213762     2A    -26.369188     3A    -26.369167
       4A    -26.365973     5A    -20.570481     6A    -20.570462
       7A    -11.546508     8A    -11.295816     9A    -11.295746
      10A    -11.295738    11A    -11.290213    12A    -11.266525
      13A    -11.266493    14A    -11.256348    15A     -9.183198
      16A     -6.868119    17A     -6.867607    18A     -6.867057
      19A     -1.754456    20A     -1.662971    21A     -1.661763
      22A     -1.466099    23A     -1.356175    24A     -1.192166
      25A     -1.107292    26A     -1.050848    27A     -1.038564
      28A     -0.988363    29A     -0.917770    30A     -0.865223
      31A     -0.861683    32A     -0.848214    33A     -0.845588
      34A     -0.795054    35A     -0.741148    36A     -0.734579
      37A     -0.724158    38A     -0.693824    39A     -0.691046
      40A     -0.683714    41A     -0.675760    42A     -0.675754
      43A     -0.666789    44A     -0.645053    45A     -0.641250
      46A     -0.617851    47A     -0.608095    48A     -0.571469
      49A     -0.547877    50A     -0.528883    51A     -0.523626
      52A     -0.515488    53A     -0.515182    54A     -0.494275
      55A     -0.474294    56A     -0.374619    57A     -0.372989

  @DF-RHF Final Energy: -1152.81908390498074

   => Energetics <=

    Nuclear Repulsion Energy =           1103.6618840282401379
    One-Electron Energy =               -3783.1852377294990220
    Two-Electron Energy =                1526.7042697962783677
    Total Energy =                      -1152.8190839049807437
  Basis Set: (AUG-CC-PVTZ AUX)
    Blend: AUG-CC-PVTZ-RI
    Molecular point group: c1

    Geometry (in Angstrom), charge = 0, multiplicity = 1:

       Center              X                  Y                   Z               Mass
    ------------   -----------------  -----------------  -----------------  -----------------
         S            1.111186630713     0.001051934826    -0.869816120609    31.972071174400
         F            1.454411630713    -1.093298065174     1.495392879391    18.998403162730
         F            3.181523630713    -0.000892065174     0.723245879391    18.998403162730
         F            1.454440630713     1.089698934826     1.498018879391    18.998403162730
         O            1.481964630713    -1.285615065174    -1.462474120609    15.994914619570
         O            1.481961630713     1.289147934826    -1.459364120609    15.994914619570
         C           -0.517046669287     0.000620834826    -0.514493920609    12.000000000000
         C           -1.274606369287    -1.220392065174    -0.338156120609    12.000000000000
         C           -1.274611369287     1.221203934826    -0.335228120609    12.000000000000
         C           -3.328399369287    -0.000168065174     0.138675879391    12.000000000000
         C            1.849656630713    -0.000996065174     0.824954879391    12.000000000000
         C           -2.632746369287    -1.206077065174    -0.026938120609    12.000000000000
         C           -2.632751369287     1.206137934826    -0.024045120609    12.000000000000
         C           -4.786269369287    -0.000623065174     0.514588879391    12.000000000000
         H           -0.738768369287    -2.153601065174    -0.488021120609     1.007825032230
         H           -0.738776369287     2.154771934826    -0.482855120609     1.007825032230
         H           -3.162882369287    -2.149880065174     0.084803879391     1.007825032230
         H           -3.162890369287     2.149668934826     0.089960879391     1.007825032230
         H           -5.293645369288     0.885616934826     0.124186879391     1.007825032230
         H           -5.293658369288    -0.885885065174     0.121989879391     1.007825032230
         H           -4.907878369287    -0.001973065174     1.603209879391     1.007825032230

  Basis Set: AUG-CC-PVTZ
    Blend: AUG-CC-PVTZ
  Basis Set: (AUG-CC-PVTZ AUX)
    Blend: AUG-CC-PVTZ-JKFIT
	 Reference Energy          =   -1152.8190839049807437 [Eh]
	 Singles Energy            =      -0.0000000000000000 [Eh]
	 Same-Spin Energy          =      -0.7699314831106755 [Eh]
	 Opposite-Spin Energy      =      -2.2433217914674257 [Eh]
	 Correlation Energy        =      -3.0132532745781013 [Eh]
	 Total Energy              =   -1155.8323371795588628 [Eh]

	 ================> DF-SCS-MP2 Energies <==================
	-----------------------------------------------------------
	 SCS Same-Spin Scale       =       0.3333333333333333 [-]
	 SCS Opposite-Spin Scale   =       1.2000000000000000 [-]
	 SCS Same-Spin Energy      =      -0.2566438277035585 [Eh]
	 SCS Opposite-Spin Energy  =      -2.6919861497609108 [Eh]
	 SCS Correlation Energy    =      -2.9486299774644693 [Eh]
	 SCS Total Energy          =   -1155.7677138824451504 [Eh]
	-----------------------------------------------------------

  Dipole Moment: [D]
     X:    -5.8106      Y:    -0.0027      Z:     2.2089     Total:     6.2163

*** Psi4 exiting successfully. Buy a developer a beer!
