                               Psi4 1.4a3.dev225

  ==> Input File <==

--------------------------------------------------------------------------
#psi4
#
memory 32 gb

molecule  {
0 1
  S        1.2441830     0.0010390    -0.8590750
  F        1.5874080    -1.0933110     1.5061340
  F        3.3145200    -0.0009050     0.7339870
  F        1.5874370     1.0896860     1.5087600
  O        1.6023006    -1.2416940    -1.4314964
  O        1.6149580     1.2891350    -1.4486230
  C       -0.4817510     0.0005820    -0.4824320
  C       -1.1416100    -1.2204050    -0.3274150
  C       -1.1416150     1.2211910    -0.3244870
  C       -3.1954030    -0.0001810     0.1494170
  C        1.9826530    -0.0010090     0.8356960
  C       -2.4997500    -1.2060900    -0.0161970
  C       -2.4997550     1.2061250    -0.0133040
  C       -4.6532730    -0.0006360     0.5253300
  H       -0.6057720    -2.1536140    -0.4772800
  H       -0.6057800     2.1547590    -0.4721140
  H       -3.0298860    -2.1498930     0.0955450
  H       -3.0298940     2.1496560     0.1007020
  H       -5.1606490     0.8856040     0.1349280
  H       -5.1606620    -0.8858980     0.1327310
  H       -4.7748820    -0.0019860     1.6139510
units angstrom
no_reorient  #important for SAPT in psi4, default
symmetry c1  #important for SAPT in psi4, default
}

set PROPERTIES_ORIGIN ["COM"]
properties('MP2/aug-cc-pvtz', properties = ['dipole'])
--------------------------------------------------------------------------

    Molecular point group: c1
  Charge       = 0
  Multiplicity = 1
  Basis Set: AUG-CC-PVTZ
    Blend: AUG-CC-PVTZ
  Basis Set: (AUG-CC-PVTZ AUX)
    Blend: AUG-CC-PVTZ-JKFIT

    Orbital Energies [Eh]
    ---------------------

    Doubly Occupied:

       1A    -92.211793     2A    -26.370049     3A    -26.368864
       4A    -26.367401     5A    -20.575370     6A    -20.570245
       7A    -11.546314     8A    -11.290310     9A    -11.286422
      10A    -11.283674    11A    -11.282878    12A    -11.264326
      13A    -11.263987    14A    -11.251706    15A     -9.181420
      16A     -6.866224    17A     -6.865817    18A     -6.865334
      19A     -1.755123    20A     -1.663475    21A     -1.662652
      22A     -1.485454    23A     -1.368850    24A     -1.196796
      25A     -1.099099    26A     -1.052535    27A     -1.036671
      28A     -0.979678    29A     -0.914768    30A     -0.868632
      31A     -0.856043    32A     -0.848797    33A     -0.843714
      34A     -0.795742    35A     -0.743676    36A     -0.735141
      37A     -0.726041    38A     -0.694087    39A     -0.691833
      40A     -0.683642    41A     -0.676489    42A     -0.673575
      43A     -0.669794    44A     -0.652743    45A     -0.640459
      46A     -0.624225    47A     -0.604243    48A     -0.569439
      49A     -0.546914    50A     -0.532706    51A     -0.528352
      52A     -0.524696    53A     -0.518219    54A     -0.501476
      55A     -0.467331    56A     -0.372759    57A     -0.371314

  @DF-RHF Final Energy: -1152.83370954729389

   => Energetics <=

    Nuclear Repulsion Energy =           1105.3159657231080928
    One-Electron Energy =               -3786.5207224497121388
    Two-Electron Energy =                1528.3710471793101533
    Total Energy =                      -1152.8337095472938927
  Basis Set: (AUG-CC-PVTZ AUX)
    Blend: AUG-CC-PVTZ-RI
    Molecular point group: c1

    Geometry (in Angstrom), charge = 0, multiplicity = 1:

       Center              X                  Y                   Z               Mass
    ------------   -----------------  -----------------  -----------------  -----------------
         S            1.117324297990    -0.002083656745    -0.872403181062    31.972071174400
         F            1.460549297990    -1.096433656745     1.492805818938    18.998403162730
         F            3.187661297990    -0.004027656745     0.720658818938    18.998403162730
         F            1.460578297990     1.086563343255     1.495431818938    18.998403162730
         O            1.475441897990    -1.244816656745    -1.444824581062    15.994914619570
         O            1.488099297990     1.286012343255    -1.461951181062    15.994914619570
         C           -0.608609702010    -0.002540656745    -0.495760181062    12.000000000000
         C           -1.268468702010    -1.223527656745    -0.340743181062    12.000000000000
         C           -1.268473702010     1.218068343255    -0.337815181062    12.000000000000
         C           -3.322261702010    -0.003303656745     0.136088818938    12.000000000000
         C            1.855794297990    -0.004131656745     0.822367818938    12.000000000000
         C           -2.626608702010    -1.209212656745    -0.029525181062    12.000000000000
         C           -2.626613702010     1.203002343255    -0.026632181062    12.000000000000
         C           -4.780131702010    -0.003758656745     0.512001818938    12.000000000000
         H           -0.732630702010    -2.156736656745    -0.490608181062     1.007825032230
         H           -0.732638702010     2.151636343255    -0.485442181062     1.007825032230
         H           -3.156744702010    -2.153015656745     0.082216818938     1.007825032230
         H           -3.156752702010     2.146533343255     0.087373818938     1.007825032230
         H           -5.287507702010     0.882481343255     0.121599818938     1.007825032230
         H           -5.287520702010    -0.889020656745     0.119402818938     1.007825032230
         H           -4.901740702010    -0.005108656745     1.600622818938     1.007825032230

  Basis Set: AUG-CC-PVTZ
    Blend: AUG-CC-PVTZ
  Basis Set: (AUG-CC-PVTZ AUX)
    Blend: AUG-CC-PVTZ-JKFIT
	 Reference Energy          =   -1152.8337095472938927 [Eh]
	 Singles Energy            =      -0.0000000000000000 [Eh]
	 Same-Spin Energy          =      -0.7684560195167957 [Eh]
	 Opposite-Spin Energy      =      -2.2397916986181086 [Eh]
	 Correlation Energy        =      -3.0082477181349043 [Eh]
	 Total Energy              =   -1155.8419572654288459 [Eh]

	 ================> DF-SCS-MP2 Energies <==================
	-----------------------------------------------------------
	 SCS Same-Spin Scale       =       0.3333333333333333 [-]
	 SCS Opposite-Spin Scale   =       1.2000000000000000 [-]
	 SCS Same-Spin Energy      =      -0.2561520065055986 [Eh]
	 SCS Opposite-Spin Energy  =      -2.6877500383417301 [Eh]
	 SCS Correlation Energy    =      -2.9439020448473285 [Eh]
	 SCS Total Energy          =   -1155.7776115921412838 [Eh]
	-----------------------------------------------------------

  Dipole Moment: [D]
     X:    -5.3156      Y:    -0.1960      Z:     1.9995     Total:     5.6826

*** Psi4 exiting successfully. Buy a developer a beer!
