                               Psi4 1.4a3.dev225

  ==> Input File <==

--------------------------------------------------------------------------
#psi4
#
memory 32 gb

molecule  {
0 1
  S        1.2441830     0.0010390    -0.8590750
  F        1.5874080    -1.0933110     1.5061340
  F        3.3145200    -0.0009050     0.7339870
  F        1.5874370     1.0896860     1.5087600
  O        1.6149610    -1.2856280    -1.4517330
  O        1.6149580     1.2891350    -1.4486230
  C       -0.2863496     0.0006337    -0.5250736
  C       -1.1416100    -1.2204050    -0.3274150
  C       -1.1416150     1.2211910    -0.3244870
  C       -3.1954030    -0.0001810     0.1494170
  C        1.9826530    -0.0010090     0.8356960
  C       -2.4997500    -1.2060900    -0.0161970
  C       -2.4997550     1.2061250    -0.0133040
  C       -4.6532730    -0.0006360     0.5253300
  H       -0.6057720    -2.1536140    -0.4772800
  H       -0.6057800     2.1547590    -0.4721140
  H       -3.0298860    -2.1498930     0.0955450
  H       -3.0298940     2.1496560     0.1007020
  H       -5.1606490     0.8856040     0.1349280
  H       -5.1606620    -0.8858980     0.1327310
  H       -4.7748820    -0.0019860     1.6139510
units angstrom
no_reorient  #important for SAPT in psi4, default
symmetry c1  #important for SAPT in psi4, default
}

set PROPERTIES_ORIGIN ["COM"]
properties('MP2/aug-cc-pvtz', properties = ['dipole'])
--------------------------------------------------------------------------

    Molecular point group: c1
  Charge       = 0
  Multiplicity = 1
  Basis Set: AUG-CC-PVTZ
    Blend: AUG-CC-PVTZ
  Basis Set: (AUG-CC-PVTZ AUX)
    Blend: AUG-CC-PVTZ-JKFIT

    Orbital Energies [Eh]
    ---------------------

    Doubly Occupied:

       1A    -92.205108     2A    -26.365223     3A    -26.365202
       4A    -26.360595     5A    -20.563806     6A    -20.563788
       7A    -11.539812     8A    -11.309305     9A    -11.309304
      10A    -11.306555    11A    -11.286452    12A    -11.269876
      13A    -11.269847    14A    -11.261917    15A     -9.176358
      16A     -6.861550    17A     -6.860746    18A     -6.860090
      19A     -1.750113    20A     -1.659100    21A     -1.657088
      22A     -1.464463    23A     -1.351084    24A     -1.190258
      25A     -1.117028    26A     -1.051533    27A     -1.038301
      28A     -0.994460    29A     -0.918579    30A     -0.866044
      31A     -0.862586    32A     -0.844034    33A     -0.842279
      34A     -0.792808    35A     -0.737659    36A     -0.730911
      37A     -0.721298    38A     -0.691597    39A     -0.687300
      40A     -0.683543    41A     -0.681497    42A     -0.671609
      43A     -0.665260    44A     -0.642316    45A     -0.642181
      46A     -0.614680    47A     -0.613006    48A     -0.573979
      49A     -0.553084    50A     -0.527286    51A     -0.520865
      52A     -0.512553    53A     -0.504650    54A     -0.487011
      55A     -0.473882    56A     -0.376578    57A     -0.375932

  @DF-RHF Final Energy: -1152.78289429807910

   => Energetics <=

    Nuclear Repulsion Energy =           1105.0255488162597430
    One-Electron Energy =               -3785.9689480675765481
    Two-Electron Energy =                1528.1605049532377052
    Total Energy =                      -1152.7828942980790998
  Basis Set: (AUG-CC-PVTZ AUX)
    Blend: AUG-CC-PVTZ-RI
    Molecular point group: c1

    Geometry (in Angstrom), charge = 0, multiplicity = 1:

       Center              X                  Y                   Z               Mass
    ------------   -----------------  -----------------  -----------------  -----------------
         S            1.105952942333     0.001050552756    -0.868673995494    31.972071174400
         F            1.449177942333    -1.093299447244     1.496535004506    18.998403162730
         F            3.176289942333    -0.000893447244     0.724388004506    18.998403162730
         F            1.449206942333     1.089697552756     1.499161004506    18.998403162730
         O            1.476730942333    -1.285616447244    -1.461331995494    15.994914619570
         O            1.476727942333     1.289146552756    -1.458221995494    15.994914619570
         C           -0.424579657667     0.000645252756    -0.534672595494    12.000000000000
         C           -1.279840057667    -1.220393447244    -0.337013995494    12.000000000000
         C           -1.279845057667     1.221202552756    -0.334085995494    12.000000000000
         C           -3.333633057667    -0.000169447244     0.139818004506    12.000000000000
         C            1.844422942333    -0.000997447244     0.826097004506    12.000000000000
         C           -2.637980057667    -1.206078447244    -0.025795995494    12.000000000000
         C           -2.637985057667     1.206136552756    -0.022902995494    12.000000000000
         C           -4.791503057667    -0.000624447244     0.515731004506    12.000000000000
         H           -0.744002057667    -2.153602447244    -0.486878995494     1.007825032230
         H           -0.744010057667     2.154770552756    -0.481712995494     1.007825032230
         H           -3.168116057667    -2.149881447244     0.085946004506     1.007825032230
         H           -3.168124057667     2.149667552756     0.091103004506     1.007825032230
         H           -5.298879057667     0.885615552756     0.125329004506     1.007825032230
         H           -5.298892057667    -0.885886447244     0.123132004506     1.007825032230
         H           -4.913112057667    -0.001974447244     1.604352004506     1.007825032230

  Basis Set: AUG-CC-PVTZ
    Blend: AUG-CC-PVTZ
  Basis Set: (AUG-CC-PVTZ AUX)
    Blend: AUG-CC-PVTZ-JKFIT
	 Reference Energy          =   -1152.7828942980790998 [Eh]
	 Singles Energy            =      -0.0000000000000000 [Eh]
	 Same-Spin Energy          =      -0.7707666456610206 [Eh]
	 Opposite-Spin Energy      =      -2.2451914975623097 [Eh]
	 Correlation Energy        =      -3.0159581432233304 [Eh]
	 Total Energy              =   -1155.7988524413024152 [Eh]

	 ================> DF-SCS-MP2 Energies <==================
	-----------------------------------------------------------
	 SCS Same-Spin Scale       =       0.3333333333333333 [-]
	 SCS Opposite-Spin Scale   =       1.2000000000000000 [-]
	 SCS Same-Spin Energy      =      -0.2569222152203402 [Eh]
	 SCS Opposite-Spin Energy  =      -2.6942297970747715 [Eh]
	 SCS Correlation Energy    =      -2.9511520122951116 [Eh]
	 SCS Total Energy          =   -1155.7340463103741968 [Eh]
	-----------------------------------------------------------

  Dipole Moment: [D]
     X:    -6.3546      Y:    -0.0028      Z:     2.3058     Total:     6.7600

*** Psi4 exiting successfully. Buy a developer a beer!
