                               Psi4 1.4a3.dev225

  ==> Input File <==

--------------------------------------------------------------------------
#psi4
#
memory 32 gb

molecule  {
0 1
  S        1.2441830     0.0010390    -0.8590750
  F        1.5874080    -1.0933110     1.5061340
  F        3.3145200    -0.0009050     0.7339870
  F        1.5874370     1.0896860     1.5087600
  O        1.6149610    -1.2856280    -1.4517330
  O        1.6149580     1.2891350    -1.4486230
  C       -0.5794517     0.0005561    -0.4611112
  C       -1.1416100    -1.2204050    -0.3274150
  C       -1.1416150     1.2211910    -0.3244870
  C       -3.1954030    -0.0001810     0.1494170
  C        1.9826530    -0.0010090     0.8356960
  C       -2.4997500    -1.2060900    -0.0161970
  C       -2.4997550     1.2061250    -0.0133040
  C       -4.6532730    -0.0006360     0.5253300
  H       -0.6057720    -2.1536140    -0.4772800
  H       -0.6057800     2.1547590    -0.4721140
  H       -3.0298860    -2.1498930     0.0955450
  H       -3.0298940     2.1496560     0.1007020
  H       -5.1606490     0.8856040     0.1349280
  H       -5.1606620    -0.8858980     0.1327310
  H       -4.7748820    -0.0019860     1.6139510
units angstrom
no_reorient  #important for SAPT in psi4, default
symmetry c1  #important for SAPT in psi4, default
}

set PROPERTIES_ORIGIN ["COM"]
properties('MP2/aug-cc-pvtz', properties = ['dipole'])
--------------------------------------------------------------------------

    Molecular point group: c1
  Charge       = 0
  Multiplicity = 1
  Basis Set: AUG-CC-PVTZ
    Blend: AUG-CC-PVTZ
  Basis Set: (AUG-CC-PVTZ AUX)
    Blend: AUG-CC-PVTZ-JKFIT

    Orbital Energies [Eh]
    ---------------------

    Doubly Occupied:

       1A    -92.212389     2A    -26.371891     3A    -26.371869
       4A    -26.369227     5A    -20.574054     6A    -20.574035
       7A    -11.550490     8A    -11.296057     9A    -11.281981
      10A    -11.276704    11A    -11.276627    12A    -11.265770
      13A    -11.265721    14A    -11.250155    15A     -9.181200
      16A     -6.865946    17A     -6.865024    18A     -6.864944
      19A     -1.757211    20A     -1.665580    21A     -1.664664
      22A     -1.463107    23A     -1.357526    24A     -1.207779
      25A     -1.096910    26A     -1.060327    27A     -1.038089
      28A     -0.974117    29A     -0.915811    30A     -0.875672
      31A     -0.854033    32A     -0.850911    33A     -0.840423
      34A     -0.797955    35A     -0.743276    36A     -0.736885
      37A     -0.726357    38A     -0.695646    39A     -0.693593
      40A     -0.685904    41A     -0.678441    42A     -0.668307
      43A     -0.664273    44A     -0.648116    45A     -0.635158
      46A     -0.634620    47A     -0.603807    48A     -0.569382
      49A     -0.545509    50A     -0.540184    51A     -0.532009
      52A     -0.522497    53A     -0.510988    54A     -0.496798
      55A     -0.454152    56A     -0.374707    57A     -0.373958

  @DF-RHF Final Energy: -1152.82129366070899

   => Energetics <=

    Nuclear Repulsion Energy =           1101.7587678792299357
    One-Electron Energy =               -3779.4225867843010747
    Two-Electron Energy =                1524.8425252443619229
    Total Energy =                      -1152.8212936607089887
  Basis Set: (AUG-CC-PVTZ AUX)
    Blend: AUG-CC-PVTZ-RI
    Molecular point group: c1

    Geometry (in Angstrom), charge = 0, multiplicity = 1:

       Center              X                  Y                   Z               Mass
    ------------   -----------------  -----------------  -----------------  -----------------
         S            1.121654007471     0.001054709679    -0.872100370838    31.972071174400
         F            1.464879007471    -1.093295290321     1.493108629162    18.998403162730
         F            3.191991007471    -0.000889290321     0.720961629162    18.998403162730
         F            1.464908007471     1.089701709679     1.495734629162    18.998403162730
         O            1.492432007471    -1.285612290321    -1.464758370838    15.994914619570
         O            1.492429007471     1.289150709679    -1.461648370838    15.994914619570
         C           -0.701980692529     0.000571809679    -0.474136570838    12.000000000000
         C           -1.264138992529    -1.220389290321    -0.340440370838    12.000000000000
         C           -1.264143992529     1.221206709679    -0.337512370838    12.000000000000
         C           -3.317931992529    -0.000165290321     0.136391629162    12.000000000000
         C            1.860124007471    -0.000993290321     0.822670629162    12.000000000000
         C           -2.622278992529    -1.206074290321    -0.029222370838    12.000000000000
         C           -2.622283992529     1.206140709679    -0.026329370838    12.000000000000
         C           -4.775801992529    -0.000620290321     0.512304629162    12.000000000000
         H           -0.728300992529    -2.153598290321    -0.490305370838     1.007825032230
         H           -0.728308992529     2.154774709679    -0.485139370838     1.007825032230
         H           -3.152414992529    -2.149877290321     0.082519629162     1.007825032230
         H           -3.152422992529     2.149671709679     0.087676629162     1.007825032230
         H           -5.283177992529     0.885619709679     0.121902629162     1.007825032230
         H           -5.283190992529    -0.885882290321     0.119705629162     1.007825032230
         H           -4.897410992529    -0.001970290321     1.600925629162     1.007825032230

  Basis Set: AUG-CC-PVTZ
    Blend: AUG-CC-PVTZ
  Basis Set: (AUG-CC-PVTZ AUX)
    Blend: AUG-CC-PVTZ-JKFIT
	 Reference Energy          =   -1152.8212936607089887 [Eh]
	 Singles Energy            =      -0.0000000000000000 [Eh]
	 Same-Spin Energy          =      -0.7700804385471512 [Eh]
	 Opposite-Spin Energy      =      -2.2432360973944174 [Eh]
	 Correlation Energy        =      -3.0133165359415686 [Eh]
	 Total Energy              =   -1155.8346101966506012 [Eh]

	 ================> DF-SCS-MP2 Energies <==================
	-----------------------------------------------------------
	 SCS Same-Spin Scale       =       0.3333333333333333 [-]
	 SCS Opposite-Spin Scale   =       1.2000000000000000 [-]
	 SCS Same-Spin Energy      =      -0.2566934795157171 [Eh]
	 SCS Opposite-Spin Energy  =      -2.6918833168733007 [Eh]
	 SCS Correlation Energy    =      -2.9485767963890179 [Eh]
	 SCS Total Energy          =   -1155.7698704570980226 [Eh]
	-----------------------------------------------------------

  Dipole Moment: [D]
     X:    -5.2189      Y:    -0.0025      Z:     2.0879     Total:     5.6210

*** Psi4 exiting successfully. Buy a developer a beer!
