                               Psi4 1.4a3.dev225

  ==> Input File <==

--------------------------------------------------------------------------
#psi4
#
memory 32 gb

molecule  {
0 1
  S        1.2441830     0.0010390    -0.8590750
  F        1.5874080    -1.0933110     1.5061340
  F        3.3145200    -0.0009050     0.7339870
  F        1.5874370     1.0896860     1.5087600
  O        1.6149610    -1.2856280    -1.4517330
  O        1.6149580     1.2891350    -1.4486230
  C       -0.4817510     0.0005820    -0.4824320
  C       -1.1416100    -1.2204050    -0.3274150
  C       -1.1416150     1.2211910    -0.3244870
  C       -3.1954030    -0.0001810     0.1494170
  C        1.9826530    -0.0010090     0.8356960
  C       -2.4997500    -1.2060900    -0.0161970
  C       -2.4997550     1.2061250    -0.0133040
  C       -4.6532730    -0.0006360     0.5253300
  H       -0.6057720    -2.1536140    -0.4772800
  H       -0.6057800     2.1547590    -0.4721140
  H       -2.9324572    -1.9764401     0.0750090
  H       -3.0298940     2.1496560     0.1007020
  H       -5.1606490     0.8856040     0.1349280
  H       -5.1606620    -0.8858980     0.1327310
  H       -4.7748820    -0.0019860     1.6139510
units angstrom
no_reorient  #important for SAPT in psi4, default
symmetry c1  #important for SAPT in psi4, default
}

set PROPERTIES_ORIGIN ["COM"]
properties('MP2/aug-cc-pvtz', properties = ['dipole'])
--------------------------------------------------------------------------

    Molecular point group: c1
  Charge       = 0
  Multiplicity = 1
  Basis Set: AUG-CC-PVTZ
    Blend: AUG-CC-PVTZ
  Basis Set: (AUG-CC-PVTZ AUX)
    Blend: AUG-CC-PVTZ-JKFIT

    Orbital Energies [Eh]
    ---------------------

    Doubly Occupied:

       1A    -92.215582     2A    -26.371191     3A    -26.371152
       4A    -26.368566     5A    -20.573541     6A    -20.573462
       7A    -11.549712     8A    -11.292118     9A    -11.286374
      10A    -11.284321    11A    -11.283568    12A    -11.264020
      13A    -11.252731    14A    -11.241567    15A     -9.184292
      16A     -6.869150    17A     -6.868419    18A     -6.868137
      19A     -1.756576    20A     -1.664905    21A     -1.664031
      22A     -1.465364    23A     -1.357951    24A     -1.198990
      25A     -1.102013    26A     -1.060394    27A     -1.038724
      28A     -0.982298    29A     -0.917813    30A     -0.883796
      31A     -0.856510    32A     -0.850270    33A     -0.845026
      34A     -0.805223    35A     -0.744839    36A     -0.736399
      37A     -0.728424    38A     -0.695255    39A     -0.693329
      40A     -0.683490    41A     -0.682100    42A     -0.677776
      43A     -0.666859    44A     -0.651271    45A     -0.646554
      46A     -0.628162    47A     -0.605172    48A     -0.574269
      49A     -0.545723    50A     -0.532628    51A     -0.529987
      52A     -0.522639    53A     -0.514472    54A     -0.496707
      55A     -0.467855    56A     -0.373415    57A     -0.371846

  @DF-RHF Final Energy: -1152.79626168405753

   => Energetics <=

    Nuclear Repulsion Energy =           1103.8793932505525390
    One-Electron Energy =               -3783.4773893540755125
    Two-Electron Energy =                1526.8017344194652196
    Total Energy =                      -1152.7962616840575265
  Basis Set: (AUG-CC-PVTZ AUX)
    Blend: AUG-CC-PVTZ-RI
    Molecular point group: c1

    Geometry (in Angstrom), charge = 0, multiplicity = 1:

       Center              X                  Y                   Z               Mass
    ------------   -----------------  -----------------  -----------------  -----------------
         S            1.115981988851     0.000272961092    -0.870865854666    31.972071174400
         F            1.459206988851    -1.094077038908     1.494343145334    18.998403162730
         F            3.186318988851    -0.001671038908     0.722196145334    18.998403162730
         F            1.459235988851     1.088919961092     1.496969145334    18.998403162730
         O            1.486759988851    -1.286394038908    -1.463523854666    15.994914619570
         O            1.486756988851     1.288368961092    -1.460413854666    15.994914619570
         C           -0.609952011149    -0.000184038908    -0.494222854666    12.000000000000
         C           -1.269811011149    -1.221171038908    -0.339205854666    12.000000000000
         C           -1.269816011149     1.220424961092    -0.336277854666    12.000000000000
         C           -3.323604011149    -0.000947038908     0.137626145334    12.000000000000
         C            1.854451988851    -0.001775038908     0.823905145334    12.000000000000
         C           -2.627951011149    -1.206856038908    -0.027987854666    12.000000000000
         C           -2.627956011149     1.205358961092    -0.025094854666    12.000000000000
         C           -4.781474011149    -0.001402038908     0.513539145334    12.000000000000
         H           -0.733973011149    -2.154380038908    -0.489070854666     1.007825032230
         H           -0.733981011149     2.153992961092    -0.483904854666     1.007825032230
         H           -3.060658211149    -1.977206138908     0.063218145334     1.007825032230
         H           -3.158095011149     2.148889961092     0.088911145334     1.007825032230
         H           -5.288850011149     0.884837961092     0.123137145334     1.007825032230
         H           -5.288863011149    -0.886664038908     0.120940145334     1.007825032230
         H           -4.903083011149    -0.002752038908     1.602160145334     1.007825032230

  Basis Set: AUG-CC-PVTZ
    Blend: AUG-CC-PVTZ
  Basis Set: (AUG-CC-PVTZ AUX)
    Blend: AUG-CC-PVTZ-JKFIT
	 Reference Energy          =   -1152.7962616840575265 [Eh]
	 Singles Energy            =      -0.0000000000000000 [Eh]
	 Same-Spin Energy          =      -0.7693960864858658 [Eh]
	 Opposite-Spin Energy      =      -2.2420555578881673 [Eh]
	 Correlation Energy        =      -3.0114516443740333 [Eh]
	 Total Energy              =   -1155.8077133284316460 [Eh]

	 ================> DF-SCS-MP2 Energies <==================
	-----------------------------------------------------------
	 SCS Same-Spin Scale       =       0.3333333333333333 [-]
	 SCS Opposite-Spin Scale   =       1.2000000000000000 [-]
	 SCS Same-Spin Energy      =      -0.2564653621619553 [Eh]
	 SCS Opposite-Spin Energy  =      -2.6904666694658008 [Eh]
	 SCS Correlation Energy    =      -2.9469320316277559 [Eh]
	 SCS Total Energy          =   -1155.7431937156852655 [Eh]
	-----------------------------------------------------------

  Dipole Moment: [D]
     X:    -5.4505      Y:    -0.0168      Z:     2.1393     Total:     5.8554

*** Psi4 exiting successfully. Buy a developer a beer!
