                               Psi4 1.4a3.dev225

  ==> Input File <==

--------------------------------------------------------------------------
#psi4
#
memory 32 gb

molecule  {
0 1
  S        1.2441830     0.0010390    -0.8590750
  F        1.5874080    -1.0933110     1.5061340
  F        3.3145200    -0.0009050     0.7339870
  F        1.5874370     1.0896860     1.5087600
  O        1.6149610    -1.2856280    -1.4517330
  O        1.6149580     1.2891350    -1.4486230
  C       -0.4817510     0.0005820    -0.4824320
  C       -1.1416100    -1.2204050    -0.3274150
  C       -1.1416150     1.2211910    -0.3244870
  C       -3.1954030    -0.0001810     0.1494170
  C        1.9826530    -0.0010090     0.8356960
  C       -2.4997500    -1.2060900    -0.0161970
  C       -2.4997550     1.2061250    -0.0133040
  C       -4.6532730    -0.0006360     0.5253300
  H       -0.6057720    -2.1536140    -0.4772800
  H       -0.6057800     2.1547590    -0.4721140
  H       -3.0298860    -2.1498930     0.0955450
  H       -3.0298940     2.1496560     0.1007020
  H       -5.1838533     0.9261352     0.1170734
  H       -5.1606620    -0.8858980     0.1327310
  H       -4.7748820    -0.0019860     1.6139510
units angstrom
no_reorient  #important for SAPT in psi4, default
symmetry c1  #important for SAPT in psi4, default
}

set PROPERTIES_ORIGIN ["COM"]
properties('MP2/aug-cc-pvtz', properties = ['dipole'])
--------------------------------------------------------------------------

    Molecular point group: c1
  Charge       = 0
  Multiplicity = 1
  Basis Set: AUG-CC-PVTZ
    Blend: AUG-CC-PVTZ
  Basis Set: (AUG-CC-PVTZ AUX)
    Blend: AUG-CC-PVTZ-JKFIT

    Orbital Energies [Eh]
    ---------------------

    Doubly Occupied:

       1A    -92.216193     2A    -26.371490     3A    -26.371467
       4A    -26.368899     5A    -20.574000     6A    -20.573981
       7A    -11.550118     8A    -11.293151     9A    -11.287955
      10A    -11.284811    11A    -11.284636    12A    -11.265457
      13A    -11.265168    14A    -11.258266    15A     -9.184889
      16A     -6.869749    17A     -6.869022    18A     -6.868732
      19A     -1.756890    20A     -1.665206    21A     -1.664345
      22A     -1.465849    23A     -1.358416    24A     -1.198130
      25A     -1.100300    26A     -1.053763    27A     -1.038711
      28A     -0.978773    29A     -0.916341    30A     -0.869806
      31A     -0.856500    32A     -0.850576    33A     -0.844786
      34A     -0.796868    35A     -0.743016    36A     -0.736654
      37A     -0.725663    38A     -0.695479    39A     -0.693241
      40A     -0.683435    41A     -0.678072    42A     -0.671147
      43A     -0.666449    44A     -0.646883    45A     -0.638692
      46A     -0.625290    47A     -0.603634    48A     -0.564129
      49A     -0.545408    50A     -0.532546    51A     -0.525464
      52A     -0.522773    53A     -0.514687    54A     -0.497135
      55A     -0.468103    56A     -0.374042    57A     -0.372422

  @DF-RHF Final Energy: -1152.82838571958314

   => Energetics <=

    Nuclear Repulsion Energy =           1102.3720950085025834
    One-Electron Energy =               -3780.6057456501171146
    Two-Electron Energy =                1525.4052649220313924
    Total Energy =                      -1152.8283857195831388
  Basis Set: (AUG-CC-PVTZ AUX)
    Blend: AUG-CC-PVTZ-RI
    Molecular point group: c1

    Geometry (in Angstrom), charge = 0, multiplicity = 1:

       Center              X                  Y                   Z               Mass
    ------------   -----------------  -----------------  -----------------  -----------------
         S            1.116524714778     0.000870973187    -0.870877918232    31.972071174400
         F            1.459749714778    -1.093479026813     1.494331081768    18.998403162730
         F            3.186861714778    -0.001073026813     0.722184081768    18.998403162730
         F            1.459778714778     1.089517973187     1.496957081768    18.998403162730
         O            1.487302714778    -1.285796026813    -1.463535918232    15.994914619570
         O            1.487299714778     1.288966973187    -1.460425918232    15.994914619570
         C           -0.609409285222     0.000413973187    -0.494234918232    12.000000000000
         C           -1.269268285222    -1.220573026813    -0.339217918232    12.000000000000
         C           -1.269273285222     1.221022973187    -0.336289918232    12.000000000000
         C           -3.323061285222    -0.000349026813     0.137614081768    12.000000000000
         C            1.854994714778    -0.001177026813     0.823893081768    12.000000000000
         C           -2.627408285222    -1.206258026813    -0.027999918232    12.000000000000
         C           -2.627413285222     1.205956973187    -0.025106918232    12.000000000000
         C           -4.780931285222    -0.000804026813     0.513527081768    12.000000000000
         H           -0.733430285222    -2.153782026813    -0.489082918232     1.007825032230
         H           -0.733438285222     2.154590973187    -0.483916918232     1.007825032230
         H           -3.157544285222    -2.150061026813     0.083742081768     1.007825032230
         H           -3.157552285222     2.149487973187     0.088899081768     1.007825032230
         H           -5.311511585222     0.925967173187     0.105270481768     1.007825032230
         H           -5.288320285222    -0.886066026813     0.120928081768     1.007825032230
         H           -4.902540285222    -0.002154026813     1.602148081768     1.007825032230

  Basis Set: AUG-CC-PVTZ
    Blend: AUG-CC-PVTZ
  Basis Set: (AUG-CC-PVTZ AUX)
    Blend: AUG-CC-PVTZ-JKFIT
	 Reference Energy          =   -1152.8283857195831388 [Eh]
	 Singles Energy            =      -0.0000000000000000 [Eh]
	 Same-Spin Energy          =      -0.7697007949524843 [Eh]
	 Opposite-Spin Energy      =      -2.2430448057462811 [Eh]
	 Correlation Energy        =      -3.0127456006987652 [Eh]
	 Total Energy              =   -1155.8411313202818747 [Eh]

	 ================> DF-SCS-MP2 Energies <==================
	-----------------------------------------------------------
	 SCS Same-Spin Scale       =       0.3333333333333333 [-]
	 SCS Opposite-Spin Scale   =       1.2000000000000000 [-]
	 SCS Same-Spin Energy      =      -0.2565669316508281 [Eh]
	 SCS Opposite-Spin Energy  =      -2.6916537668955374 [Eh]
	 SCS Correlation Energy    =      -2.9482206985463653 [Eh]
	 SCS Total Energy          =   -1155.7766064181294041 [Eh]
	-----------------------------------------------------------

  Dipole Moment: [D]
     X:    -5.4005      Y:    -0.0171      Z:     2.1381     Total:     5.8084

*** Psi4 exiting successfully. Buy a developer a beer!
