                               Psi4 1.4a3.dev225

  ==> Input File <==

--------------------------------------------------------------------------
#psi4
#
memory 32 gb

molecule  {
0 1
  S        1.2441830     0.0010390    -0.8590750
  F        1.5874080    -1.0933110     1.5061340
  F        3.3145200    -0.0009050     0.7339870
  F        1.5874370     1.0896860     1.5087600
  O        1.6149610    -1.2856280    -1.4517330
  O        1.6149580     1.2891350    -1.4486230
  C       -0.4817510     0.0005820    -0.4824320
  C       -1.1415459    -1.1960860    -0.3273038
  C       -1.1416150     1.2211910    -0.3244870
  C       -3.1954030    -0.0001810     0.1494170
  C        1.9826530    -0.0010090     0.8356960
  C       -2.4997500    -1.2060900    -0.0161970
  C       -2.4997550     1.2061250    -0.0133040
  C       -4.6532730    -0.0006360     0.5253300
  H       -0.6057720    -2.1536140    -0.4772800
  H       -0.6057800     2.1547590    -0.4721140
  H       -3.0298860    -2.1498930     0.0955450
  H       -3.0298940     2.1496560     0.1007020
  H       -5.1606490     0.8856040     0.1349280
  H       -5.1606620    -0.8858980     0.1327310
  H       -4.7748820    -0.0019860     1.6139510
units angstrom
no_reorient  #important for SAPT in psi4, default
symmetry c1  #important for SAPT in psi4, default
}

set PROPERTIES_ORIGIN ["COM"]
properties('MP2/aug-cc-pvtz', properties = ['dipole'])
--------------------------------------------------------------------------

    Molecular point group: c1
  Charge       = 0
  Multiplicity = 1
  Basis Set: AUG-CC-PVTZ
    Blend: AUG-CC-PVTZ
  Basis Set: (AUG-CC-PVTZ AUX)
    Blend: AUG-CC-PVTZ-JKFIT

    Orbital Energies [Eh]
    ---------------------

    Doubly Occupied:

       1A    -92.216607     2A    -26.371699     3A    -26.371621
       4A    -26.369121     5A    -20.574420     6A    -20.574172
       7A    -11.550405     8A    -11.291147     9A    -11.287003
      10A    -11.284083    11A    -11.283501    12A    -11.264739
      13A    -11.264604    14A    -11.252115    15A     -9.185305
      16A     -6.870167    17A     -6.869443    18A     -6.869142
      19A     -1.757084    20A     -1.665381    21A     -1.664544
      22A     -1.466152    23A     -1.358674    24A     -1.200128
      25A     -1.101986    26A     -1.052866    27A     -1.039443
      28A     -0.981234    29A     -0.917752    30A     -0.870023
      31A     -0.856629    32A     -0.850757    33A     -0.844807
      34A     -0.797486    35A     -0.743330    36A     -0.736825
      37A     -0.725947    38A     -0.695715    39A     -0.693402
      40A     -0.684919    41A     -0.678271    42A     -0.669368
      43A     -0.665593    44A     -0.647398    45A     -0.640212
      46A     -0.622357    47A     -0.604867    48A     -0.570388
      49A     -0.544831    50A     -0.534321    51A     -0.524959
      52A     -0.523237    53A     -0.515056    54A     -0.497219
      55A     -0.468496    56A     -0.375614    57A     -0.371510

  @DF-RHF Final Energy: -1152.82998799721577

   => Energetics <=

    Nuclear Repulsion Energy =           1103.0793215996156960
    One-Electron Energy =               -3782.0024687641907803
    Two-Electron Energy =                1526.0931591673595449
    Total Energy =                      -1152.8299879972157669
  Basis Set: (AUG-CC-PVTZ AUX)
    Blend: AUG-CC-PVTZ-RI
    Molecular point group: c1

    Geometry (in Angstrom), charge = 0, multiplicity = 1:

       Center              X                  Y                   Z               Mass
    ------------   -----------------  -----------------  -----------------  -----------------
         S            1.116416885345    -0.000249412198    -0.870964202550    31.972071174400
         F            1.459641885345    -1.094599412198     1.494244797450    18.998403162730
         F            3.186753885345    -0.002193412198     0.722097797450    18.998403162730
         F            1.459670885345     1.088397587802     1.496870797450    18.998403162730
         O            1.487194885345    -1.286916412198    -1.463622202550    15.994914619570
         O            1.487191885345     1.287846587802    -1.460512202550    15.994914619570
         C           -0.609517114655    -0.000706412198    -0.494321202550    12.000000000000
         C           -1.269312014655    -1.197374412198    -0.339193002550    12.000000000000
         C           -1.269381114655     1.219902587802    -0.336376202550    12.000000000000
         C           -3.323169114655    -0.001469412198     0.137527797450    12.000000000000
         C            1.854886885345    -0.002297412198     0.823806797450    12.000000000000
         C           -2.627516114655    -1.207378412198    -0.028086202550    12.000000000000
         C           -2.627521114655     1.204836587802    -0.025193202550    12.000000000000
         C           -4.781039114655    -0.001924412198     0.513440797450    12.000000000000
         H           -0.733538114655    -2.154902412198    -0.489169202550     1.007825032230
         H           -0.733546114655     2.153470587802    -0.484003202550     1.007825032230
         H           -3.157652114655    -2.151181412198     0.083655797450     1.007825032230
         H           -3.157660114655     2.148367587802     0.088812797450     1.007825032230
         H           -5.288415114655     0.884315587802     0.123038797450     1.007825032230
         H           -5.288428114655    -0.887186412198     0.120841797450     1.007825032230
         H           -4.902648114655    -0.003274412198     1.602061797450     1.007825032230

  Basis Set: AUG-CC-PVTZ
    Blend: AUG-CC-PVTZ
  Basis Set: (AUG-CC-PVTZ AUX)
    Blend: AUG-CC-PVTZ-JKFIT
	 Reference Energy          =   -1152.8299879972157669 [Eh]
	 Singles Energy            =      -0.0000000000000000 [Eh]
	 Same-Spin Energy          =      -0.7697016938276269 [Eh]
	 Opposite-Spin Energy      =      -2.2426061385013232 [Eh]
	 Correlation Energy        =      -3.0123078323289501 [Eh]
	 Total Energy              =   -1155.8422958295448097 [Eh]

	 ================> DF-SCS-MP2 Energies <==================
	-----------------------------------------------------------
	 SCS Same-Spin Scale       =       0.3333333333333333 [-]
	 SCS Opposite-Spin Scale   =       1.2000000000000000 [-]
	 SCS Same-Spin Energy      =      -0.2565672312758756 [Eh]
	 SCS Opposite-Spin Energy  =      -2.6911273662015875 [Eh]
	 SCS Correlation Energy    =      -2.9476945974774633 [Eh]
	 SCS Total Energy          =   -1155.7776825946932604 [Eh]
	-----------------------------------------------------------

  Dipole Moment: [D]
     X:    -5.4013      Y:    -0.0064      Z:     2.1326     Total:     5.8071

*** Psi4 exiting successfully. Buy a developer a beer!
