                               Psi4 1.4a3.dev225

  ==> Input File <==

--------------------------------------------------------------------------
#psi4
#
memory 32 gb

molecule  {
0 1
  S        1.2441830     0.0010390    -0.8590750
  F        1.5874080    -1.0933110     1.5061340
  F        3.3145200    -0.0009050     0.7339870
  F        1.5874370     1.0896860     1.5087600
  O        1.6149610    -1.2856280    -1.4517330
  O        1.6149580     1.2891350    -1.4486230
  C       -0.4817510     0.0005820    -0.4824320
  C       -1.1416100    -1.2204050    -0.3274150
  C       -1.0943642     1.1337871    -0.3357969
  C       -3.1954030    -0.0001810     0.1494170
  C        1.9826530    -0.0010090     0.8356960
  C       -2.4997500    -1.2060900    -0.0161970
  C       -2.4997550     1.2061250    -0.0133040
  C       -4.6532730    -0.0006360     0.5253300
  H       -0.6057720    -2.1536140    -0.4772800
  H       -0.6057800     2.1547590    -0.4721140
  H       -3.0298860    -2.1498930     0.0955450
  H       -3.0298940     2.1496560     0.1007020
  H       -5.1606490     0.8856040     0.1349280
  H       -5.1606620    -0.8858980     0.1327310
  H       -4.7748820    -0.0019860     1.6139510
units angstrom
no_reorient  #important for SAPT in psi4, default
symmetry c1  #important for SAPT in psi4, default
}

set PROPERTIES_ORIGIN ["COM"]
properties('MP2/aug-cc-pvtz', properties = ['dipole'])
--------------------------------------------------------------------------

    Molecular point group: c1
  Charge       = 0
  Multiplicity = 1
  Basis Set: AUG-CC-PVTZ
    Blend: AUG-CC-PVTZ
  Basis Set: (AUG-CC-PVTZ AUX)
    Blend: AUG-CC-PVTZ-JKFIT

    Orbital Energies [Eh]
    ---------------------

    Doubly Occupied:

       1A    -92.217045     2A    -26.372732     3A    -26.372423
       4A    -26.370061     5A    -20.575341     6A    -20.575108
       7A    -11.551538     8A    -11.285527     9A    -11.284107
      10A    -11.281740    11A    -11.281387    12A    -11.268498
      13A    -11.265085    14A    -11.250727    15A     -9.186015
      16A     -6.870854    17A     -6.870129    18A     -6.869801
      19A     -1.758015    20A     -1.666303    21A     -1.665441
      22A     -1.467283    23A     -1.359588    24A     -1.206004
      25A     -1.108073    26A     -1.046813    27A     -1.040560
      28A     -0.980289    29A     -0.920127    30A     -0.875437
      31A     -0.856232    32A     -0.851649    33A     -0.843378
      34A     -0.797160    35A     -0.744603    36A     -0.737655
      37A     -0.726905    38A     -0.696494    39A     -0.694224
      40A     -0.687225    41A     -0.679173    42A     -0.669408
      43A     -0.662462    44A     -0.648739    45A     -0.643328
      46A     -0.613447    47A     -0.603827    48A     -0.571691
      49A     -0.543599    50A     -0.538651    51A     -0.527026
      52A     -0.523228    53A     -0.513271    54A     -0.497045
      55A     -0.467008    56A     -0.385220    57A     -0.362980

  @DF-RHF Final Energy: -1152.81704817240029

   => Energetics <=

    Nuclear Repulsion Energy =           1104.6681688598712299
    One-Electron Energy =               -3785.1150774614375223
    Two-Electron Energy =                1527.6298604291657739
    Total Energy =                      -1152.8170481724002912
  Basis Set: (AUG-CC-PVTZ AUX)
    Blend: AUG-CC-PVTZ-RI
    Molecular point group: c1

    Geometry (in Angstrom), charge = 0, multiplicity = 1:

       Center              X                  Y                   Z               Mass
    ------------   -----------------  -----------------  -----------------  -----------------
         S            1.113889160534     0.005735425612    -0.870352390369    31.972071174400
         F            1.457114160534    -1.088614574388     1.494856609631    18.998403162730
         F            3.184226160534     0.003791425612     0.722709609631    18.998403162730
         F            1.457143160534     1.094382425612     1.497482609631    18.998403162730
         O            1.484667160534    -1.280931574388    -1.463010390369    15.994914619570
         O            1.484664160534     1.293831425612    -1.459900390369    15.994914619570
         C           -0.612044839466     0.005278425612    -0.493709390369    12.000000000000
         C           -1.271903839466    -1.215708574388    -0.338692390369    12.000000000000
         C           -1.224658039466     1.138483525612    -0.347074290369    12.000000000000
         C           -3.325696839466     0.004515425612     0.138139609631    12.000000000000
         C            1.852359160534     0.003687425612     0.824418609631    12.000000000000
         C           -2.630043839466    -1.201393574388    -0.027474390369    12.000000000000
         C           -2.630048839466     1.210821425612    -0.024581390369    12.000000000000
         C           -4.783566839466     0.004060425612     0.514052609631    12.000000000000
         H           -0.736065839466    -2.148917574388    -0.488557390369     1.007825032230
         H           -0.736073839466     2.159455425612    -0.483391390369     1.007825032230
         H           -3.160179839466    -2.145196574388     0.084267609631     1.007825032230
         H           -3.160187839466     2.154352425612     0.089424609631     1.007825032230
         H           -5.290942839466     0.890300425612     0.123650609631     1.007825032230
         H           -5.290955839466    -0.881201574388     0.121453609631     1.007825032230
         H           -4.905175839466     0.002710425612     1.602673609631     1.007825032230

  Basis Set: AUG-CC-PVTZ
    Blend: AUG-CC-PVTZ
  Basis Set: (AUG-CC-PVTZ AUX)
    Blend: AUG-CC-PVTZ-JKFIT
	 Reference Energy          =   -1152.8170481724002912 [Eh]
	 Singles Energy            =      -0.0000000000000000 [Eh]
	 Same-Spin Energy          =      -0.7697376905949859 [Eh]
	 Opposite-Spin Energy      =      -2.2431414630812037 [Eh]
	 Correlation Energy        =      -3.0128791536761894 [Eh]
	 Total Energy              =   -1155.8299273260765858 [Eh]

	 ================> DF-SCS-MP2 Energies <==================
	-----------------------------------------------------------
	 SCS Same-Spin Scale       =       0.3333333333333333 [-]
	 SCS Opposite-Spin Scale   =       1.2000000000000000 [-]
	 SCS Same-Spin Energy      =      -0.2565792301983286 [Eh]
	 SCS Opposite-Spin Energy  =      -2.6917697556974445 [Eh]
	 SCS Correlation Energy    =      -2.9483489858957732 [Eh]
	 SCS Total Energy          =   -1155.7653971582960821 [Eh]
	-----------------------------------------------------------

  Dipole Moment: [D]
     X:    -5.3463      Y:     0.0438      Z:     2.1239     Total:     5.7529

*** Psi4 exiting successfully. Buy a developer a beer!
