                               Psi4 1.4a3.dev225

  ==> Input File <==

--------------------------------------------------------------------------
#psi4
#
memory 32 gb

molecule  {
0 1
  S        1.2441830     0.0010390    -0.8590750
  F        1.5874080    -1.0933110     1.5061340
  F        3.3145200    -0.0009050     0.7339870
  F        1.5874370     1.0896860     1.5087600
  O        1.6656027    -1.4613638    -1.5326795
  O        1.6149580     1.2891350    -1.4486230
  C       -0.4817510     0.0005820    -0.4824320
  C       -1.1416100    -1.2204050    -0.3274150
  C       -1.1416150     1.2211910    -0.3244870
  C       -3.1954030    -0.0001810     0.1494170
  C        1.9826530    -0.0010090     0.8356960
  C       -2.4997500    -1.2060900    -0.0161970
  C       -2.4997550     1.2061250    -0.0133040
  C       -4.6532730    -0.0006360     0.5253300
  H       -0.6057720    -2.1536140    -0.4772800
  H       -0.6057800     2.1547590    -0.4721140
  H       -3.0298860    -2.1498930     0.0955450
  H       -3.0298940     2.1496560     0.1007020
  H       -5.1606490     0.8856040     0.1349280
  H       -5.1606620    -0.8858980     0.1327310
  H       -4.7748820    -0.0019860     1.6139510
units angstrom
no_reorient  #important for SAPT in psi4, default
symmetry c1  #important for SAPT in psi4, default
}

set PROPERTIES_ORIGIN ["COM"]
properties('MP2/aug-cc-pvtz', properties = ['dipole'])
--------------------------------------------------------------------------

    Molecular point group: c1
  Charge       = 0
  Multiplicity = 1
  Basis Set: AUG-CC-PVTZ
    Blend: AUG-CC-PVTZ
  Basis Set: (AUG-CC-PVTZ AUX)
    Blend: AUG-CC-PVTZ-JKFIT

    Orbital Energies [Eh]
    ---------------------

    Doubly Occupied:

       1A    -92.218741     2A    -26.378923     3A    -26.375839
       4A    -26.373499     5A    -20.583954     6A    -20.571973
       7A    -11.561137     8A    -11.301043     9A    -11.290891
      10A    -11.289617    11A    -11.287480    12A    -11.268528
      13A    -11.267545    14A    -11.254591    15A     -9.188706
      16A     -6.873064    17A     -6.872441    18A     -6.871392
      19A     -1.762157    20A     -1.670948    21A     -1.668717
      22A     -1.438587    23A     -1.288437    24A     -1.201477
      25A     -1.106206    26A     -1.056962    27A     -1.047072
      28A     -0.984865    29A     -0.925369    30A     -0.873224
      31A     -0.860165    32A     -0.855949    33A     -0.849051
      34A     -0.801270    35A     -0.744617    36A     -0.741184
      37A     -0.725297    38A     -0.700188    39A     -0.697556
      40A     -0.686225    41A     -0.682715    42A     -0.671727
      43A     -0.656385    44A     -0.635472    45A     -0.628002
      46A     -0.627701    47A     -0.607172    48A     -0.571467
      49A     -0.545982    50A     -0.535631    51A     -0.529101
      52A     -0.506315    53A     -0.495522    54A     -0.474755
      55A     -0.465161    56A     -0.377342    57A     -0.375290

  @DF-RHF Final Energy: -1152.78388824860326

   => Energetics <=

    Nuclear Repulsion Energy =           1092.7912480511370177
    One-Electron Energy =               -3761.3490142910709437
    Two-Electron Energy =                1515.7738779913304370
    Total Energy =                      -1152.7838882486032617
  Basis Set: (AUG-CC-PVTZ AUX)
    Blend: AUG-CC-PVTZ-RI
    Molecular point group: c1

    Geometry (in Angstrom), charge = 0, multiplicity = 1:

       Center              X                  Y                   Z               Mass
    ------------   -----------------  -----------------  -----------------  -----------------
         S            1.112804396360     0.013601223963    -0.865178497227    31.972071174400
         F            1.456029396360    -1.080748776037     1.500030502773    18.998403162730
         F            3.183141396360     0.011657223963     0.727883502773    18.998403162730
         F            1.456058396360     1.102248223963     1.502656502773    18.998403162730
         O            1.534224096360    -1.448801576037    -1.538782997227    15.994914619570
         O            1.483579396360     1.301697223963    -1.454726497227    15.994914619570
         C           -0.613129603640     0.013144223963    -0.488535497227    12.000000000000
         C           -1.272988603640    -1.207842776037    -0.333518497227    12.000000000000
         C           -1.272993603640     1.233753223963    -0.330590497227    12.000000000000
         C           -3.326781603640     0.012381223963     0.143313502773    12.000000000000
         C            1.851274396360     0.011553223963     0.829592502773    12.000000000000
         C           -2.631128603640    -1.193527776037    -0.022300497227    12.000000000000
         C           -2.631133603640     1.218687223963    -0.019407497227    12.000000000000
         C           -4.784651603640     0.011926223963     0.519226502773    12.000000000000
         H           -0.737150603640    -2.141051776037    -0.483383497227     1.007825032230
         H           -0.737158603640     2.167321223963    -0.478217497227     1.007825032230
         H           -3.161264603640    -2.137330776037     0.089441502773     1.007825032230
         H           -3.161272603640     2.162218223963     0.094598502773     1.007825032230
         H           -5.292027603640     0.898166223963     0.128824502773     1.007825032230
         H           -5.292040603640    -0.873335776037     0.126627502773     1.007825032230
         H           -4.906260603640     0.010576223963     1.607847502773     1.007825032230

  Basis Set: AUG-CC-PVTZ
    Blend: AUG-CC-PVTZ
  Basis Set: (AUG-CC-PVTZ AUX)
    Blend: AUG-CC-PVTZ-JKFIT
	 Reference Energy          =   -1152.7838882486032617 [Eh]
	 Singles Energy            =      -0.0000000000000000 [Eh]
	 Same-Spin Energy          =      -0.7719162294917365 [Eh]
	 Opposite-Spin Energy      =      -2.2504034828887787 [Eh]
	 Correlation Energy        =      -3.0223197123805150 [Eh]
	 Total Energy              =   -1155.8062079609837838 [Eh]

	 ================> DF-SCS-MP2 Energies <==================
	-----------------------------------------------------------
	 SCS Same-Spin Scale       =       0.3333333333333333 [-]
	 SCS Opposite-Spin Scale   =       1.2000000000000000 [-]
	 SCS Same-Spin Energy      =      -0.2573054098305788 [Eh]
	 SCS Opposite-Spin Energy  =      -2.7004841794665344 [Eh]
	 SCS Correlation Energy    =      -2.9577895892971133 [Eh]
	 SCS Total Energy          =   -1155.7416778379003972 [Eh]
	-----------------------------------------------------------

  Dipole Moment: [D]
     X:    -5.8725      Y:     0.8194      Z:     2.6947     Total:     6.5130

*** Psi4 exiting successfully. Buy a developer a beer!
