                               Psi4 1.4a3.dev225

  ==> Input File <==

--------------------------------------------------------------------------
#psi4
#
memory 32 gb

molecule  {
0 1
  S        1.2430001     0.0626881    -0.8593733
  F        1.5874080    -1.0933110     1.5061340
  F        3.3145200    -0.0009050     0.7339870
  F        1.5874370     1.0896860     1.5087600
  O        1.6149610    -1.2856280    -1.4517330
  O        1.6149580     1.2891350    -1.4486230
  C       -0.4817510     0.0005820    -0.4824320
  C       -1.1416100    -1.2204050    -0.3274150
  C       -1.1416150     1.2211910    -0.3244870
  C       -3.1954030    -0.0001810     0.1494170
  C        1.9826530    -0.0010090     0.8356960
  C       -2.4997500    -1.2060900    -0.0161970
  C       -2.4997550     1.2061250    -0.0133040
  C       -4.6532730    -0.0006360     0.5253300
  H       -0.6057720    -2.1536140    -0.4772800
  H       -0.6057800     2.1547590    -0.4721140
  H       -3.0298860    -2.1498930     0.0955450
  H       -3.0298940     2.1496560     0.1007020
  H       -5.1606490     0.8856040     0.1349280
  H       -5.1606620    -0.8858980     0.1327310
  H       -4.7748820    -0.0019860     1.6139510
units angstrom
no_reorient  #important for SAPT in psi4, default
symmetry c1  #important for SAPT in psi4, default
}

set PROPERTIES_ORIGIN ["COM"]
properties('MP2/aug-cc-pvtz', properties = ['dipole'])
--------------------------------------------------------------------------

    Molecular point group: c1
  Charge       = 0
  Multiplicity = 1
  Basis Set: AUG-CC-PVTZ
    Blend: AUG-CC-PVTZ
  Basis Set: (AUG-CC-PVTZ AUX)
    Blend: AUG-CC-PVTZ-JKFIT

    Orbital Energies [Eh]
    ---------------------

    Doubly Occupied:

       1A    -92.214696     2A    -26.371367     3A    -26.371015
       4A    -26.368624     5A    -20.585724     6A    -20.561656
       7A    -11.549815     8A    -11.293099     9A    -11.287544
      10A    -11.284774    11A    -11.284462    12A    -11.265166
      13A    -11.265098    14A    -11.252431    15A     -9.184092
      16A     -6.868857    17A     -6.868399    18A     -6.867729
      19A     -1.756610    20A     -1.665119    21A     -1.663887
      22A     -1.481025    23A     -1.345259    24A     -1.197993
      25A     -1.100694    26A     -1.053646    27A     -1.038541
      28A     -0.980881    29A     -0.917045    30A     -0.869899
      31A     -0.856803    32A     -0.850254    33A     -0.844809
      34A     -0.797148    35A     -0.743688    36A     -0.736406
      37A     -0.726542    38A     -0.695417    39A     -0.693063
      40A     -0.684321    41A     -0.677837    42A     -0.672479
      43A     -0.669593    44A     -0.647820    45A     -0.640212
      46A     -0.625186    47A     -0.604999    48A     -0.569966
      49A     -0.547941    50A     -0.534227    51A     -0.526559
      52A     -0.522550    53A     -0.514347    54A     -0.489925
      55A     -0.464342    56A     -0.374082    57A     -0.372159

  @DF-RHF Final Energy: -1152.82392335159921

   => Energetics <=

    Nuclear Repulsion Energy =           1102.6427208175027772
    One-Electron Energy =               -3781.1376412949630321
    Two-Electron Energy =                1525.6709971258610494
    Total Energy =                      -1152.8239233515992055
  Basis Set: (AUG-CC-PVTZ AUX)
    Blend: AUG-CC-PVTZ-RI
    Molecular point group: c1

    Geometry (in Angstrom), charge = 0, multiplicity = 1:

       Center              X                  Y                   Z               Mass
    ------------   -----------------  -----------------  -----------------  -----------------
         S            1.115406248362     0.053903561371    -0.871213970889    31.972071174400
         F            1.459814148362    -1.102095538629     1.494293329111    18.998403162730
         F            3.186926148362    -0.009689538629     0.722146329111    18.998403162730
         F            1.459843148362     1.080901461371     1.496919329111    18.998403162730
         O            1.487367148362    -1.294412538629    -1.463573670889    15.994914619570
         O            1.487364148362     1.280350461371    -1.460463670889    15.994914619570
         C           -0.609344851638    -0.008202538629    -0.494272670889    12.000000000000
         C           -1.269203851638    -1.229189538629    -0.339255670889    12.000000000000
         C           -1.269208851638     1.212406461371    -0.336327670889    12.000000000000
         C           -3.322996851638    -0.008965538629     0.137576329111    12.000000000000
         C            1.855059148362    -0.009793538629     0.823855329111    12.000000000000
         C           -2.627343851638    -1.214874538629    -0.028037670889    12.000000000000
         C           -2.627348851638     1.197340461371    -0.025144670889    12.000000000000
         C           -4.780866851638    -0.009420538629     0.513489329111    12.000000000000
         H           -0.733365851638    -2.162398538629    -0.489120670889     1.007825032230
         H           -0.733373851638     2.145974461371    -0.483954670889     1.007825032230
         H           -3.157479851638    -2.158677538629     0.083704329111     1.007825032230
         H           -3.157487851638     2.140871461371     0.088861329111     1.007825032230
         H           -5.288242851638     0.876819461371     0.123087329111     1.007825032230
         H           -5.288255851638    -0.894682538629     0.120890329111     1.007825032230
         H           -4.902475851638    -0.010770538629     1.602110329111     1.007825032230

  Basis Set: AUG-CC-PVTZ
    Blend: AUG-CC-PVTZ
  Basis Set: (AUG-CC-PVTZ AUX)
    Blend: AUG-CC-PVTZ-JKFIT
	 Reference Energy          =   -1152.8239233515992055 [Eh]
	 Singles Energy            =      -0.0000000000000000 [Eh]
	 Same-Spin Energy          =      -0.7695153345084466 [Eh]
	 Opposite-Spin Energy      =      -2.2425160663105457 [Eh]
	 Correlation Energy        =      -3.0120314008189921 [Eh]
	 Total Energy              =   -1155.8359547524182744 [Eh]

	 ================> DF-SCS-MP2 Energies <==================
	-----------------------------------------------------------
	 SCS Same-Spin Scale       =       0.3333333333333333 [-]
	 SCS Opposite-Spin Scale   =       1.2000000000000000 [-]
	 SCS Same-Spin Energy      =      -0.2565051115028155 [Eh]
	 SCS Opposite-Spin Energy  =      -2.6910192795726546 [Eh]
	 SCS Correlation Energy    =      -2.9475243910754703 [Eh]
	 SCS Total Energy          =   -1155.7714477426745816 [Eh]
	-----------------------------------------------------------

  Dipole Moment: [D]
     X:    -5.4379      Y:     0.4802      Z:     2.1430     Total:     5.8646

*** Psi4 exiting successfully. Buy a developer a beer!
