                               Psi4 1.4a3.dev225

  ==> Input File <==

--------------------------------------------------------------------------
#psi4
#
memory 32 gb

molecule  {
0 1
  S        1.2351220    -0.1836114    -0.8554311
  F        1.5874080    -1.0933110     1.5061340
  F        3.3145200    -0.0009050     0.7339870
  F        1.5874370     1.0896860     1.5087600
  O        1.6149610    -1.2856280    -1.4517330
  O        1.6149580     1.2891350    -1.4486230
  C       -0.4817510     0.0005820    -0.4824320
  C       -1.1416100    -1.2204050    -0.3274150
  C       -1.1416150     1.2211910    -0.3244870
  C       -3.1954030    -0.0001810     0.1494170
  C        1.9826530    -0.0010090     0.8356960
  C       -2.4997500    -1.2060900    -0.0161970
  C       -2.4997550     1.2061250    -0.0133040
  C       -4.6532730    -0.0006360     0.5253300
  H       -0.6057720    -2.1536140    -0.4772800
  H       -0.6057800     2.1547590    -0.4721140
  H       -3.0298860    -2.1498930     0.0955450
  H       -3.0298940     2.1496560     0.1007020
  H       -5.1606490     0.8856040     0.1349280
  H       -5.1606620    -0.8858980     0.1327310
  H       -4.7748820    -0.0019860     1.6139510
units angstrom
no_reorient  #important for SAPT in psi4, default
symmetry c1  #important for SAPT in psi4, default
}

set PROPERTIES_ORIGIN ["COM"]
properties('MP2/aug-cc-pvtz', properties = ['dipole'])
--------------------------------------------------------------------------

    Molecular point group: c1
  Charge       = 0
  Multiplicity = 1
  Basis Set: AUG-CC-PVTZ
    Blend: AUG-CC-PVTZ
  Basis Set: (AUG-CC-PVTZ AUX)
    Blend: AUG-CC-PVTZ-JKFIT

    Orbital Energies [Eh]
    ---------------------

    Doubly Occupied:

       1A    -92.204296     2A    -26.371025     3A    -26.369812
       4A    -26.367912     5A    -20.606435     6A    -20.536812
       7A    -11.549315     8A    -11.294053     9A    -11.287620
      10A    -11.285250    11A    -11.284413    12A    -11.265541
      13A    -11.265323    14A    -11.252530    15A     -9.179214
      16A     -6.864634    17A     -6.862836    18A     -6.861845
      19A     -1.755993    20A     -1.665219    21A     -1.662499
      22A     -1.552612    23A     -1.286896    24A     -1.197686
      25A     -1.100905    26A     -1.053928    27A     -1.036768
      28A     -0.981232    29A     -0.916922    30A     -0.871340
      31A     -0.857383    32A     -0.849354    33A     -0.843774
      34A     -0.799648    35A     -0.751758    36A     -0.736817
      37A     -0.730028    38A     -0.698149    39A     -0.693911
      40A     -0.690768    41A     -0.685770    42A     -0.678433
      43A     -0.677295    44A     -0.660716    45A     -0.646386
      46A     -0.625113    47A     -0.605191    48A     -0.570156
      49A     -0.557419    50A     -0.537709    51A     -0.527704
      52A     -0.520349    53A     -0.498984    54A     -0.458688
      55A     -0.443436    56A     -0.374686    57A     -0.371353

  @DF-RHF Final Energy: -1152.76862893367729

   => Energetics <=

    Nuclear Repulsion Energy =           1103.1971543011784433
    One-Electron Energy =               -3782.1678774049087224
    Two-Electron Energy =                1526.2020941700527601
    Total Energy =                      -1152.7686289336772916
  Basis Set: (AUG-CC-PVTZ AUX)
    Blend: AUG-CC-PVTZ-RI
    Molecular point group: c1

    Geometry (in Angstrom), charge = 0, multiplicity = 1:

       Center              X                  Y                   Z               Mass
    ------------   -----------------  -----------------  -----------------  -----------------
         S            1.108652549300    -0.157242870122    -0.867834420942    31.972071174400
         F            1.460938549300    -1.066942470122     1.493730679058    18.998403162730
         F            3.188050549300     0.025463529878     0.721583679058    18.998403162730
         F            1.460967549300     1.116054529878     1.496356679058    18.998403162730
         O            1.488491549300    -1.259259470122    -1.464136320942    15.994914619570
         O            1.488488549300     1.315503529878    -1.461026320942    15.994914619570
         C           -0.608220450700     0.026950529878    -0.494835320942    12.000000000000
         C           -1.268079450700    -1.194036470122    -0.339818320942    12.000000000000
         C           -1.268084450700     1.247559529878    -0.336890320942    12.000000000000
         C           -3.321872450700     0.026187529878     0.137013679058    12.000000000000
         C            1.856183549300     0.025359529878     0.823292679058    12.000000000000
         C           -2.626219450700    -1.179721470122    -0.028600320942    12.000000000000
         C           -2.626224450700     1.232493529878    -0.025707320942    12.000000000000
         C           -4.779742450700     0.025732529878     0.512926679058    12.000000000000
         H           -0.732241450700    -2.127245470122    -0.489683320942     1.007825032230
         H           -0.732249450700     2.181127529878    -0.484517320942     1.007825032230
         H           -3.156355450700    -2.123524470122     0.083141679058     1.007825032230
         H           -3.156363450700     2.176024529878     0.088298679058     1.007825032230
         H           -5.287118450700     0.911972529878     0.122524679058     1.007825032230
         H           -5.287131450700    -0.859529470122     0.120327679058     1.007825032230
         H           -4.901351450700     0.024382529878     1.601547679058     1.007825032230

  Basis Set: AUG-CC-PVTZ
    Blend: AUG-CC-PVTZ
  Basis Set: (AUG-CC-PVTZ AUX)
    Blend: AUG-CC-PVTZ-JKFIT
	 Reference Energy          =   -1152.7686289336772916 [Eh]
	 Singles Energy            =      -0.0000000000000000 [Eh]
	 Same-Spin Energy          =      -0.7684277115286743 [Eh]
	 Opposite-Spin Energy      =      -2.2415968677070430 [Eh]
	 Correlation Energy        =      -3.0100245792357172 [Eh]
	 Total Energy              =   -1155.7786535129130243 [Eh]

	 ================> DF-SCS-MP2 Energies <==================
	-----------------------------------------------------------
	 SCS Same-Spin Scale       =       0.3333333333333333 [-]
	 SCS Opposite-Spin Scale   =       1.2000000000000000 [-]
	 SCS Same-Spin Energy      =      -0.2561425705095581 [Eh]
	 SCS Opposite-Spin Energy  =      -2.6899162412484516 [Eh]
	 SCS Correlation Energy    =      -2.9460588117580095 [Eh]
	 SCS Total Energy          =   -1155.7146877454354126 [Eh]
	-----------------------------------------------------------

  Dipole Moment: [D]
     X:    -5.5552      Y:    -1.4606      Z:     2.2444     Total:     6.1669

*** Psi4 exiting successfully. Buy a developer a beer!
