                               Psi4 1.4a3.dev225

  ==> Input File <==

--------------------------------------------------------------------------
#psi4
#
memory 32 gb

molecule  {
0 1
  S        1.2441830     0.0010390    -0.8590750
  F        1.5874080    -1.0933110     1.5061340
  F        3.3145200    -0.0009050     0.7339870
  F        1.5874370     1.0896860     1.5087600
  O        1.6149610    -1.2856280    -1.4517330
  O        1.6149580     1.2891350    -1.4486230
  C       -0.5116661     0.0008026    -0.6649044
  C       -1.1416100    -1.2204050    -0.3274150
  C       -1.1416150     1.2211910    -0.3244870
  C       -3.1954030    -0.0001810     0.1494170
  C        1.9826530    -0.0010090     0.8356960
  C       -2.4997500    -1.2060900    -0.0161970
  C       -2.4997550     1.2061250    -0.0133040
  C       -4.6532730    -0.0006360     0.5253300
  H       -0.6057720    -2.1536140    -0.4772800
  H       -0.6057800     2.1547590    -0.4721140
  H       -3.0298860    -2.1498930     0.0955450
  H       -3.0298940     2.1496560     0.1007020
  H       -5.1606490     0.8856040     0.1349280
  H       -5.1606620    -0.8858980     0.1327310
  H       -4.7748820    -0.0019860     1.6139510
units angstrom
no_reorient  #important for SAPT in psi4, default
symmetry c1  #important for SAPT in psi4, default
}

set PROPERTIES_ORIGIN ["COM"]
properties('MP2/aug-cc-pvtz', properties = ['dipole'])
--------------------------------------------------------------------------

    Molecular point group: c1
  Charge       = 0
  Multiplicity = 1
  Basis Set: AUG-CC-PVTZ
    Blend: AUG-CC-PVTZ
  Basis Set: (AUG-CC-PVTZ AUX)
    Blend: AUG-CC-PVTZ-JKFIT

    Orbital Energies [Eh]
    ---------------------

    Doubly Occupied:

       1A    -92.213757     2A    -26.373576     3A    -26.373554
       4A    -26.372390     5A    -20.568471     6A    -20.568453
       7A    -11.555083     8A    -11.295189     9A    -11.290562
      10A    -11.287874    11A    -11.287776    12A    -11.265591
      13A    -11.265555    14A    -11.253924    15A     -9.182479
      16A     -6.867212    17A     -6.866741    18A     -6.866258
      19A     -1.759267    20A     -1.667211    21A     -1.666972
      22A     -1.462450    23A     -1.354445    24A     -1.195709
      25A     -1.098508    26A     -1.052816    27A     -1.039349
      28A     -0.982144    29A     -0.917029    30A     -0.867093
      31A     -0.859282    32A     -0.852888    33A     -0.848511
      34A     -0.795467    35A     -0.743017    36A     -0.738621
      37A     -0.725279    38A     -0.697174    39A     -0.695536
      40A     -0.682098    41A     -0.680269    42A     -0.673967
      43A     -0.663744    44A     -0.644281    45A     -0.638265
      46A     -0.623458    47A     -0.605908    48A     -0.570324
      49A     -0.545687    50A     -0.530811    51A     -0.525958
      52A     -0.518566    53A     -0.509602    54A     -0.492429
      55A     -0.465760    56A     -0.374485    57A     -0.371838

  @DF-RHF Final Energy: -1152.82019165945167

   => Energetics <=

    Nuclear Repulsion Energy =           1101.0643859659128339
    One-Electron Energy =               -3777.9878251204368098
    Two-Electron Energy =                1524.1032474950725373
    Total Energy =                      -1152.8201916594516661
  Basis Set: (AUG-CC-PVTZ AUX)
    Blend: AUG-CC-PVTZ-RI
    Molecular point group: c1

    Geometry (in Angstrom), charge = 0, multiplicity = 1:

       Center              X                  Y                   Z               Mass
    ------------   -----------------  -----------------  -----------------  -----------------
         S            1.118022828708     0.001041505022    -0.861183457217    31.972071174400
         F            1.461247828708    -1.093308494978     1.504025542783    18.998403162730
         F            3.188359828708    -0.000902494978     0.731878542783    18.998403162730
         F            1.461276828708     1.089688505022     1.506651542783    18.998403162730
         O            1.488800828708    -1.285625494978    -1.453841457217    15.994914619570
         O            1.488797828708     1.289137505022    -1.450731457217    15.994914619570
         C           -0.637826271292     0.000805105022    -0.667012857217    12.000000000000
         C           -1.267770171292    -1.220402494978    -0.329523457217    12.000000000000
         C           -1.267775171292     1.221193505022    -0.326595457217    12.000000000000
         C           -3.321563171292    -0.000178494978     0.147308542783    12.000000000000
         C            1.856492828708    -0.001006494978     0.833587542783    12.000000000000
         C           -2.625910171292    -1.206087494978    -0.018305457217    12.000000000000
         C           -2.625915171292     1.206127505022    -0.015412457217    12.000000000000
         C           -4.779433171292    -0.000633494978     0.523221542783    12.000000000000
         H           -0.731932171292    -2.153611494978    -0.479388457217     1.007825032230
         H           -0.731940171292     2.154761505022    -0.474222457217     1.007825032230
         H           -3.156046171292    -2.149890494978     0.093436542783     1.007825032230
         H           -3.156054171292     2.149658505022     0.098593542783     1.007825032230
         H           -5.286809171292     0.885606505022     0.132819542783     1.007825032230
         H           -5.286822171292    -0.885895494978     0.130622542783     1.007825032230
         H           -4.901042171292    -0.001983494978     1.611842542783     1.007825032230

  Basis Set: AUG-CC-PVTZ
    Blend: AUG-CC-PVTZ
  Basis Set: (AUG-CC-PVTZ AUX)
    Blend: AUG-CC-PVTZ-JKFIT
	 Reference Energy          =   -1152.8201916594516661 [Eh]
	 Singles Energy            =      -0.0000000000000000 [Eh]
	 Same-Spin Energy          =      -0.7697111491847152 [Eh]
	 Opposite-Spin Energy      =      -2.2434688100517004 [Eh]
	 Correlation Energy        =      -3.0131799592364157 [Eh]
	 Total Energy              =   -1155.8333716186880338 [Eh]

	 ================> DF-SCS-MP2 Energies <==================
	-----------------------------------------------------------
	 SCS Same-Spin Scale       =       0.3333333333333333 [-]
	 SCS Opposite-Spin Scale   =       1.2000000000000000 [-]
	 SCS Same-Spin Energy      =      -0.2565703830615717 [Eh]
	 SCS Opposite-Spin Energy  =      -2.6921625720620406 [Eh]
	 SCS Correlation Energy    =      -2.9487329551236123 [Eh]
	 SCS Total Energy          =   -1155.7689246145753259 [Eh]
	-----------------------------------------------------------

  Dipole Moment: [D]
     X:    -5.5496      Y:    -0.0028      Z:     2.3241     Total:     6.0166

*** Psi4 exiting successfully. Buy a developer a beer!
