                               Psi4 1.4a3.dev225

  ==> Input File <==

--------------------------------------------------------------------------
#psi4
#
memory 32 gb

molecule  {
0 1
  S        1.2441830     0.0010390    -0.8590750
  F        1.5874080    -1.0933110     1.5061340
  F        3.3145200    -0.0009050     0.7339870
  F        1.5874370     1.0896860     1.5087600
  O        1.6149610    -1.2856280    -1.4517330
  O        1.6149580     1.2891350    -1.4486230
  C       -0.4817510     0.0005820    -0.4824320
  C       -1.1416100    -1.2204050    -0.3274150
  C       -1.1416150     1.2211910    -0.3244870
  C       -3.1954030    -0.0001810     0.1494170
  C        1.9826530    -0.0010090     0.8356960
  C       -2.4997500    -1.2060900    -0.0161970
  C       -2.4997550     1.2061250    -0.0133040
  C       -4.7501057    -0.0006662     0.5502984
  H       -0.6057720    -2.1536140    -0.4772800
  H       -0.6057800     2.1547590    -0.4721140
  H       -3.0298860    -2.1498930     0.0955450
  H       -3.0298940     2.1496560     0.1007020
  H       -5.1606490     0.8856040     0.1349280
  H       -5.1606620    -0.8858980     0.1327310
  H       -4.7748820    -0.0019860     1.6139510
units angstrom
no_reorient  #important for SAPT in psi4, default
symmetry c1  #important for SAPT in psi4, default
}

set PROPERTIES_ORIGIN ["COM"]
properties('MP2/aug-cc-pvtz', properties = ['dipole'])
--------------------------------------------------------------------------

    Molecular point group: c1
  Charge       = 0
  Multiplicity = 1
  Basis Set: AUG-CC-PVTZ
    Blend: AUG-CC-PVTZ
  Basis Set: (AUG-CC-PVTZ AUX)
    Blend: AUG-CC-PVTZ-JKFIT

    Orbital Energies [Eh]
    ---------------------

    Doubly Occupied:

       1A    -92.215941     2A    -26.371278     3A    -26.371257
       4A    -26.368712     5A    -20.573772     6A    -20.573753
       7A    -11.549899     8A    -11.292781     9A    -11.290440
      10A    -11.284335    11A    -11.284234    12A    -11.265005
      13A    -11.264969    14A    -11.251357    15A     -9.184642
      16A     -6.869502    17A     -6.868773    18A     -6.868484
      19A     -1.756687    20A     -1.664995    21A     -1.664152
      22A     -1.465618    23A     -1.358189    24A     -1.195669
      25A     -1.093176    26A     -1.053012    27A     -1.036758
      28A     -0.981213    29A     -0.919204    30A     -0.868045
      31A     -0.857507    32A     -0.850370    33A     -0.845338
      34A     -0.796390    35A     -0.742690    36A     -0.736423
      37A     -0.724910    38A     -0.695188    39A     -0.692849
      40A     -0.682294    41A     -0.677857    42A     -0.668254
      43A     -0.663862    44A     -0.646922    45A     -0.634609
      46A     -0.625161    47A     -0.615550    48A     -0.587641
      49A     -0.536658    50A     -0.528599    51A     -0.523388
      52A     -0.522539    53A     -0.511027    54A     -0.497010
      55A     -0.467009    56A     -0.375935    57A     -0.371802

  @DF-RHF Final Energy: -1152.82343658036689

   => Energetics <=

    Nuclear Repulsion Energy =           1100.6801184736461892
    One-Electron Energy =               -3777.2398476147977817
    Two-Electron Energy =                1523.7362925607844772
    Total Energy =                      -1152.8234365803668879
  Basis Set: (AUG-CC-PVTZ AUX)
    Blend: AUG-CC-PVTZ-RI
    Molecular point group: c1

    Geometry (in Angstrom), charge = 0, multiplicity = 1:

       Center              X                  Y                   Z               Mass
    ------------   -----------------  -----------------  -----------------  -----------------
         S            1.121607509938     0.001054940024    -0.872295767614    31.972071174400
         F            1.464832509938    -1.093295059976     1.492913232386    18.998403162730
         F            3.191944509938    -0.000889059976     0.720766232386    18.998403162730
         F            1.464861509938     1.089701940024     1.495539232386    18.998403162730
         O            1.492385509938    -1.285612059976    -1.464953767614    15.994914619570
         O            1.492382509938     1.289150940024    -1.461843767614    15.994914619570
         C           -0.604326490062     0.000597940024    -0.495652767614    12.000000000000
         C           -1.264185490062    -1.220389059976    -0.340635767614    12.000000000000
         C           -1.264190490062     1.221206940024    -0.337707767614    12.000000000000
         C           -3.317978490062    -0.000165059976     0.136196232386    12.000000000000
         C            1.860077509938    -0.000993059976     0.822475232386    12.000000000000
         C           -2.622325490062    -1.206074059976    -0.029417767614    12.000000000000
         C           -2.622330490062     1.206140940024    -0.026524767614    12.000000000000
         C           -4.872681190062    -0.000650259976     0.537077632386    12.000000000000
         H           -0.728347490062    -2.153598059976    -0.490500767614     1.007825032230
         H           -0.728355490062     2.154774940024    -0.485334767614     1.007825032230
         H           -3.152461490062    -2.149877059976     0.082324232386     1.007825032230
         H           -3.152469490062     2.149671940024     0.087481232386     1.007825032230
         H           -5.283224490062     0.885619940024     0.121707232386     1.007825032230
         H           -5.283237490062    -0.885882059976     0.119510232386     1.007825032230
         H           -4.897457490062    -0.001970059976     1.600730232386     1.007825032230

  Basis Set: AUG-CC-PVTZ
    Blend: AUG-CC-PVTZ
  Basis Set: (AUG-CC-PVTZ AUX)
    Blend: AUG-CC-PVTZ-JKFIT
	 Reference Energy          =   -1152.8234365803668879 [Eh]
	 Singles Energy            =      -0.0000000000000000 [Eh]
	 Same-Spin Energy          =      -0.7691729367090011 [Eh]
	 Opposite-Spin Energy      =      -2.2425410287429632 [Eh]
	 Correlation Energy        =      -3.0117139654519645 [Eh]
	 Total Energy              =   -1155.8351505458188058 [Eh]

	 ================> DF-SCS-MP2 Energies <==================
	-----------------------------------------------------------
	 SCS Same-Spin Scale       =       0.3333333333333333 [-]
	 SCS Opposite-Spin Scale   =       1.2000000000000000 [-]
	 SCS Same-Spin Energy      =      -0.2563909789030003 [Eh]
	 SCS Opposite-Spin Energy  =      -2.6910492344915560 [Eh]
	 SCS Correlation Energy    =      -2.9474402133945565 [Eh]
	 SCS Total Energy          =   -1155.7708767937615448 [Eh]
	-----------------------------------------------------------

  Dipole Moment: [D]
     X:    -5.3903      Y:    -0.0026      Z:     2.1227     Total:     5.7932

*** Psi4 exiting successfully. Buy a developer a beer!
