                               Psi4 1.4a3.dev225

  ==> Input File <==

--------------------------------------------------------------------------
#psi4
#
memory 32 gb

molecule  {
0 1
  S        1.2590933     0.0289821    -0.8652311
  F        1.5874080    -1.0933110     1.5061340
  F        3.3145200    -0.0009050     0.7339870
  F        1.5874370     1.0896860     1.5087600
  O        1.6149610    -1.2856280    -1.4517330
  O        1.6149580     1.2891350    -1.4486230
  C       -0.4817510     0.0005820    -0.4824320
  C       -1.1416100    -1.2204050    -0.3274150
  C       -1.1416150     1.2211910    -0.3244870
  C       -3.1954030    -0.0001810     0.1494170
  C        1.9826530    -0.0010090     0.8356960
  C       -2.4997500    -1.2060900    -0.0161970
  C       -2.4997550     1.2061250    -0.0133040
  C       -4.6532730    -0.0006360     0.5253300
  H       -0.6057720    -2.1536140    -0.4772800
  H       -0.6057800     2.1547590    -0.4721140
  H       -3.0298860    -2.1498930     0.0955450
  H       -3.0298940     2.1496560     0.1007020
  H       -5.1606490     0.8856040     0.1349280
  H       -5.1606620    -0.8858980     0.1327310
  H       -4.7748820    -0.0019860     1.6139510
units angstrom
no_reorient  #important for SAPT in psi4, default
symmetry c1  #important for SAPT in psi4, default
}

set PROPERTIES_ORIGIN ["COM"]
properties('MP2/aug-cc-pvtz', properties = ['dipole'])
--------------------------------------------------------------------------

    Molecular point group: c1
  Charge       = 0
  Multiplicity = 1
  Basis Set: AUG-CC-PVTZ
    Blend: AUG-CC-PVTZ
  Basis Set: (AUG-CC-PVTZ AUX)
    Blend: AUG-CC-PVTZ-JKFIT

    Orbital Energies [Eh]
    ---------------------

    Doubly Occupied:

       1A    -92.216178     2A    -26.371850     3A    -26.371693
       4A    -26.368982     5A    -20.581162     6A    -20.570218
       7A    -11.550220     8A    -11.292417     9A    -11.285856
      10A    -11.282963    11A    -11.282798    12A    -11.264028
      13A    -11.263984    14A    -11.251410    15A     -9.184974
      16A     -6.869826    17A     -6.869168    18A     -6.868812
      19A     -1.757134    20A     -1.665419    21A     -1.664620
      22A     -1.474079    23A     -1.360619    24A     -1.196133
      25A     -1.098023    26A     -1.052230    27A     -1.038883
      28A     -0.978862    29A     -0.916786    30A     -0.868191
      31A     -0.856560    32A     -0.850783    33A     -0.844053
      34A     -0.796344    35A     -0.743947    36A     -0.736705
      37A     -0.726016    38A     -0.695704    39A     -0.693457
      40A     -0.682850    41A     -0.678300    42A     -0.671305
      43A     -0.668196    44A     -0.650004    45A     -0.639082
      46A     -0.623955    47A     -0.603951    48A     -0.569000
      49A     -0.545852    50A     -0.531978    51A     -0.526295
      52A     -0.524383    53A     -0.516161    54A     -0.498798
      55A     -0.466288    56A     -0.372222    57A     -0.371038

  @DF-RHF Final Energy: -1152.82964092245061

   => Energetics <=

    Nuclear Repulsion Energy =           1102.3622426078795797
    One-Electron Energy =               -3780.5822788842156115
    Two-Electron Energy =                1525.3903953538854239
    Total Energy =                      -1152.8296409224506078
  Basis Set: (AUG-CC-PVTZ AUX)
    Blend: AUG-CC-PVTZ-RI
    Molecular point group: c1

    Geometry (in Angstrom), charge = 0, multiplicity = 1:

       Center              X                  Y                   Z               Mass
    ------------   -----------------  -----------------  -----------------  -----------------
         S            1.129202548197     0.025008246440    -0.876235717042    31.972071174400
         F            1.457517248197    -1.097284853560     1.495129382958    18.998403162730
         F            3.184629248197    -0.004878853560     0.722982382958    18.998403162730
         F            1.457546248197     1.085712146440     1.497755382958    18.998403162730
         O            1.485070248197    -1.289601853560    -1.462737617042    15.994914619570
         O            1.485067248197     1.285161146440    -1.459627617042    15.994914619570
         C           -0.611641751803    -0.003391853560    -0.493436617042    12.000000000000
         C           -1.271500751803    -1.224378853560    -0.338419617042    12.000000000000
         C           -1.271505751803     1.217217146440    -0.335491617042    12.000000000000
         C           -3.325293751803    -0.004154853560     0.138412382958    12.000000000000
         C            1.852762248197    -0.004982853560     0.824691382958    12.000000000000
         C           -2.629640751803    -1.210063853560    -0.027201617042    12.000000000000
         C           -2.629645751803     1.202151146440    -0.024308617042    12.000000000000
         C           -4.783163751803    -0.004609853560     0.514325382958    12.000000000000
         H           -0.735662751803    -2.157587853560    -0.488284617042     1.007825032230
         H           -0.735670751803     2.150785146440    -0.483118617042     1.007825032230
         H           -3.159776751803    -2.153866853560     0.084540382958     1.007825032230
         H           -3.159784751803     2.145682146440     0.089697382958     1.007825032230
         H           -5.290539751803     0.881630146440     0.123923382958     1.007825032230
         H           -5.290552751803    -0.889871853560     0.121726382958     1.007825032230
         H           -4.904772751803    -0.005959853560     1.602946382958     1.007825032230

  Basis Set: AUG-CC-PVTZ
    Blend: AUG-CC-PVTZ
  Basis Set: (AUG-CC-PVTZ AUX)
    Blend: AUG-CC-PVTZ-JKFIT
	 Reference Energy          =   -1152.8296409224506078 [Eh]
	 Singles Energy            =      -0.0000000000000000 [Eh]
	 Same-Spin Energy          =      -0.7694275736544641 [Eh]
	 Opposite-Spin Energy      =      -2.2423194356627096 [Eh]
	 Correlation Energy        =      -3.0117470093171739 [Eh]
	 Total Energy              =   -1155.8413879317677129 [Eh]

	 ================> DF-SCS-MP2 Energies <==================
	-----------------------------------------------------------
	 SCS Same-Spin Scale       =       0.3333333333333333 [-]
	 SCS Opposite-Spin Scale   =       1.2000000000000000 [-]
	 SCS Same-Spin Energy      =      -0.2564758578848214 [Eh]
	 SCS Opposite-Spin Energy  =      -2.6907833227952516 [Eh]
	 SCS Correlation Energy    =      -2.9472591806800730 [Eh]
	 SCS Total Energy          =   -1155.7769001031306288 [Eh]
	-----------------------------------------------------------

  Dipole Moment: [D]
     X:    -5.2400      Y:     0.2155      Z:     2.0702     Total:     5.6383

*** Psi4 exiting successfully. Buy a developer a beer!
