                               Psi4 1.4a3.dev225

  ==> Input File <==

--------------------------------------------------------------------------
#psi4
#
memory 32 gb

molecule  {
0 1
  S        1.2397159     0.1242616    -0.8592124
  F        1.5874080    -1.0933110     1.5061340
  F        3.3145200    -0.0009050     0.7339870
  F        1.5874370     1.0896860     1.5087600
  O        1.6149610    -1.2856280    -1.4517330
  O        1.6149580     1.2891350    -1.4486230
  C       -0.4817510     0.0005820    -0.4824320
  C       -1.1416100    -1.2204050    -0.3274150
  C       -1.1416150     1.2211910    -0.3244870
  C       -3.1954030    -0.0001810     0.1494170
  C        1.9826530    -0.0010090     0.8356960
  C       -2.4997500    -1.2060900    -0.0161970
  C       -2.4997550     1.2061250    -0.0133040
  C       -4.6532730    -0.0006360     0.5253300
  H       -0.6057720    -2.1536140    -0.4772800
  H       -0.6057800     2.1547590    -0.4721140
  H       -3.0298860    -2.1498930     0.0955450
  H       -3.0298940     2.1496560     0.1007020
  H       -5.1606490     0.8856040     0.1349280
  H       -5.1606620    -0.8858980     0.1327310
  H       -4.7748820    -0.0019860     1.6139510
units angstrom
no_reorient  #important for SAPT in psi4, default
symmetry c1  #important for SAPT in psi4, default
}

set PROPERTIES_ORIGIN ["COM"]
properties('MP2/aug-cc-pvtz', properties = ['dipole'])
--------------------------------------------------------------------------

    Molecular point group: c1
  Charge       = 0
  Multiplicity = 1
  Basis Set: AUG-CC-PVTZ
    Blend: AUG-CC-PVTZ
  Basis Set: (AUG-CC-PVTZ AUX)
    Blend: AUG-CC-PVTZ-JKFIT

    Orbital Energies [Eh]
    ---------------------

    Doubly Occupied:

       1A    -92.210624     2A    -26.371085     3A    -26.370344
       4A    -26.368173     5A    -20.596724     6A    -20.549254
       7A    -11.549370     8A    -11.293429     9A    -11.287564
      10A    -11.284984    11A    -11.284399    12A    -11.265305
      13A    -11.265175    14A    -11.252464    15A     -9.182116
      16A     -6.866979    17A     -6.866352    18A     -6.865341
      19A     -1.756169    20A     -1.665041    21A     -1.663097
      22A     -1.514398    23A     -1.317742    24A     -1.197915
      25A     -1.100723    26A     -1.053746    27A     -1.037448
      28A     -0.980965    29A     -0.916812    30A     -0.870419
      31A     -0.856863    32A     -0.849700    33A     -0.844265
      34A     -0.798082    35A     -0.746303    36A     -0.736210
      37A     -0.728410    38A     -0.695690    39A     -0.692861
      40A     -0.686175    41A     -0.677849    42A     -0.677448
      43A     -0.674828    44A     -0.652189    45A     -0.643661
      46A     -0.625138    47A     -0.605078    48A     -0.570015
      49A     -0.552773    50A     -0.536726    51A     -0.527093
      52A     -0.521767    53A     -0.509585    54A     -0.475350
      55A     -0.455181    56A     -0.374347    57A     -0.371819

  @DF-RHF Final Energy: -1152.80355223612605

   => Energetics <=

    Nuclear Repulsion Energy =           1102.8218289120600275
    One-Electron Energy =               -3781.4716451475978829
    Two-Electron Energy =                1525.8462639994118035
    Total Energy =                      -1152.8035522361260519
  Basis Set: (AUG-CC-PVTZ AUX)
    Blend: AUG-CC-PVTZ-RI
    Molecular point group: c1

    Geometry (in Angstrom), charge = 0, multiplicity = 1:

       Center              X                  Y                   Z               Mass
    ------------   -----------------  -----------------  -----------------  -----------------
         S            1.112590785438     0.106688990491    -0.871076035324    31.972071174400
         F            1.460282885438    -1.110883609509     1.494270364676    18.998403162730
         F            3.187394885438    -0.018477609509     0.722123364676    18.998403162730
         F            1.460311885438     1.072113390491     1.496896364676    18.998403162730
         O            1.487835885438    -1.303200609509    -1.463596635324    15.994914619570
         O            1.487832885438     1.271562390491    -1.460486635324    15.994914619570
         C           -0.608876114562    -0.016990609509    -0.494295635324    12.000000000000
         C           -1.268735114562    -1.237977609509    -0.339278635324    12.000000000000
         C           -1.268740114562     1.203618390491    -0.336350635324    12.000000000000
         C           -3.322528114562    -0.017753609509     0.137553364676    12.000000000000
         C            1.855527885438    -0.018581609509     0.823832364676    12.000000000000
         C           -2.626875114562    -1.223662609509    -0.028060635324    12.000000000000
         C           -2.626880114562     1.188552390491    -0.025167635324    12.000000000000
         C           -4.780398114562    -0.018208609509     0.513466364676    12.000000000000
         H           -0.732897114562    -2.171186609509    -0.489143635324     1.007825032230
         H           -0.732905114562     2.137186390491    -0.483977635324     1.007825032230
         H           -3.157011114562    -2.167465609509     0.083681364676     1.007825032230
         H           -3.157019114562     2.132083390491     0.088838364676     1.007825032230
         H           -5.287774114562     0.868031390491     0.123064364676     1.007825032230
         H           -5.287787114562    -0.903470609509     0.120867364676     1.007825032230
         H           -4.902007114562    -0.019558609509     1.602087364676     1.007825032230

  Basis Set: AUG-CC-PVTZ
    Blend: AUG-CC-PVTZ
  Basis Set: (AUG-CC-PVTZ AUX)
    Blend: AUG-CC-PVTZ-JKFIT
	 Reference Energy          =   -1152.8035522361260519 [Eh]
	 Singles Energy            =      -0.0000000000000000 [Eh]
	 Same-Spin Energy          =      -0.7690571341248972 [Eh]
	 Opposite-Spin Energy      =      -2.2420852898078629 [Eh]
	 Correlation Energy        =      -3.0111424239327600 [Eh]
	 Total Energy              =   -1155.8146946600588763 [Eh]

	 ================> DF-SCS-MP2 Energies <==================
	-----------------------------------------------------------
	 SCS Same-Spin Scale       =       0.3333333333333333 [-]
	 SCS Opposite-Spin Scale   =       1.2000000000000000 [-]
	 SCS Same-Spin Energy      =      -0.2563523780416324 [Eh]
	 SCS Opposite-Spin Energy  =      -2.6905023477694354 [Eh]
	 SCS Correlation Energy    =      -2.9468547258110678 [Eh]
	 SCS Total Energy          =   -1155.7504069619371876 [Eh]
	-----------------------------------------------------------

  Dipole Moment: [D]
     X:    -5.4835      Y:     0.9655      Z:     2.1730     Total:     5.9768

*** Psi4 exiting successfully. Buy a developer a beer!
