                               Psi4 1.4a3.dev225

  ==> Input File <==

--------------------------------------------------------------------------
#psi4
#
memory 32 gb

molecule  {
0 1
  S        1.2441830     0.0010390    -0.8590750
  F        1.5874080    -1.0933110     1.5061340
  F        3.3145200    -0.0009050     0.7339870
  F        1.5874370     1.0896860     1.5087600
  O        1.6149610    -1.2856280    -1.4517330
  O        1.6149580     1.2891350    -1.4486230
  C       -0.4817510     0.0005820    -0.4824320
  C       -1.1416100    -1.2204050    -0.3274150
  C       -1.1416150     1.2211910    -0.3244870
  C       -3.1954030    -0.0001810     0.1494170
  C        1.9826530    -0.0010090     0.8356960
  C       -2.4997500    -1.2060900    -0.0161970
  C       -2.5972234     1.2050438     0.0090284
  C       -4.6532730    -0.0006360     0.5253300
  H       -0.6057720    -2.1536140    -0.4772800
  H       -0.6057800     2.1547590    -0.4721140
  H       -3.0298860    -2.1498930     0.0955450
  H       -3.0298940     2.1496560     0.1007020
  H       -5.1606490     0.8856040     0.1349280
  H       -5.1606620    -0.8858980     0.1327310
  H       -4.7748820    -0.0019860     1.6139510
units angstrom
no_reorient  #important for SAPT in psi4, default
symmetry c1  #important for SAPT in psi4, default
}

set PROPERTIES_ORIGIN ["COM"]
properties('MP2/aug-cc-pvtz', properties = ['dipole'])
--------------------------------------------------------------------------

    Molecular point group: c1
  Charge       = 0
  Multiplicity = 1
  Basis Set: AUG-CC-PVTZ
    Blend: AUG-CC-PVTZ
  Basis Set: (AUG-CC-PVTZ AUX)
    Blend: AUG-CC-PVTZ-JKFIT

    Orbital Energies [Eh]
    ---------------------

    Doubly Occupied:

       1A    -92.217109     2A    -26.372112     3A    -26.371936
       4A    -26.369522     5A    -20.575044     6A    -20.574689
       7A    -11.550857     8A    -11.297373     9A    -11.294522
      10A    -11.283059    11A    -11.279971    12A    -11.266419
      13A    -11.265981    14A    -11.248291    15A     -9.185839
      16A     -6.870695    17A     -6.869972    18A     -6.869669
      19A     -1.757460    20A     -1.665748    21A     -1.664922
      22A     -1.466724    23A     -1.359258    24A     -1.195094
      25A     -1.105889    26A     -1.046990    27A     -1.036708
      28A     -0.977247    29A     -0.918209    30A     -0.878109
      31A     -0.856176    32A     -0.851131    33A     -0.844018
      34A     -0.797286    35A     -0.743345    36A     -0.737149
      37A     -0.725370    38A     -0.695826    39A     -0.693652
      40A     -0.683566    41A     -0.678683    42A     -0.676511
      43A     -0.667728    44A     -0.648618    45A     -0.641732
      46A     -0.621661    47A     -0.603685    48A     -0.568261
      49A     -0.539376    50A     -0.536129    51A     -0.527170
      52A     -0.523381    53A     -0.512592    54A     -0.497654
      55A     -0.466851    56A     -0.382519    57A     -0.362277

  @DF-RHF Final Energy: -1152.81859400063240

   => Energetics <=

    Nuclear Repulsion Energy =           1101.3373306678224708
    One-Electron Energy =               -3778.4763199083204199
    Two-Electron Energy =                1524.3203952398653200
    Total Energy =                      -1152.8185940006324017
  Basis Set: (AUG-CC-PVTZ AUX)
    Blend: AUG-CC-PVTZ-RI
    Molecular point group: c1

    Geometry (in Angstrom), charge = 0, multiplicity = 1:

       Center              X                  Y                   Z               Mass
    ------------   -----------------  -----------------  -----------------  -----------------
         S            1.121641563488     0.001111240608    -0.872154560820    31.972071174400
         F            1.464866563488    -1.093238759392     1.493054439180    18.998403162730
         F            3.191978563488    -0.000832759392     0.720907439180    18.998403162730
         F            1.464895563488     1.089758240608     1.495680439180    18.998403162730
         O            1.492419563488    -1.285555759392    -1.464812560820    15.994914619570
         O            1.492416563488     1.289207240608    -1.461702560820    15.994914619570
         C           -0.604292436512     0.000654240608    -0.495511560820    12.000000000000
         C           -1.264151436512    -1.220332759392    -0.340494560820    12.000000000000
         C           -1.264156436512     1.221263240608    -0.337566560820    12.000000000000
         C           -3.317944436512    -0.000108759392     0.136337439180    12.000000000000
         C            1.860111563488    -0.000936759392     0.822616439180    12.000000000000
         C           -2.622291436512    -1.206017759392    -0.029276560820    12.000000000000
         C           -2.719764836512     1.205116040608    -0.004051160820    12.000000000000
         C           -4.775814436512    -0.000563759392     0.512250439180    12.000000000000
         H           -0.728313436512    -2.153541759392    -0.490359560820     1.007825032230
         H           -0.728321436512     2.154831240608    -0.485193560820     1.007825032230
         H           -3.152427436512    -2.149820759392     0.082465439180     1.007825032230
         H           -3.152435436512     2.149728240608     0.087622439180     1.007825032230
         H           -5.283190436512     0.885676240608     0.121848439180     1.007825032230
         H           -5.283203436512    -0.885825759392     0.119651439180     1.007825032230
         H           -4.897423436512    -0.001913759392     1.600871439180     1.007825032230

  Basis Set: AUG-CC-PVTZ
    Blend: AUG-CC-PVTZ
  Basis Set: (AUG-CC-PVTZ AUX)
    Blend: AUG-CC-PVTZ-JKFIT
	 Reference Energy          =   -1152.8185940006324017 [Eh]
	 Singles Energy            =      -0.0000000000000000 [Eh]
	 Same-Spin Energy          =      -0.7695113671706155 [Eh]
	 Opposite-Spin Energy      =      -2.2435094275316660 [Eh]
	 Correlation Energy        =      -3.0130207947022818 [Eh]
	 Total Energy              =   -1155.8316147953346444 [Eh]

	 ================> DF-SCS-MP2 Energies <==================
	-----------------------------------------------------------
	 SCS Same-Spin Scale       =       0.3333333333333333 [-]
	 SCS Opposite-Spin Scale   =       1.2000000000000000 [-]
	 SCS Same-Spin Energy      =      -0.2565037890568718 [Eh]
	 SCS Opposite-Spin Energy  =      -2.6922113130379990 [Eh]
	 SCS Correlation Energy    =      -2.9487151020948708 [Eh]
	 SCS Total Energy          =   -1155.7673091027272676 [Eh]
	-----------------------------------------------------------

  Dipole Moment: [D]
     X:    -5.3342      Y:     0.0446      Z:     2.1149     Total:     5.7383

*** Psi4 exiting successfully. Buy a developer a beer!
