                               Psi4 1.4a3.dev225

  ==> Input File <==

--------------------------------------------------------------------------
#psi4
#
memory 32 gb

molecule  {
0 1
  S        1.2441830     0.0010390    -0.8590750
  F        1.5874080    -1.0933110     1.5061340
  F        3.3145200    -0.0009050     0.7339870
  F        1.5874370     1.0896860     1.5087600
  O        1.6149610    -1.2856280    -1.4517330
  O        1.6149580     1.2891350    -1.4486230
  C       -0.4817510     0.0005820    -0.4824320
  C       -1.1416100    -1.2204050    -0.3274150
  C       -1.1416150     1.2211910    -0.3244870
  C       -3.1115481     0.0467585     0.1309472
  C        1.9826530    -0.0010090     0.8356960
  C       -2.4997500    -1.2060900    -0.0161970
  C       -2.4997550     1.2061250    -0.0133040
  C       -4.6532730    -0.0006360     0.5253300
  H       -0.6057720    -2.1536140    -0.4772800
  H       -0.6057800     2.1547590    -0.4721140
  H       -3.0298860    -2.1498930     0.0955450
  H       -3.0298940     2.1496560     0.1007020
  H       -5.1606490     0.8856040     0.1349280
  H       -5.1606620    -0.8858980     0.1327310
  H       -4.7748820    -0.0019860     1.6139510
units angstrom
no_reorient  #important for SAPT in psi4, default
symmetry c1  #important for SAPT in psi4, default
}

set PROPERTIES_ORIGIN ["COM"]
properties('MP2/aug-cc-pvtz', properties = ['dipole'])
--------------------------------------------------------------------------

    Molecular point group: c1
  Charge       = 0
  Multiplicity = 1
  Basis Set: AUG-CC-PVTZ
    Blend: AUG-CC-PVTZ
  Basis Set: (AUG-CC-PVTZ AUX)
    Blend: AUG-CC-PVTZ-JKFIT

    Orbital Energies [Eh]
    ---------------------

    Doubly Occupied:

       1A    -92.216739     2A    -26.371940     3A    -26.371916
       4A    -26.369283     5A    -20.574491     6A    -20.574366
       7A    -11.550561     8A    -11.293413     9A    -11.287514
      10A    -11.282887    11A    -11.280213    12A    -11.265793
      13A    -11.256719    14A    -11.252640    15A     -9.185418
      16A     -6.870279    17A     -6.869554    18A     -6.869259
      19A     -1.757318    20A     -1.665657    21A     -1.664748
      22A     -1.466293    23A     -1.358846    24A     -1.206045
      25A     -1.098631    26A     -1.058443    27A     -1.036270
      28A     -0.973221    29A     -0.918076    30A     -0.876455
      31A     -0.856964    32A     -0.851013    33A     -0.845575
      34A     -0.799010    35A     -0.743754    36A     -0.737111
      37A     -0.726506    38A     -0.696011    39A     -0.693647
      40A     -0.685498    41A     -0.678518    42A     -0.669245
      43A     -0.665334    44A     -0.647603    45A     -0.641675
      46A     -0.630705    47A     -0.597480    48A     -0.566009
      49A     -0.542866    50A     -0.537655    51A     -0.523425
      52A     -0.521489    53A     -0.507816    54A     -0.497573
      55A     -0.467052    56A     -0.386237    57A     -0.371182

  @DF-RHF Final Energy: -1152.82063290968381

   => Energetics <=

    Nuclear Repulsion Energy =           1104.0065765985932558
    One-Electron Energy =               -3783.8345310781005537
    Two-Electron Energy =                1527.0073215698234890
    Total Energy =                      -1152.8206329096838090
  Basis Set: (AUG-CC-PVTZ AUX)
    Blend: AUG-CC-PVTZ-RI
    Molecular point group: c1

    Geometry (in Angstrom), charge = 0, multiplicity = 1:

       Center              X                  Y                   Z               Mass
    ------------   -----------------  -----------------  -----------------  -----------------
         S            1.111928330645    -0.001461160404    -0.869968844648    31.972071174400
         F            1.455153330645    -1.095811160404     1.495240155352    18.998403162730
         F            3.182265330645    -0.003405160404     0.723093155352    18.998403162730
         F            1.455182330645     1.087185839596     1.497866155352    18.998403162730
         O            1.482706330645    -1.288128160404    -1.462626844648    15.994914619570
         O            1.482703330645     1.286634839596    -1.459516844648    15.994914619570
         C           -0.614005669355    -0.001918160404    -0.493325844648    12.000000000000
         C           -1.273864669355    -1.222905160404    -0.338308844648    12.000000000000
         C           -1.273869669355     1.218690839596    -0.335380844648    12.000000000000
         C           -3.243802769355     0.044258339596     0.120053355352    12.000000000000
         C            1.850398330645    -0.003509160404     0.824802155352    12.000000000000
         C           -2.632004669355    -1.208590160404    -0.027090844648    12.000000000000
         C           -2.632009669355     1.203624839596    -0.024197844648    12.000000000000
         C           -4.785527669355    -0.003136160404     0.514436155352    12.000000000000
         H           -0.738026669355    -2.156114160404    -0.488173844648     1.007825032230
         H           -0.738034669355     2.152258839596    -0.483007844648     1.007825032230
         H           -3.162140669355    -2.152393160404     0.084651155352     1.007825032230
         H           -3.162148669355     2.147155839596     0.089808155352     1.007825032230
         H           -5.292903669355     0.883103839596     0.124034155352     1.007825032230
         H           -5.292916669355    -0.888398160404     0.121837155352     1.007825032230
         H           -4.907136669355    -0.004486160404     1.603057155352     1.007825032230

  Basis Set: AUG-CC-PVTZ
    Blend: AUG-CC-PVTZ
  Basis Set: (AUG-CC-PVTZ AUX)
    Blend: AUG-CC-PVTZ-JKFIT
	 Reference Energy          =   -1152.8206329096838090 [Eh]
	 Singles Energy            =      -0.0000000000000000 [Eh]
	 Same-Spin Energy          =      -0.7691170445196014 [Eh]
	 Opposite-Spin Energy      =      -2.2422130752047718 [Eh]
	 Correlation Energy        =      -3.0113301197243731 [Eh]
	 Total Energy              =   -1155.8319630294081435 [Eh]

	 ================> DF-SCS-MP2 Energies <==================
	-----------------------------------------------------------
	 SCS Same-Spin Scale       =       0.3333333333333333 [-]
	 SCS Opposite-Spin Scale   =       1.2000000000000000 [-]
	 SCS Same-Spin Energy      =      -0.2563723481732004 [Eh]
	 SCS Opposite-Spin Energy  =      -2.6906556902457259 [Eh]
	 SCS Correlation Energy    =      -2.9470280384189262 [Eh]
	 SCS Total Energy          =   -1155.7676609481027299 [Eh]
	-----------------------------------------------------------

  Dipole Moment: [D]
     X:    -5.2476      Y:    -0.0175      Z:     2.0849     Total:     5.6466

*** Psi4 exiting successfully. Buy a developer a beer!
