                               Psi4 1.4a3.dev225

  ==> Input File <==

--------------------------------------------------------------------------
#psi4
#
memory 32 gb

molecule  {
0 1
  S        1.2441830     0.0010390    -0.8590750
  F        1.5874080    -1.0933110     1.5061340
  F        3.3145200    -0.0009050     0.7339870
  F        1.5874370     1.0896860     1.5087600
  O        1.6149610    -1.2856280    -1.4517330
  O        1.6149580     1.2891350    -1.4486230
  C       -0.4817510     0.0005820    -0.4824320
  C       -1.1416100    -1.2204050    -0.3274150
  C       -1.1416150     1.2211910    -0.3244870
  C       -3.1954030    -0.0001810     0.1494170
  C        1.9826530    -0.0010090     0.8356960
  C       -2.4501311    -1.2921041    -0.0280098
  C       -2.4997550     1.2061250    -0.0133040
  C       -4.6532730    -0.0006360     0.5253300
  H       -0.6057720    -2.1536140    -0.4772800
  H       -0.6057800     2.1547590    -0.4721140
  H       -3.0298860    -2.1498930     0.0955450
  H       -3.0298940     2.1496560     0.1007020
  H       -5.1606490     0.8856040     0.1349280
  H       -5.1606620    -0.8858980     0.1327310
  H       -4.7748820    -0.0019860     1.6139510
units angstrom
no_reorient  #important for SAPT in psi4, default
symmetry c1  #important for SAPT in psi4, default
}

set PROPERTIES_ORIGIN ["COM"]
properties('MP2/aug-cc-pvtz', properties = ['dipole'])
--------------------------------------------------------------------------

    Molecular point group: c1
  Charge       = 0
  Multiplicity = 1
  Basis Set: AUG-CC-PVTZ
    Blend: AUG-CC-PVTZ
  Basis Set: (AUG-CC-PVTZ AUX)
    Blend: AUG-CC-PVTZ-JKFIT

    Orbital Energies [Eh]
    ---------------------

    Doubly Occupied:

       1A    -92.215314     2A    -26.370602     3A    -26.370543
       4A    -26.367914     5A    -20.572989     6A    -20.572623
       7A    -11.548990     8A    -11.299121     9A    -11.291150
      10A    -11.288603    11A    -11.276043    12A    -11.265304
      13A    -11.263919    14A    -11.254581    15A     -9.183864
      16A     -6.868730    17A     -6.868014    18A     -6.867731
      19A     -1.755959    20A     -1.664304    21A     -1.663413
      22A     -1.464625    23A     -1.357232    24A     -1.194150
      25A     -1.094350    26A     -1.061072    27A     -1.038209
      28A     -0.981765    29A     -0.914628    30A     -0.867879
      31A     -0.853947    32A     -0.849664    33A     -0.842859
      34A     -0.798632    35A     -0.742658    36A     -0.735773
      37A     -0.725784    38A     -0.694849    39A     -0.692437
      40A     -0.685246    41A     -0.677213    42A     -0.670617
      43A     -0.665660    44A     -0.646873    45A     -0.641185
      46A     -0.628869    47A     -0.604547    48A     -0.575814
      49A     -0.548731    50A     -0.532772    51A     -0.522056
      52A     -0.515527    53A     -0.510179    54A     -0.495598
      55A     -0.468297    56A     -0.381074    57A     -0.363515

  @DF-RHF Final Energy: -1152.81983509609086

   => Energetics <=

    Nuclear Repulsion Energy =           1101.8471557644745644
    One-Electron Energy =               -3779.5859919315375919
    Two-Electron Energy =                1524.9190010709719445
    Total Energy =                      -1152.8198350960908556
  Basis Set: (AUG-CC-PVTZ AUX)
    Blend: AUG-CC-PVTZ-RI
    Molecular point group: c1

    Geometry (in Angstrom), charge = 0, multiplicity = 1:

       Center              X                  Y                   Z               Mass
    ------------   -----------------  -----------------  -----------------  -----------------
         S            1.113762304765     0.005660975991    -0.870325450727    31.972071174400
         F            1.456987304765    -1.088689024009     1.494883549273    18.998403162730
         F            3.184099304765     0.003716975991     0.722736549273    18.998403162730
         F            1.457016304765     1.094307975991     1.497509549273    18.998403162730
         O            1.484540304765    -1.281006024009    -1.462983450727    15.994914619570
         O            1.484537304765     1.293756975991    -1.459873450727    15.994914619570
         C           -0.612171695235     0.005203975991    -0.493682450727    12.000000000000
         C           -1.272030695235    -1.215783024009    -0.338665450727    12.000000000000
         C           -1.272035695235     1.225812975991    -0.335737450727    12.000000000000
         C           -3.325823695235     0.004440975991     0.138166549273    12.000000000000
         C            1.852232304765     0.003612975991     0.824445549273    12.000000000000
         C           -2.580551795235    -1.287482124009    -0.039260250727    12.000000000000
         C           -2.630175695235     1.210746975991    -0.024554450727    12.000000000000
         C           -4.783693695235     0.003985975991     0.514079549273    12.000000000000
         H           -0.736192695235    -2.148992024009    -0.488530450727     1.007825032230
         H           -0.736200695235     2.159380975991    -0.483364450727     1.007825032230
         H           -3.160306695235    -2.145271024009     0.084294549273     1.007825032230
         H           -3.160314695235     2.154277975991     0.089451549273     1.007825032230
         H           -5.291069695235     0.890225975991     0.123677549273     1.007825032230
         H           -5.291082695235    -0.881276024009     0.121480549273     1.007825032230
         H           -4.905302695235     0.002635975991     1.602700549273     1.007825032230

  Basis Set: AUG-CC-PVTZ
    Blend: AUG-CC-PVTZ
  Basis Set: (AUG-CC-PVTZ AUX)
    Blend: AUG-CC-PVTZ-JKFIT
	 Reference Energy          =   -1152.8198350960908556 [Eh]
	 Singles Energy            =      -0.0000000000000000 [Eh]
	 Same-Spin Energy          =      -0.7691463411044694 [Eh]
	 Opposite-Spin Energy      =      -2.2427976052385197 [Eh]
	 Correlation Energy        =      -3.0119439463429893 [Eh]
	 Total Energy              =   -1155.8317790424339364 [Eh]

	 ================> DF-SCS-MP2 Energies <==================
	-----------------------------------------------------------
	 SCS Same-Spin Scale       =       0.3333333333333333 [-]
	 SCS Opposite-Spin Scale   =       1.2000000000000000 [-]
	 SCS Same-Spin Energy      =      -0.2563821137014898 [Eh]
	 SCS Opposite-Spin Energy  =      -2.6913571262862237 [Eh]
	 SCS Correlation Energy    =      -2.9477392399877136 [Eh]
	 SCS Total Energy          =   -1155.7675743360784963 [Eh]
	-----------------------------------------------------------

  Dipole Moment: [D]
     X:    -5.4897      Y:    -0.0017      Z:     2.1517     Total:     5.8963

*** Psi4 exiting successfully. Buy a developer a beer!
