                               Psi4 1.4a3.dev225

  ==> Input File <==

--------------------------------------------------------------------------
#psi4
#
memory 32 gb

molecule  {
0 1
  S        1.2441830     0.0010390    -0.8590750
  F        1.5874080    -1.0933110     1.5061340
  F        3.3145200    -0.0009050     0.7339870
  F        1.5874370     1.0896860     1.5087600
  O        1.6149610    -1.2856280    -1.4517330
  O        1.6149580     1.2891350    -1.4486230
  C       -0.4817510     0.0005820    -0.4824320
  C       -1.1416100    -1.2204050    -0.3274150
  C       -1.1416150     1.2211910    -0.3244870
  C       -3.1538740     0.0240381     0.1402774
  C        1.9826530    -0.0010090     0.8356960
  C       -2.4997500    -1.2060900    -0.0161970
  C       -2.4997550     1.2061250    -0.0133040
  C       -4.6532730    -0.0006360     0.5253300
  H       -0.6057720    -2.1536140    -0.4772800
  H       -0.6057800     2.1547590    -0.4721140
  H       -3.0298860    -2.1498930     0.0955450
  H       -3.0298940     2.1496560     0.1007020
  H       -5.1606490     0.8856040     0.1349280
  H       -5.1606620    -0.8858980     0.1327310
  H       -4.7748820    -0.0019860     1.6139510
units angstrom
no_reorient  #important for SAPT in psi4, default
symmetry c1  #important for SAPT in psi4, default
}

set PROPERTIES_ORIGIN ["COM"]
properties('MP2/aug-cc-pvtz', properties = ['dipole'])
--------------------------------------------------------------------------

    Molecular point group: c1
  Charge       = 0
  Multiplicity = 1
  Basis Set: AUG-CC-PVTZ
    Blend: AUG-CC-PVTZ
  Basis Set: (AUG-CC-PVTZ AUX)
    Blend: AUG-CC-PVTZ-JKFIT

    Orbital Energies [Eh]
    ---------------------

    Doubly Occupied:

       1A    -92.216420     2A    -26.371678     3A    -26.371656
       4A    -26.369058     5A    -20.574203     6A    -20.574138
       7A    -11.550301     8A    -11.293220     9A    -11.286052
      10A    -11.283834    11A    -11.283692    12A    -11.265354
      13A    -11.261011    14A    -11.252644    15A     -9.185109
      16A     -6.869969    17A     -6.869243    18A     -6.868951
      19A     -1.757069    20A     -1.665395    21A     -1.664513
      22A     -1.466032    23A     -1.358593    24A     -1.201696
      25A     -1.099004    26A     -1.056031    27A     -1.037554
      28A     -0.977229    29A     -0.917573    30A     -0.872971
      31A     -0.857090    32A     -0.850759    33A     -0.845419
      34A     -0.797928    35A     -0.743360    36A     -0.736849
      37A     -0.726078    38A     -0.695716    39A     -0.693402
      40A     -0.684527    41A     -0.678262    42A     -0.669871
      43A     -0.666009    44A     -0.647205    45A     -0.640125
      46A     -0.628114    47A     -0.600953    48A     -0.567980
      49A     -0.538572    50A     -0.534740    51A     -0.528261
      52A     -0.523113    53A     -0.513817    54A     -0.497342
      55A     -0.467773    56A     -0.379875    57A     -0.371842

  @DF-RHF Final Energy: -1152.82869390707629

   => Energetics <=

    Nuclear Repulsion Energy =           1103.2746410162544635
    One-Electron Energy =               -3782.3963155044948508
    Two-Electron Energy =                1526.2929805811641017
    Total Energy =                      -1152.8286939070762855
  Basis Set: (AUG-CC-PVTZ AUX)
    Blend: AUG-CC-PVTZ-RI
    Molecular point group: c1

    Geometry (in Angstrom), charge = 0, multiplicity = 1:

       Center              X                  Y                   Z               Mass
    ------------   -----------------  -----------------  -----------------  -----------------
         S            1.114195669271    -0.000244060696    -0.870468650272    31.972071174400
         F            1.457420669271    -1.094594060696     1.494740349728    18.998403162730
         F            3.184532669271    -0.002188060696     0.722593349728    18.998403162730
         F            1.457449669271     1.088402939304     1.497366349728    18.998403162730
         O            1.484973669271    -1.286911060696    -1.463126650272    15.994914619570
         O            1.484970669271     1.287851939304    -1.460016650272    15.994914619570
         C           -0.611738330729    -0.000701060696    -0.493825650272    12.000000000000
         C           -1.271597330729    -1.221688060696    -0.338808650272    12.000000000000
         C           -1.271602330729     1.219907939304    -0.335880650272    12.000000000000
         C           -3.283861330729     0.022755039304     0.128883749728    12.000000000000
         C            1.852665669271    -0.002292060696     0.824302349728    12.000000000000
         C           -2.629737330729    -1.207373060696    -0.027590650272    12.000000000000
         C           -2.629742330729     1.204841939304    -0.024697650272    12.000000000000
         C           -4.783260330729    -0.001919060696     0.513936349728    12.000000000000
         H           -0.735759330729    -2.154897060696    -0.488673650272     1.007825032230
         H           -0.735767330729     2.153475939304    -0.483507650272     1.007825032230
         H           -3.159873330729    -2.151176060696     0.084151349728     1.007825032230
         H           -3.159881330729     2.148372939304     0.089308349728     1.007825032230
         H           -5.290636330729     0.884320939304     0.123534349728     1.007825032230
         H           -5.290649330729    -0.887181060696     0.121337349728     1.007825032230
         H           -4.904869330729    -0.003269060696     1.602557349728     1.007825032230

  Basis Set: AUG-CC-PVTZ
    Blend: AUG-CC-PVTZ
  Basis Set: (AUG-CC-PVTZ AUX)
    Blend: AUG-CC-PVTZ-JKFIT
	 Reference Energy          =   -1152.8286939070762855 [Eh]
	 Singles Energy            =      -0.0000000000000000 [Eh]
	 Same-Spin Energy          =      -0.7693287073573561 [Eh]
	 Opposite-Spin Energy      =      -2.2422666091131083 [Eh]
	 Correlation Energy        =      -3.0115953164704643 [Eh]
	 Total Energy              =   -1155.8402892235467334 [Eh]

	 ================> DF-SCS-MP2 Energies <==================
	-----------------------------------------------------------
	 SCS Same-Spin Scale       =       0.3333333333333333 [-]
	 SCS Opposite-Spin Scale   =       1.2000000000000000 [-]
	 SCS Same-Spin Energy      =      -0.2564429024524520 [Eh]
	 SCS Opposite-Spin Energy  =      -2.6907199309357299 [Eh]
	 SCS Correlation Energy    =      -2.9471628333881821 [Eh]
	 SCS Total Energy          =   -1155.7758567404644054 [Eh]
	-----------------------------------------------------------

  Dipole Moment: [D]
     X:    -5.3356      Y:    -0.0106      Z:     2.1099     Total:     5.7377

*** Psi4 exiting successfully. Buy a developer a beer!
