                               Psi4 1.4a3.dev225

  ==> Input File <==

--------------------------------------------------------------------------
#psi4
#
memory 32 gb

molecule  {
0 1
  S        1.2441830     0.0010390    -0.8590750
  F        1.5874080    -1.0933110     1.5061340
  F        3.3145200    -0.0009050     0.7339870
  F        1.5874370     1.0896860     1.5087600
  O        1.6149610    -1.2856280    -1.4517330
  O        1.6149580     1.2891350    -1.4486230
  C       -0.4817510     0.0005820    -0.4824320
  C       -1.1416100    -1.2204050    -0.3274150
  C       -1.1416150     1.2211910    -0.3244870
  C       -3.1954030    -0.0001810     0.1494170
  C        1.9826530    -0.0010090     0.8356960
  C       -2.4997500    -1.2060900    -0.0161970
  C       -2.5192487     1.2059088    -0.0088375
  C       -4.6532730    -0.0006360     0.5253300
  H       -0.6057720    -2.1536140    -0.4772800
  H       -0.6057800     2.1547590    -0.4721140
  H       -3.0298860    -2.1498930     0.0955450
  H       -3.0298940     2.1496560     0.1007020
  H       -5.1606490     0.8856040     0.1349280
  H       -5.1606620    -0.8858980     0.1327310
  H       -4.7748820    -0.0019860     1.6139510
units angstrom
no_reorient  #important for SAPT in psi4, default
symmetry c1  #important for SAPT in psi4, default
}

set PROPERTIES_ORIGIN ["COM"]
properties('MP2/aug-cc-pvtz', properties = ['dipole'])
--------------------------------------------------------------------------

    Molecular point group: c1
  Charge       = 0
  Multiplicity = 1
  Basis Set: AUG-CC-PVTZ
    Blend: AUG-CC-PVTZ
  Basis Set: (AUG-CC-PVTZ AUX)
    Blend: AUG-CC-PVTZ-JKFIT

    Orbital Energies [Eh]
    ---------------------

    Doubly Occupied:

       1A    -92.216328     2A    -26.371556     3A    -26.371514
       4A    -26.368980     5A    -20.574155     6A    -20.574081
       7A    -11.550215     8A    -11.293387     9A    -11.287411
      10A    -11.285990    11A    -11.284224    12A    -11.265415
      13A    -11.265279    14A    -11.251571    15A     -9.185031
      16A     -6.869890    17A     -6.869163    18A     -6.868871
      19A     -1.756955    20A     -1.665261    21A     -1.664415
      22A     -1.465976    23A     -1.358537    24A     -1.197274
      25A     -1.101680    26A     -1.051650    27A     -1.038895
      28A     -0.980208    29A     -0.917405    30A     -0.871534
      31A     -0.856668    32A     -0.850636    33A     -0.844830
      34A     -0.796815    35A     -0.743067    36A     -0.736705
      37A     -0.725652    38A     -0.695502    39A     -0.693286
      40A     -0.683317    41A     -0.678132    42A     -0.672142
      43A     -0.666716    44A     -0.647154    45A     -0.639917
      46A     -0.624698    47A     -0.604664    48A     -0.569433
      49A     -0.543726    50A     -0.531624    51A     -0.529304
      52A     -0.522997    53A     -0.514473    54A     -0.497241
      55A     -0.467918    56A     -0.375598    57A     -0.370037

  @DF-RHF Final Energy: -1152.82994616459087

   => Energetics <=

    Nuclear Repulsion Energy =           1102.3279821532876213
    One-Electron Energy =               -3780.5056576658489575
    Two-Electron Energy =                1525.3477293479702439
    Total Energy =                      -1152.8299461645908650
  Basis Set: (AUG-CC-PVTZ AUX)
    Blend: AUG-CC-PVTZ-RI
    Molecular point group: c1

    Geometry (in Angstrom), charge = 0, multiplicity = 1:

       Center              X                  Y                   Z               Mass
    ------------   -----------------  -----------------  -----------------  -----------------
         S            1.117464569042     0.001064903781    -0.871197509814    31.972071174400
         F            1.460689569042    -1.093285096219     1.494011490186    18.998403162730
         F            3.187801569042    -0.000879096219     0.721864490186    18.998403162730
         F            1.460718569042     1.089711903781     1.496637490186    18.998403162730
         O            1.488242569042    -1.285602096219    -1.463855509814    15.994914619570
         O            1.488239569042     1.289160903781    -1.460745509814    15.994914619570
         C           -0.608469430958     0.000607903781    -0.494554509814    12.000000000000
         C           -1.268328430958    -1.220379096219    -0.339537509814    12.000000000000
         C           -1.268333430958     1.221216903781    -0.336609509814    12.000000000000
         C           -3.322121430958    -0.000155096219     0.137294490186    12.000000000000
         C            1.855934569042    -0.000983096219     0.823573490186    12.000000000000
         C           -2.626468430958    -1.206064096219    -0.028319509814    12.000000000000
         C           -2.645967130958     1.205934703781    -0.020960009814    12.000000000000
         C           -4.779991430958    -0.000610096219     0.513207490186    12.000000000000
         H           -0.732490430958    -2.153588096219    -0.489402509814     1.007825032230
         H           -0.732498430958     2.154784903781    -0.484236509814     1.007825032230
         H           -3.156604430958    -2.149867096219     0.083422490186     1.007825032230
         H           -3.156612430958     2.149681903781     0.088579490186     1.007825032230
         H           -5.287367430958     0.885629903781     0.122805490186     1.007825032230
         H           -5.287380430958    -0.885872096219     0.120608490186     1.007825032230
         H           -4.901600430958    -0.001960096219     1.601828490186     1.007825032230

  Basis Set: AUG-CC-PVTZ
    Blend: AUG-CC-PVTZ
  Basis Set: (AUG-CC-PVTZ AUX)
    Blend: AUG-CC-PVTZ-JKFIT
	 Reference Energy          =   -1152.8299461645908650 [Eh]
	 Singles Energy            =      -0.0000000000000000 [Eh]
	 Same-Spin Energy          =      -0.7696704461477941 [Eh]
	 Opposite-Spin Energy      =      -2.2427726705199134 [Eh]
	 Correlation Energy        =      -3.0124431166677077 [Eh]
	 Total Energy              =   -1155.8423892812586473 [Eh]

	 ================> DF-SCS-MP2 Energies <==================
	-----------------------------------------------------------
	 SCS Same-Spin Scale       =       0.3333333333333333 [-]
	 SCS Opposite-Spin Scale   =       1.2000000000000000 [-]
	 SCS Same-Spin Energy      =      -0.2565568153825980 [Eh]
	 SCS Opposite-Spin Energy  =      -2.6913272046238959 [Eh]
	 SCS Correlation Energy    =      -2.9478840200064940 [Eh]
	 SCS Total Energy          =   -1155.7778301845974056 [Eh]
	-----------------------------------------------------------

  Dipole Moment: [D]
     X:    -5.4056      Y:     0.0083      Z:     2.1313     Total:     5.8106

*** Psi4 exiting successfully. Buy a developer a beer!
