                               Psi4 1.4a3.dev225

  ==> Input File <==

--------------------------------------------------------------------------
#psi4
#
memory 32 gb

molecule  {
0 1
  S        1.2441830     0.0010390    -0.8590750
  F        1.5874080    -1.0933110     1.5061340
  F        3.3145200    -0.0009050     0.7339870
  F        1.5874370     1.0896860     1.5087600
  O        1.6149610    -1.2856280    -1.4517330
  O        1.6149580     1.2891350    -1.4486230
  C       -0.4622109     0.0005872    -0.4866962
  C       -1.1416100    -1.2204050    -0.3274150
  C       -1.1416150     1.2211910    -0.3244870
  C       -3.1954030    -0.0001810     0.1494170
  C        1.9826530    -0.0010090     0.8356960
  C       -2.4997500    -1.2060900    -0.0161970
  C       -2.4997550     1.2061250    -0.0133040
  C       -4.6532730    -0.0006360     0.5253300
  H       -0.6057720    -2.1536140    -0.4772800
  H       -0.6057800     2.1547590    -0.4721140
  H       -3.0298860    -2.1498930     0.0955450
  H       -3.0298940     2.1496560     0.1007020
  H       -5.1606490     0.8856040     0.1349280
  H       -5.1606620    -0.8858980     0.1327310
  H       -4.7748820    -0.0019860     1.6139510
units angstrom
no_reorient  #important for SAPT in psi4, default
symmetry c1  #important for SAPT in psi4, default
}

set PROPERTIES_ORIGIN ["COM"]
properties('MP2/aug-cc-pvtz', properties = ['dipole'])
--------------------------------------------------------------------------

    Molecular point group: c1
  Charge       = 0
  Multiplicity = 1
  Basis Set: AUG-CC-PVTZ
    Blend: AUG-CC-PVTZ
  Basis Set: (AUG-CC-PVTZ AUX)
    Blend: AUG-CC-PVTZ-JKFIT

    Orbital Energies [Eh]
    ---------------------

    Doubly Occupied:

       1A    -92.216119     2A    -26.371106     3A    -26.371084
       4A    -26.368452     5A    -20.573487     6A    -20.573468
       7A    -11.549575     8A    -11.292519     9A    -11.288968
      10A    -11.286635    11A    -11.286507    12A    -11.265238
      13A    -11.265201    14A    -11.253075    15A     -9.184889
      16A     -6.869762    17A     -6.869082    18A     -6.868743
      19A     -1.756499    20A     -1.664833    21A     -1.663940
      22A     -1.466003    23A     -1.358134    24A     -1.196527
      25A     -1.101781    26A     -1.052761    27A     -1.039009
      28A     -0.982353    29A     -0.917329    30A     -0.868697
      31A     -0.857646    32A     -0.850192    33A     -0.845530
      34A     -0.796527    35A     -0.742750    36A     -0.736317
      37A     -0.725500    38A     -0.695217    39A     -0.692902
      40A     -0.683737    41A     -0.677701    42A     -0.672057
      43A     -0.666651    44A     -0.646737    45A     -0.639336
      46A     -0.623456    47A     -0.605444    48A     -0.570196
      49A     -0.545910    50A     -0.531503    51A     -0.525473
      52A     -0.521913    53A     -0.515100    54A     -0.496784
      55A     -0.469859    56A     -0.373995    57A     -0.372248

  @DF-RHF Final Energy: -1152.83002969874087

   => Energetics <=

    Nuclear Repulsion Energy =           1102.7847809956781475
    One-Electron Energy =               -3781.4247055276910032
    Two-Electron Energy =                1525.8098948332717555
    Total Energy =                      -1152.8300296987408728
  Basis Set: (AUG-CC-PVTZ AUX)
    Blend: AUG-CC-PVTZ-RI
    Molecular point group: c1

    Geometry (in Angstrom), charge = 0, multiplicity = 1:

       Center              X                  Y                   Z               Mass
    ------------   -----------------  -----------------  -----------------  -----------------
         S            1.115373583559     0.001053043696    -0.870729818558    31.972071174400
         F            1.458598583559    -1.093296956304     1.494479181442    18.998403162730
         F            3.185710583559    -0.000890956304     0.722332181442    18.998403162730
         F            1.458627583559     1.089700043696     1.497105181442    18.998403162730
         O            1.486151583559    -1.285613956304    -1.463387818558    15.994914619570
         O            1.486148583559     1.289149043696    -1.460277818558    15.994914619570
         C           -0.591020316441     0.000601243696    -0.498351018558    12.000000000000
         C           -1.270419416441    -1.220390956304    -0.339069818558    12.000000000000
         C           -1.270424416441     1.221205043696    -0.336141818558    12.000000000000
         C           -3.324212416441    -0.000166956304     0.137762181442    12.000000000000
         C            1.853843583559    -0.000994956304     0.824041181442    12.000000000000
         C           -2.628559416441    -1.206075956304    -0.027851818558    12.000000000000
         C           -2.628564416441     1.206139043696    -0.024958818558    12.000000000000
         C           -4.782082416441    -0.000621956304     0.513675181442    12.000000000000
         H           -0.734581416441    -2.153599956304    -0.488934818558     1.007825032230
         H           -0.734589416441     2.154773043696    -0.483768818558     1.007825032230
         H           -3.158695416441    -2.149878956304     0.083890181442     1.007825032230
         H           -3.158703416441     2.149670043696     0.089047181442     1.007825032230
         H           -5.289458416441     0.885618043696     0.123273181442     1.007825032230
         H           -5.289471416441    -0.885883956304     0.121076181442     1.007825032230
         H           -4.903691416441    -0.001971956304     1.602296181442     1.007825032230

  Basis Set: AUG-CC-PVTZ
    Blend: AUG-CC-PVTZ
  Basis Set: (AUG-CC-PVTZ AUX)
    Blend: AUG-CC-PVTZ-JKFIT
	 Reference Energy          =   -1152.8300296987408728 [Eh]
	 Singles Energy            =      -0.0000000000000000 [Eh]
	 Same-Spin Energy          =      -0.7696799086388924 [Eh]
	 Opposite-Spin Energy      =      -2.2427104509721278 [Eh]
	 Correlation Energy        =      -3.0123903596110200 [Eh]
	 Total Energy              =   -1155.8424200583519905 [Eh]

	 ================> DF-SCS-MP2 Energies <==================
	-----------------------------------------------------------
	 SCS Same-Spin Scale       =       0.3333333333333333 [-]
	 SCS Opposite-Spin Scale   =       1.2000000000000000 [-]
	 SCS Same-Spin Energy      =      -0.2565599695462975 [Eh]
	 SCS Opposite-Spin Energy  =      -2.6912525411665533 [Eh]
	 SCS Correlation Energy    =      -2.9478125107128506 [Eh]
	 SCS Total Energy          =   -1155.7778422094536381 [Eh]
	-----------------------------------------------------------

  Dipole Moment: [D]
     X:    -5.4861      Y:    -0.0026      Z:     2.1479     Total:     5.8916

*** Psi4 exiting successfully. Buy a developer a beer!
