                               Psi4 1.4a3.dev225

  ==> Input File <==

--------------------------------------------------------------------------
#psi4
#
memory 32 gb

molecule  {
0 1
  S        1.2441830     0.0010390    -0.8590750
  F        1.5874080    -1.0933110     1.5061340
  F        3.3145200    -0.0009050     0.7339870
  F        1.5874370     1.0896860     1.5087600
  O        1.6402818    -1.3734959    -1.4922063
  O        1.6149580     1.2891350    -1.4486230
  C       -0.4817510     0.0005820    -0.4824320
  C       -1.1416100    -1.2204050    -0.3274150
  C       -1.1416150     1.2211910    -0.3244870
  C       -3.1954030    -0.0001810     0.1494170
  C        1.9826530    -0.0010090     0.8356960
  C       -2.4997500    -1.2060900    -0.0161970
  C       -2.4997550     1.2061250    -0.0133040
  C       -4.6532730    -0.0006360     0.5253300
  H       -0.6057720    -2.1536140    -0.4772800
  H       -0.6057800     2.1547590    -0.4721140
  H       -3.0298860    -2.1498930     0.0955450
  H       -3.0298940     2.1496560     0.1007020
  H       -5.1606490     0.8856040     0.1349280
  H       -5.1606620    -0.8858980     0.1327310
  H       -4.7748820    -0.0019860     1.6139510
units angstrom
no_reorient  #important for SAPT in psi4, default
symmetry c1  #important for SAPT in psi4, default
}

set PROPERTIES_ORIGIN ["COM"]
properties('MP2/aug-cc-pvtz', properties = ['dipole'])
--------------------------------------------------------------------------

    Molecular point group: c1
  Charge       = 0
  Multiplicity = 1
  Basis Set: AUG-CC-PVTZ
    Blend: AUG-CC-PVTZ
  Basis Set: (AUG-CC-PVTZ AUX)
    Blend: AUG-CC-PVTZ-JKFIT

    Orbital Energies [Eh]
    ---------------------

    Doubly Occupied:

       1A    -92.220271     2A    -26.375788     3A    -26.373875
       4A    -26.371429     5A    -20.580032     6A    -20.571784
       7A    -11.556455     8A    -11.297651     9A    -11.289497
      10A    -11.287554    11A    -11.286248    12A    -11.267068
      13A    -11.266489    14A    -11.253683    15A     -9.188825
      16A     -6.873543    17A     -6.872852    18A     -6.872010
      19A     -1.759850    20A     -1.668445    21A     -1.666791
      22A     -1.445463    23A     -1.325233    24A     -1.200103
      25A     -1.103700    26A     -1.055533    27A     -1.043425
      28A     -0.983097    29A     -0.921655    30A     -0.871716
      31A     -0.858639    32A     -0.853581    33A     -0.847356
      34A     -0.799200    35A     -0.743496    36A     -0.739195
      37A     -0.725373    38A     -0.698094    39A     -0.695653
      40A     -0.685028    41A     -0.680690    42A     -0.671215
      43A     -0.660020    44A     -0.636998    45A     -0.635872
      46A     -0.626851    47A     -0.606252    48A     -0.570885
      49A     -0.545397    50A     -0.534230    51A     -0.527809
      52A     -0.512804    53A     -0.506238    54A     -0.485118
      55A     -0.467325    56A     -0.376036    57A     -0.374016

  @DF-RHF Final Energy: -1152.81124664494450

   => Energetics <=

    Nuclear Repulsion Energy =           1097.4902712667071683
    One-Electron Energy =               -3770.7761567579727853
    Two-Electron Energy =                1520.4746388463211133
    Total Energy =                      -1152.8112466449445037
  Basis Set: (AUG-CC-PVTZ AUX)
    Blend: AUG-CC-PVTZ-RI
    Molecular point group: c1

    Geometry (in Angstrom), charge = 0, multiplicity = 1:

       Center              X                  Y                   Z               Mass
    ------------   -----------------  -----------------  -----------------  -----------------
         S            1.114612361296     0.007327273108    -0.868068367905    31.972071174400
         F            1.457837361296    -1.087022726892     1.497140632095    18.998403162730
         F            3.184949361296     0.005383273108     0.724993632095    18.998403162730
         F            1.457866361296     1.095974273108     1.499766632095    18.998403162730
         O            1.510711161296    -1.367207626892    -1.501199667905    15.994914619570
         O            1.485387361296     1.295423273108    -1.457616367905    15.994914619570
         C           -0.611321638704     0.006870273108    -0.491425367905    12.000000000000
         C           -1.271180638704    -1.214116726892    -0.336408367905    12.000000000000
         C           -1.271185638704     1.227479273108    -0.333480367905    12.000000000000
         C           -3.324973638704     0.006107273108     0.140423632095    12.000000000000
         C            1.853082361296     0.005279273108     0.826702632095    12.000000000000
         C           -2.629320638704    -1.199801726892    -0.025190367905    12.000000000000
         C           -2.629325638704     1.212413273108    -0.022297367905    12.000000000000
         C           -4.782843638704     0.005652273108     0.516336632095    12.000000000000
         H           -0.735342638704    -2.147325726892    -0.486273367905     1.007825032230
         H           -0.735350638704     2.161047273108    -0.481107367905     1.007825032230
         H           -3.159456638704    -2.143604726892     0.086551632095     1.007825032230
         H           -3.159464638704     2.155944273108     0.091708632095     1.007825032230
         H           -5.290219638704     0.891892273108     0.125934632095     1.007825032230
         H           -5.290232638704    -0.879609726892     0.123737632095     1.007825032230
         H           -4.904452638704     0.004302273108     1.604957632095     1.007825032230

  Basis Set: AUG-CC-PVTZ
    Blend: AUG-CC-PVTZ
  Basis Set: (AUG-CC-PVTZ AUX)
    Blend: AUG-CC-PVTZ-JKFIT
	 Reference Energy          =   -1152.8112466449445037 [Eh]
	 Singles Energy            =      -0.0000000000000000 [Eh]
	 Same-Spin Energy          =      -0.7714973207575793 [Eh]
	 Opposite-Spin Energy      =      -2.2475750215811159 [Eh]
	 Correlation Energy        =      -3.0190723423386951 [Eh]
	 Total Energy              =   -1155.8303189872831354 [Eh]

	 ================> DF-SCS-MP2 Energies <==================
	-----------------------------------------------------------
	 SCS Same-Spin Scale       =       0.3333333333333333 [-]
	 SCS Opposite-Spin Scale   =       1.2000000000000000 [-]
	 SCS Same-Spin Energy      =      -0.2571657735858597 [Eh]
	 SCS Opposite-Spin Energy  =      -2.6970900258973391 [Eh]
	 SCS Correlation Energy    =      -2.9542557994831991 [Eh]
	 SCS Total Energy          =   -1155.7655024444277387 [Eh]
	-----------------------------------------------------------

  Dipole Moment: [D]
     X:    -5.6385      Y:     0.3909      Z:     2.4065     Total:     6.1431

*** Psi4 exiting successfully. Buy a developer a beer!
