                               Psi4 1.4a3.dev225

  ==> Input File <==

--------------------------------------------------------------------------
#psi4
#
memory 32 gb

molecule  {
0 1
  S        1.2441830     0.0010390    -0.8590750
  F        1.5874080    -1.0933110     1.5061340
  F        3.3145200    -0.0009050     0.7339870
  F        1.5874370     1.0896860     1.5087600
  O        1.6149610    -1.2856280    -1.4517330
  O        1.6149580     1.2891350    -1.4486230
  C       -0.4817510     0.0005820    -0.4824320
  C       -1.1416100    -1.2204050    -0.3274150
  C       -1.1652404     1.2648930    -0.3188320
  C       -3.1954030    -0.0001810     0.1494170
  C        1.9826530    -0.0010090     0.8356960
  C       -2.4997500    -1.2060900    -0.0161970
  C       -2.4997550     1.2061250    -0.0133040
  C       -4.6532730    -0.0006360     0.5253300
  H       -0.6057720    -2.1536140    -0.4772800
  H       -0.6057800     2.1547590    -0.4721140
  H       -3.0298860    -2.1498930     0.0955450
  H       -3.0298940     2.1496560     0.1007020
  H       -5.1606490     0.8856040     0.1349280
  H       -5.1606620    -0.8858980     0.1327310
  H       -4.7748820    -0.0019860     1.6139510
units angstrom
no_reorient  #important for SAPT in psi4, default
symmetry c1  #important for SAPT in psi4, default
}

set PROPERTIES_ORIGIN ["COM"]
properties('MP2/aug-cc-pvtz', properties = ['dipole'])
--------------------------------------------------------------------------

    Molecular point group: c1
  Charge       = 0
  Multiplicity = 1
  Basis Set: AUG-CC-PVTZ
    Blend: AUG-CC-PVTZ
  Basis Set: (AUG-CC-PVTZ AUX)
    Blend: AUG-CC-PVTZ-JKFIT

    Orbital Energies [Eh]
    ---------------------

    Doubly Occupied:

       1A    -92.215531     2A    -26.370925     3A    -26.370781
       4A    -26.368249     5A    -20.573330     6A    -20.573165
       7A    -11.549332     8A    -11.295849     9A    -11.289164
      10A    -11.286045    11A    -11.285392    12A    -11.265244
      13A    -11.263547    14A    -11.253211    15A     -9.184123
      16A     -6.868988    17A     -6.868259    18A     -6.867986
      19A     -1.756255    20A     -1.664589    21A     -1.663721
      22A     -1.465011    23A     -1.357696    24A     -1.195461
      25A     -1.097611    26A     -1.057329    27A     -1.038426
      28A     -0.980705    29A     -0.916103    30A     -0.867842
      31A     -0.857409    32A     -0.849964    33A     -0.845358
      34A     -0.795725    35A     -0.742258    36A     -0.736077
      37A     -0.725393    38A     -0.695001    39A     -0.692861
      40A     -0.683603    41A     -0.677503    42A     -0.675181
      43A     -0.666149    44A     -0.647212    45A     -0.636311
      46A     -0.627847    47A     -0.605537    48A     -0.568998
      49A     -0.548490    50A     -0.530443    51A     -0.525534
      52A     -0.520920    53A     -0.513607    54A     -0.496731
      55A     -0.467330    56A     -0.377716    57A     -0.368743

  @DF-RHF Final Energy: -1152.82742869839080

   => Energetics <=

    Nuclear Repulsion Energy =           1101.6103130727542521
    One-Electron Energy =               -3779.0999442170150360
    Two-Electron Energy =                1524.6622024458699798
    Total Energy =                      -1152.8274286983908041
  Basis Set: (AUG-CC-PVTZ AUX)
    Blend: AUG-CC-PVTZ-RI
    Molecular point group: c1

    Geometry (in Angstrom), charge = 0, multiplicity = 1:

       Center              X                  Y                   Z               Mass
    ------------   -----------------  -----------------  -----------------  -----------------
         S            1.117685898370    -0.001287732106    -0.871261176079    31.972071174400
         F            1.460910898370    -1.095637732106     1.493947823921    18.998403162730
         F            3.188022898370    -0.003231732106     0.721800823921    18.998403162730
         F            1.460939898370     1.087359267894     1.496573823921    18.998403162730
         O            1.488463898370    -1.287954732106    -1.463919176079    15.994914619570
         O            1.488460898370     1.286808267894    -1.460809176079    15.994914619570
         C           -0.608248101630    -0.001744732106    -0.494618176079    12.000000000000
         C           -1.268107101630    -1.222731732106    -0.339601176079    12.000000000000
         C           -1.291737501630     1.262566267894    -0.331018176079    12.000000000000
         C           -3.321900101630    -0.002507732106     0.137230823921    12.000000000000
         C            1.856155898370    -0.003335732106     0.823509823921    12.000000000000
         C           -2.626247101630    -1.208416732106    -0.028383176079    12.000000000000
         C           -2.626252101630     1.203798267894    -0.025490176079    12.000000000000
         C           -4.779770101630    -0.002962732106     0.513143823921    12.000000000000
         H           -0.732269101630    -2.155940732106    -0.489466176079     1.007825032230
         H           -0.732277101630     2.152432267894    -0.484300176079     1.007825032230
         H           -3.156383101630    -2.152219732106     0.083358823921     1.007825032230
         H           -3.156391101630     2.147329267894     0.088515823921     1.007825032230
         H           -5.287146101630     0.883277267894     0.122741823921     1.007825032230
         H           -5.287159101630    -0.888224732106     0.120544823921     1.007825032230
         H           -4.901379101630    -0.004312732106     1.601764823921     1.007825032230

  Basis Set: AUG-CC-PVTZ
    Blend: AUG-CC-PVTZ
  Basis Set: (AUG-CC-PVTZ AUX)
    Blend: AUG-CC-PVTZ-JKFIT
	 Reference Energy          =   -1152.8274286983908041 [Eh]
	 Singles Energy            =      -0.0000000000000000 [Eh]
	 Same-Spin Energy          =      -0.7695835079339832 [Eh]
	 Opposite-Spin Energy      =      -2.2428997953429128 [Eh]
	 Correlation Energy        =      -3.0124833032768961 [Eh]
	 Total Energy              =   -1155.8399120016676989 [Eh]

	 ================> DF-SCS-MP2 Energies <==================
	-----------------------------------------------------------
	 SCS Same-Spin Scale       =       0.3333333333333333 [-]
	 SCS Opposite-Spin Scale   =       1.2000000000000000 [-]
	 SCS Same-Spin Energy      =      -0.2565278359779944 [Eh]
	 SCS Opposite-Spin Energy  =      -2.6914797544114952 [Eh]
	 SCS Correlation Energy    =      -2.9480075903894898 [Eh]
	 SCS Total Energy          =   -1155.7754362887803836 [Eh]
	-----------------------------------------------------------

  Dipole Moment: [D]
     X:    -5.4529      Y:    -0.0229      Z:     2.1395     Total:     5.8576

*** Psi4 exiting successfully. Buy a developer a beer!
