                               Psi4 1.4a3.dev225

  ==> Input File <==

--------------------------------------------------------------------------
#psi4
#
memory 32 gb

molecule  {
0 1
  S        1.2441830     0.0010390    -0.8590750
  F        1.5874080    -1.0933110     1.5061340
  F        3.3145200    -0.0009050     0.7339870
  F        1.5874370     1.0896860     1.5087600
  O        1.6149610    -1.2856280    -1.4517330
  O        1.6149580     1.2891350    -1.4486230
  C       -0.4817510     0.0005820    -0.4824320
  C       -1.1416100    -1.2204050    -0.3274150
  C       -1.1416150     1.2211910    -0.3244870
  C       -3.1954030    -0.0001810     0.1494170
  C        1.9826530    -0.0010090     0.8356960
  C       -2.4997500    -1.2060900    -0.0161970
  C       -2.4997550     1.2061250    -0.0133040
  C       -4.6532730    -0.0006360     0.5253300
  H       -0.6057720    -2.1536140    -0.4772800
  H       -0.6057800     2.1547590    -0.4721140
  H       -3.0298860    -2.1498930     0.0955450
  H       -3.0298940     2.1496560     0.1007020
  H       -5.1606490     0.8856040     0.1349280
  H       -5.1606620    -0.8858980     0.1327310
  H       -4.7771024    -0.0020106     1.6338274
units angstrom
no_reorient  #important for SAPT in psi4, default
symmetry c1  #important for SAPT in psi4, default
}

set PROPERTIES_ORIGIN ["COM"]
properties('MP2/aug-cc-pvtz', properties = ['dipole'])
--------------------------------------------------------------------------

    Molecular point group: c1
  Charge       = 0
  Multiplicity = 1
  Basis Set: AUG-CC-PVTZ
    Blend: AUG-CC-PVTZ
  Basis Set: (AUG-CC-PVTZ AUX)
    Blend: AUG-CC-PVTZ-JKFIT

    Orbital Energies [Eh]
    ---------------------

    Doubly Occupied:

       1A    -92.216126     2A    -26.371429     3A    -26.371407
       4A    -26.368842     5A    -20.573940     6A    -20.573920
       7A    -11.550053     8A    -11.293049     9A    -11.287665
      10A    -11.284684    11A    -11.284582    12A    -11.265186
      13A    -11.265148    14A    -11.254760    15A     -9.184822
      16A     -6.869681    17A     -6.868954    18A     -6.868665
      19A     -1.756831    20A     -1.665146    21A     -1.664289
      22A     -1.465787    23A     -1.358356    24A     -1.198043
      25A     -1.100509    26A     -1.053664    27A     -1.038874
      28A     -0.979960    29A     -0.916812    30A     -0.869782
      31A     -0.856679    32A     -0.850516    33A     -0.844919
      34A     -0.796847    35A     -0.742982    36A     -0.736600
      37A     -0.725673    38A     -0.695459    39A     -0.693191
      40A     -0.683922    41A     -0.678022    42A     -0.671275
      43A     -0.666409    44A     -0.647099    45A     -0.638575
      46A     -0.625244    47A     -0.601807    48A     -0.570179
      49A     -0.545667    50A     -0.531908    51A     -0.526384
      52A     -0.522718    53A     -0.514683    54A     -0.497103
      55A     -0.468031    56A     -0.373811    57A     -0.372337

  @DF-RHF Final Energy: -1152.83003165876880

   => Energetics <=

    Nuclear Repulsion Energy =           1102.5037137889421501
    One-Electron Energy =               -3780.8694721490678603
    Two-Electron Energy =                1525.5357267013569071
    Total Energy =                      -1152.8300316587688030
  Basis Set: (AUG-CC-PVTZ AUX)
    Blend: AUG-CC-PVTZ-RI
    Molecular point group: c1

    Geometry (in Angstrom), charge = 0, multiplicity = 1:

       Center              X                  Y                   Z               Mass
    ------------   -----------------  -----------------  -----------------  -----------------
         S            1.116430308627     0.001053432927    -0.871047669253    31.972071174400
         F            1.459655308627    -1.093296567073     1.494161330747    18.998403162730
         F            3.186767308627    -0.000890567073     0.722014330747    18.998403162730
         F            1.459684308627     1.089700432927     1.496787330747    18.998403162730
         O            1.487208308627    -1.285613567073    -1.463705669253    15.994914619570
         O            1.487205308627     1.289149432927    -1.460595669253    15.994914619570
         C           -0.609503691373     0.000596432927    -0.494404669253    12.000000000000
         C           -1.269362691373    -1.220390567073    -0.339387669253    12.000000000000
         C           -1.269367691373     1.221205432927    -0.336459669253    12.000000000000
         C           -3.323155691373    -0.000166567073     0.137444330747    12.000000000000
         C            1.854900308627    -0.000994567073     0.823723330747    12.000000000000
         C           -2.627502691373    -1.206075567073    -0.028169669253    12.000000000000
         C           -2.627507691373     1.206139432927    -0.025276669253    12.000000000000
         C           -4.781025691373    -0.000621567073     0.513357330747    12.000000000000
         H           -0.733524691373    -2.153599567073    -0.489252669253     1.007825032230
         H           -0.733532691373     2.154773432927    -0.484086669253     1.007825032230
         H           -3.157638691373    -2.149878567073     0.083572330747     1.007825032230
         H           -3.157646691373     2.149670432927     0.088729330747     1.007825032230
         H           -5.288401691373     0.885618432927     0.122955330747     1.007825032230
         H           -5.288414691373    -0.885883567073     0.120758330747     1.007825032230
         H           -4.904855091373    -0.001996167073     1.621854730747     1.007825032230

  Basis Set: AUG-CC-PVTZ
    Blend: AUG-CC-PVTZ
  Basis Set: (AUG-CC-PVTZ AUX)
    Blend: AUG-CC-PVTZ-JKFIT
	 Reference Energy          =   -1152.8300316587688030 [Eh]
	 Singles Energy            =      -0.0000000000000000 [Eh]
	 Same-Spin Energy          =      -0.7696842431421325 [Eh]
	 Opposite-Spin Energy      =      -2.2428087859784114 [Eh]
	 Correlation Energy        =      -3.0124930291205438 [Eh]
	 Total Energy              =   -1155.8425246878894086 [Eh]

	 ================> DF-SCS-MP2 Energies <==================
	-----------------------------------------------------------
	 SCS Same-Spin Scale       =       0.3333333333333333 [-]
	 SCS Opposite-Spin Scale   =       1.2000000000000000 [-]
	 SCS Same-Spin Energy      =      -0.2565614143807108 [Eh]
	 SCS Opposite-Spin Energy  =      -2.6913705431740937 [Eh]
	 SCS Correlation Energy    =      -2.9479319575548044 [Eh]
	 SCS Total Energy          =   -1155.7779636163236319 [Eh]
	-----------------------------------------------------------

  Dipole Moment: [D]
     X:    -5.4175      Y:    -0.0026      Z:     2.1287     Total:     5.8207

*** Psi4 exiting successfully. Buy a developer a beer!
