                               Psi4 1.4a3.dev225

  ==> Input File <==

--------------------------------------------------------------------------
#psi4
#
memory 32 gb

molecule  {
0 1
  S        1.2441830     0.0010390    -0.8590750
  F        1.5874080    -1.0933110     1.5061340
  F        3.3145200    -0.0009050     0.7339870
  F        1.5874370     1.0896860     1.5087600
  O        1.6149610    -1.2856280    -1.4517330
  O        1.6149580     1.2891350    -1.4486230
  C       -0.4749148     0.0005457    -0.4523677
  C       -1.1416100    -1.2204050    -0.3274150
  C       -1.1416150     1.2211910    -0.3244870
  C       -3.1954030    -0.0001810     0.1494170
  C        1.9826530    -0.0010090     0.8356960
  C       -2.4997500    -1.2060900    -0.0161970
  C       -2.4997550     1.2061250    -0.0133040
  C       -4.6532730    -0.0006360     0.5253300
  H       -0.6057720    -2.1536140    -0.4772800
  H       -0.6057800     2.1547590    -0.4721140
  H       -3.0298860    -2.1498930     0.0955450
  H       -3.0298940     2.1496560     0.1007020
  H       -5.1606490     0.8856040     0.1349280
  H       -5.1606620    -0.8858980     0.1327310
  H       -4.7748820    -0.0019860     1.6139510
units angstrom
no_reorient  #important for SAPT in psi4, default
symmetry c1  #important for SAPT in psi4, default
}

set PROPERTIES_ORIGIN ["COM"]
properties('MP2/aug-cc-pvtz', properties = ['dipole'])
--------------------------------------------------------------------------

    Molecular point group: c1
  Charge       = 0
  Multiplicity = 1
  Basis Set: AUG-CC-PVTZ
    Blend: AUG-CC-PVTZ
  Basis Set: (AUG-CC-PVTZ AUX)
    Blend: AUG-CC-PVTZ-JKFIT

    Orbital Energies [Eh]
    ---------------------

    Doubly Occupied:

       1A    -92.216310     2A    -26.370924     3A    -26.370902
       4A    -26.368047     5A    -20.574643     6A    -20.574624
       7A    -11.548978     8A    -11.293009     9A    -11.287498
      10A    -11.284768    11A    -11.284664    12A    -11.265053
      13A    -11.265015    14A    -11.252386    15A     -9.184996
      16A     -6.869882    17A     -6.869099    18A     -6.868848
      19A     -1.756267    20A     -1.664663    21A     -1.663668
      22A     -1.466141    23A     -1.358811    24A     -1.198032
      25A     -1.100921    26A     -1.053598    27A     -1.038854
      28A     -0.980685    29A     -0.917050    30A     -0.869696
      31A     -0.856366    32A     -0.849968    33A     -0.844371
      34A     -0.796788    35A     -0.742869    36A     -0.736130
      37A     -0.725569    38A     -0.695047    39A     -0.692673
      40A     -0.683765    41A     -0.677484    42A     -0.671019
      43A     -0.666674    44A     -0.647355    45A     -0.638852
      46A     -0.625243    47A     -0.604956    48A     -0.569941
      49A     -0.545800    50A     -0.532436    51A     -0.526256
      52A     -0.523116    53A     -0.515398    54A     -0.497697
      55A     -0.468016    56A     -0.373908    57A     -0.372196

  @DF-RHF Final Energy: -1152.83027285777393

   => Energetics <=

    Nuclear Repulsion Energy =           1102.7691325628422874
    One-Electron Energy =               -3781.4029579817151898
    Two-Electron Energy =                1525.8035525610991954
    Total Energy =                      -1152.8302728577739344
  Basis Set: (AUG-CC-PVTZ AUX)
    Blend: AUG-CC-PVTZ-RI
    Molecular point group: c1

    Geometry (in Angstrom), charge = 0, multiplicity = 1:

       Center              X                  Y                   Z               Mass
    ------------   -----------------  -----------------  -----------------  -----------------
         S            1.116054113522     0.001055266792    -0.872568747772    31.972071174400
         F            1.459279113522    -1.093294733208     1.492640252228    18.998403162730
         F            3.186391113522    -0.000888733208     0.720493252228    18.998403162730
         F            1.459308113522     1.089702266792     1.495266252228    18.998403162730
         O            1.486832113522    -1.285611733208    -1.465226747772    15.994914619570
         O            1.486829113522     1.289151266792    -1.462116747772    15.994914619570
         C           -0.603043686478     0.000561966792    -0.465861447772    12.000000000000
         C           -1.269738886478    -1.220388733208    -0.340908747772    12.000000000000
         C           -1.269743886478     1.221207266792    -0.337980747772    12.000000000000
         C           -3.323531886478    -0.000164733208     0.135923252228    12.000000000000
         C            1.854524113522    -0.000992733208     0.822202252228    12.000000000000
         C           -2.627878886478    -1.206073733208    -0.029690747772    12.000000000000
         C           -2.627883886478     1.206141266792    -0.026797747772    12.000000000000
         C           -4.781401886478    -0.000619733208     0.511836252228    12.000000000000
         H           -0.733900886478    -2.153597733208    -0.490773747772     1.007825032230
         H           -0.733908886478     2.154775266792    -0.485607747772     1.007825032230
         H           -3.158014886478    -2.149876733208     0.082051252228     1.007825032230
         H           -3.158022886478     2.149672266792     0.087208252228     1.007825032230
         H           -5.288777886478     0.885620266792     0.121434252228     1.007825032230
         H           -5.288790886478    -0.885881733208     0.119237252228     1.007825032230
         H           -4.903010886478    -0.001969733208     1.600457252228     1.007825032230

  Basis Set: AUG-CC-PVTZ
    Blend: AUG-CC-PVTZ
  Basis Set: (AUG-CC-PVTZ AUX)
    Blend: AUG-CC-PVTZ-JKFIT
	 Reference Energy          =   -1152.8302728577739344 [Eh]
	 Singles Energy            =      -0.0000000000000000 [Eh]
	 Same-Spin Energy          =      -0.7697507901941033 [Eh]
	 Opposite-Spin Energy      =      -2.2428363474196238 [Eh]
	 Correlation Energy        =      -3.0125871376137270 [Eh]
	 Total Energy              =   -1155.8428599953876983 [Eh]

	 ================> DF-SCS-MP2 Energies <==================
	-----------------------------------------------------------
	 SCS Same-Spin Scale       =       0.3333333333333333 [-]
	 SCS Opposite-Spin Scale   =       1.2000000000000000 [-]
	 SCS Same-Spin Energy      =      -0.2565835967313678 [Eh]
	 SCS Opposite-Spin Energy  =      -2.6914036169035485 [Eh]
	 SCS Correlation Energy    =      -2.9479872136349163 [Eh]
	 SCS Total Energy          =   -1155.7782600714087948 [Eh]
	-----------------------------------------------------------

  Dipole Moment: [D]
     X:    -5.4185      Y:    -0.0025      Z:     2.1061     Total:     5.8134

*** Psi4 exiting successfully. Buy a developer a beer!
