                               Psi4 1.4a3.dev225

  ==> Input File <==

--------------------------------------------------------------------------
#psi4
#
memory 32 gb

molecule  {
0 1
  S        1.2441830     0.0010390    -0.8590750
  F        1.5874080    -1.0933110     1.5061340
  F        3.3145200    -0.0009050     0.7339870
  F        1.5874370     1.0896860     1.5087600
  O        1.6149610    -1.2856280    -1.4517330
  O        1.6149580     1.2891350    -1.4486230
  C       -0.4817510     0.0005820    -0.4824320
  C       -1.1416100    -1.2204050    -0.3274150
  C       -1.1416150     1.2211910    -0.3244870
  C       -3.1954030    -0.0001810     0.1494170
  C        1.9826530    -0.0010090     0.8356960
  C       -2.4749405    -1.2490970    -0.0221034
  C       -2.4997550     1.2061250    -0.0133040
  C       -4.6532730    -0.0006360     0.5253300
  H       -0.6057720    -2.1536140    -0.4772800
  H       -0.6057800     2.1547590    -0.4721140
  H       -3.0298860    -2.1498930     0.0955450
  H       -3.0298940     2.1496560     0.1007020
  H       -5.1606490     0.8856040     0.1349280
  H       -5.1606620    -0.8858980     0.1327310
  H       -4.7748820    -0.0019860     1.6139510
units angstrom
no_reorient  #important for SAPT in psi4, default
symmetry c1  #important for SAPT in psi4, default
}

set PROPERTIES_ORIGIN ["COM"]
properties('MP2/aug-cc-pvtz', properties = ['dipole'])
--------------------------------------------------------------------------

    Molecular point group: c1
  Charge       = 0
  Multiplicity = 1
  Basis Set: AUG-CC-PVTZ
    Blend: AUG-CC-PVTZ
  Basis Set: (AUG-CC-PVTZ AUX)
    Blend: AUG-CC-PVTZ-JKFIT

    Orbital Energies [Eh]
    ---------------------

    Doubly Occupied:

       1A    -92.215702     2A    -26.370994     3A    -26.370962
       4A    -26.368364     5A    -20.573436     6A    -20.573259
       7A    -11.549505     8A    -11.293832     9A    -11.292004
      10A    -11.286625    11A    -11.280214    12A    -11.265254
      13A    -11.264511    14A    -11.253559    15A     -9.184325
      16A     -6.869188    17A     -6.868466    18A     -6.868180
      19A     -1.756379    20A     -1.664707    21A     -1.663836
      22A     -1.465186    23A     -1.357775    24A     -1.195859
      25A     -1.097254    26A     -1.057263    27A     -1.038648
      28A     -0.981327    29A     -0.915776    30A     -0.868130
      31A     -0.855572    32A     -0.850074    33A     -0.844201
      34A     -0.797962    35A     -0.742794    36A     -0.736160
      37A     -0.725701    38A     -0.695049    39A     -0.692795
      40A     -0.683672    41A     -0.677591    42A     -0.671178
      43A     -0.666045    44A     -0.646571    45A     -0.640064
      46A     -0.627638    47A     -0.604710    48A     -0.572991
      49A     -0.546950    50A     -0.532703    51A     -0.522571
      52A     -0.520141    53A     -0.514442    54A     -0.496438
      55A     -0.468255    56A     -0.376615    57A     -0.368268

  @DF-RHF Final Energy: -1152.82781708088714

   => Energetics <=

    Nuclear Repulsion Energy =           1102.2069118646877541
    One-Electron Energy =               -3780.2941211314437169
    Two-Electron Energy =                1525.2593921858688191
    Total Energy =                      -1152.8278170808871437
  Basis Set: (AUG-CC-PVTZ AUX)
    Blend: AUG-CC-PVTZ-RI
    Molecular point group: c1

    Geometry (in Angstrom), charge = 0, multiplicity = 1:

       Center              X                  Y                   Z               Mass
    ------------   -----------------  -----------------  -----------------  -----------------
         S            1.115091309250     0.003357146443    -0.870641848225    31.972071174400
         F            1.458316309250    -1.090992853557     1.494567151775    18.998403162730
         F            3.185428309250     0.001413146443     0.722420151775    18.998403162730
         F            1.458345309250     1.092004146443     1.497193151775    18.998403162730
         O            1.485869309250    -1.283309853557    -1.463299848225    15.994914619570
         O            1.485866309250     1.291453146443    -1.460189848225    15.994914619570
         C           -0.610842690750     0.002900146443    -0.493998848225    12.000000000000
         C           -1.270701690750    -1.218086853557    -0.338981848225    12.000000000000
         C           -1.270706690750     1.223509146443    -0.336053848225    12.000000000000
         C           -3.324494690750     0.002137146443     0.137850151775    12.000000000000
         C            1.853561309250     0.001309146443     0.824129151775    12.000000000000
         C           -2.604032190750    -1.246778853557    -0.033670248225    12.000000000000
         C           -2.628846690750     1.208443146443    -0.024870848225    12.000000000000
         C           -4.782364690750     0.001682146443     0.513763151775    12.000000000000
         H           -0.734863690750    -2.151295853557    -0.488846848225     1.007825032230
         H           -0.734871690750     2.157077146443    -0.483680848225     1.007825032230
         H           -3.158977690750    -2.147574853557     0.083978151775     1.007825032230
         H           -3.158985690750     2.151974146443     0.089135151775     1.007825032230
         H           -5.289740690750     0.887922146443     0.123361151775     1.007825032230
         H           -5.289753690750    -0.883579853557     0.121164151775     1.007825032230
         H           -4.903973690750     0.000332146443     1.602384151775     1.007825032230

  Basis Set: AUG-CC-PVTZ
    Blend: AUG-CC-PVTZ
  Basis Set: (AUG-CC-PVTZ AUX)
    Blend: AUG-CC-PVTZ-JKFIT
	 Reference Energy          =   -1152.8278170808871437 [Eh]
	 Singles Energy            =      -0.0000000000000000 [Eh]
	 Same-Spin Energy          =      -0.7694453194700093 [Eh]
	 Opposite-Spin Energy      =      -2.2426273692525474 [Eh]
	 Correlation Energy        =      -3.0120726887225566 [Eh]
	 Total Energy              =   -1155.8398897696097265 [Eh]

	 ================> DF-SCS-MP2 Energies <==================
	-----------------------------------------------------------
	 SCS Same-Spin Scale       =       0.3333333333333333 [-]
	 SCS Opposite-Spin Scale   =       1.2000000000000000 [-]
	 SCS Same-Spin Energy      =      -0.2564817731566698 [Eh]
	 SCS Opposite-Spin Energy  =      -2.6911528431030569 [Eh]
	 SCS Correlation Energy    =      -2.9476346162597267 [Eh]
	 SCS Total Energy          =   -1155.7754516971467638 [Eh]
	-----------------------------------------------------------

  Dipole Moment: [D]
     X:    -5.4599      Y:    -0.0037      Z:     2.1443     Total:     5.8659

*** Psi4 exiting successfully. Buy a developer a beer!
