                               Psi4 1.4a3.dev225

  ==> Input File <==

--------------------------------------------------------------------------
#psi4
#
memory 32 gb

molecule  {
0 1
  S        1.2441830     0.0010390    -0.8590750
  F        1.5874080    -1.0933110     1.5061340
  F        3.3145200    -0.0009050     0.7339870
  F        1.5874370     1.0896860     1.5087600
  O        1.6149610    -1.2856280    -1.4517330
  O        1.6149580     1.2891350    -1.4486230
  C       -0.4817510     0.0005820    -0.4824320
  C       -1.1416100    -1.2204050    -0.3274150
  C       -1.1416150     1.2211910    -0.3244870
  C       -3.1954030    -0.0001810     0.1494170
  C        1.9826530    -0.0010090     0.8356960
  C       -2.4997500    -1.2060900    -0.0161970
  C       -2.4997550     1.2061250    -0.0133040
  C       -4.6532730    -0.0006360     0.5253300
  H       -0.6057720    -2.1536140    -0.4772800
  H       -0.6057800     2.1547590    -0.4721140
  H       -2.9811716    -2.0631666     0.0852770
  H       -3.0298940     2.1496560     0.1007020
  H       -5.1606490     0.8856040     0.1349280
  H       -5.1606620    -0.8858980     0.1327310
  H       -4.7748820    -0.0019860     1.6139510
units angstrom
no_reorient  #important for SAPT in psi4, default
symmetry c1  #important for SAPT in psi4, default
}

set PROPERTIES_ORIGIN ["COM"]
properties('MP2/aug-cc-pvtz', properties = ['dipole'])
--------------------------------------------------------------------------

    Molecular point group: c1
  Charge       = 0
  Multiplicity = 1
  Basis Set: AUG-CC-PVTZ
    Blend: AUG-CC-PVTZ
  Basis Set: (AUG-CC-PVTZ AUX)
    Blend: AUG-CC-PVTZ-JKFIT

    Orbital Energies [Eh]
    ---------------------

    Doubly Occupied:

       1A    -92.215792     2A    -26.371271     3A    -26.371242
       4A    -26.368668     5A    -20.573686     6A    -20.573638
       7A    -11.549839     8A    -11.292488     9A    -11.286805
      10A    -11.284381    11A    -11.283928    12A    -11.264486
      13A    -11.253356    14A    -11.252569    15A     -9.184496
      16A     -6.869355    17A     -6.868626    18A     -6.868340
      19A     -1.756667    20A     -1.664988    21A     -1.664124
      22A     -1.465522    23A     -1.358101    24A     -1.198234
      25A     -1.101071    26A     -1.056293    27A     -1.038839
      28A     -0.981389    29A     -0.917295    30A     -0.875416
      31A     -0.856639    32A     -0.850356    33A     -0.844994
      34A     -0.800657    35A     -0.743700    36A     -0.736459
      37A     -0.726901    38A     -0.695301    39A     -0.693155
      40A     -0.683563    41A     -0.677862    42A     -0.675398
      43A     -0.666721    44A     -0.647082    45A     -0.645542
      46A     -0.627510    47A     -0.605061    48A     -0.572403
      49A     -0.545630    50A     -0.532434    51A     -0.528679
      52A     -0.522710    53A     -0.514566    54A     -0.496851
      55A     -0.467906    56A     -0.373593    57A     -0.371978

  @DF-RHF Final Energy: -1152.82483958573539

   => Energetics <=

    Nuclear Repulsion Energy =           1103.1966577193702506
    One-Electron Energy =               -3782.2138812124089782
    Two-Electron Energy =                1526.1923839073033378
    Total Energy =                      -1152.8248395857353898
  Basis Set: (AUG-CC-PVTZ AUX)
    Blend: AUG-CC-PVTZ-RI
    Molecular point group: c1

    Geometry (in Angstrom), charge = 0, multiplicity = 1:

       Center              X                  Y                   Z               Mass
    ------------   -----------------  -----------------  -----------------  -----------------
         S            1.116201153971     0.000663141897    -0.870912050195    31.972071174400
         F            1.459426153971    -1.093686858103     1.494296949805    18.998403162730
         F            3.186538153971    -0.001280858103     0.722149949805    18.998403162730
         F            1.459455153971     1.089310141897     1.496922949805    18.998403162730
         O            1.486979153971    -1.286003858103    -1.463570050195    15.994914619570
         O            1.486976153971     1.288759141897    -1.460460050195    15.994914619570
         C           -0.609732846029     0.000206141897    -0.494269050195    12.000000000000
         C           -1.269591846029    -1.220780858103    -0.339252050195    12.000000000000
         C           -1.269596846029     1.220815141897    -0.336324050195    12.000000000000
         C           -3.323384846029    -0.000556858103     0.137579949805    12.000000000000
         C            1.854671153971    -0.001384858103     0.823858949805    12.000000000000
         C           -2.627731846029    -1.206465858103    -0.028034050195    12.000000000000
         C           -2.627736846029     1.205749141897    -0.025141050195    12.000000000000
         C           -4.781254846029    -0.001011858103     0.513492949805    12.000000000000
         H           -0.733753846029    -2.153989858103    -0.489117050195     1.007825032230
         H           -0.733761846029     2.154383141897    -0.483951050195     1.007825032230
         H           -3.109153446029    -2.063542458103     0.073439949805     1.007825032230
         H           -3.157875846029     2.149280141897     0.088864949805     1.007825032230
         H           -5.288630846029     0.885228141897     0.123090949805     1.007825032230
         H           -5.288643846029    -0.886273858103     0.120893949805     1.007825032230
         H           -4.902863846029    -0.002361858103     1.602113949805     1.007825032230

  Basis Set: AUG-CC-PVTZ
    Blend: AUG-CC-PVTZ
  Basis Set: (AUG-CC-PVTZ AUX)
    Blend: AUG-CC-PVTZ-JKFIT
	 Reference Energy          =   -1152.8248395857353898 [Eh]
	 Singles Energy            =      -0.0000000000000000 [Eh]
	 Same-Spin Energy          =      -0.7694857707184333 [Eh]
	 Opposite-Spin Energy      =      -2.2421350495879278 [Eh]
	 Correlation Energy        =      -3.0116208203063612 [Eh]
	 Total Energy              =   -1155.8364604060418515 [Eh]

	 ================> DF-SCS-MP2 Energies <==================
	-----------------------------------------------------------
	 SCS Same-Spin Scale       =       0.3333333333333333 [-]
	 SCS Opposite-Spin Scale   =       1.2000000000000000 [-]
	 SCS Same-Spin Energy      =      -0.2564952569061444 [Eh]
	 SCS Opposite-Spin Energy  =      -2.6905620595055133 [Eh]
	 SCS Correlation Energy    =      -2.9470573164116578 [Eh]
	 SCS Total Energy          =   -1155.7718969021470912 [Eh]
	-----------------------------------------------------------

  Dipole Moment: [D]
     X:    -5.4409      Y:    -0.0157      Z:     2.1380     Total:     5.8459

*** Psi4 exiting successfully. Buy a developer a beer!
