                               Psi4 1.4a3.dev225

  ==> Input File <==

--------------------------------------------------------------------------
#psi4
#
memory 32 gb

molecule  {
0 1
  S        1.2441830     0.0010390    -0.8590750
  F        1.5874080    -1.0933110     1.5061340
  F        3.3145200    -0.0009050     0.7339870
  F        1.5874370     1.0896860     1.5087600
  O        1.6149610    -1.2856280    -1.4517330
  O        1.6149580     1.2891350    -1.4486230
  C       -0.4817510     0.0005820    -0.4824320
  C       -1.1416100    -1.2204050    -0.3274150
  C       -1.1416150     1.2211910    -0.3244870
  C       -3.1954030    -0.0001810     0.1494170
  C        1.9826530    -0.0010090     0.8356960
  C       -2.6254217    -1.2742142     0.0169843
  C       -2.4997550     1.2061250    -0.0133040
  C       -4.6532730    -0.0006360     0.5253300
  H       -0.6057720    -2.1536140    -0.4772800
  H       -0.6057800     2.1547590    -0.4721140
  H       -3.0298860    -2.1498930     0.0955450
  H       -3.0298940     2.1496560     0.1007020
  H       -5.1606490     0.8856040     0.1349280
  H       -5.1606620    -0.8858980     0.1327310
  H       -4.7748820    -0.0019860     1.6139510
units angstrom
no_reorient  #important for SAPT in psi4, default
symmetry c1  #important for SAPT in psi4, default
}

set PROPERTIES_ORIGIN ["COM"]
properties('MP2/aug-cc-pvtz', properties = ['dipole'])
--------------------------------------------------------------------------

    Molecular point group: c1
  Charge       = 0
  Multiplicity = 1
  Basis Set: AUG-CC-PVTZ
    Blend: AUG-CC-PVTZ
  Basis Set: (AUG-CC-PVTZ AUX)
    Blend: AUG-CC-PVTZ-JKFIT

    Orbital Energies [Eh]
    ---------------------

    Doubly Occupied:

       1A    -92.217418     2A    -26.372110     3A    -26.371761
       4A    -26.369444     5A    -20.575294     6A    -20.574452
       7A    -11.550795     8A    -11.300328     9A    -11.294550
      10A    -11.287907    11A    -11.285492    12A    -11.269229
      13A    -11.266171    14A    -11.247490    15A     -9.186061
      16A     -6.870919    17A     -6.870209    18A     -6.869898
      19A     -1.757373    20A     -1.665665    21A     -1.664831
      22A     -1.466708    23A     -1.359237    24A     -1.189529
      25A     -1.103090    26A     -1.047149    27A     -1.035670
      28A     -0.975896    29A     -0.916956    30A     -0.882592
      31A     -0.855153    32A     -0.851044    33A     -0.842454
      34A     -0.800966    35A     -0.743603    36A     -0.737003
      37A     -0.725849    38A     -0.695573    39A     -0.693946
      40A     -0.689255    41A     -0.679105    42A     -0.677929
      43A     -0.667937    44A     -0.649397    45A     -0.642250
      46A     -0.621998    47A     -0.602164    48A     -0.571556
      49A     -0.543853    50A     -0.531539    51A     -0.524136
      52A     -0.521288    53A     -0.510149    54A     -0.497152
      55A     -0.466560    56A     -0.378422    57A     -0.360350

  @DF-RHF Final Energy: -1152.80105031422409

   => Energetics <=

    Nuclear Repulsion Energy =           1099.7840663455001504
    One-Electron Energy =               -3775.3205250758715010
    Two-Electron Energy =                1522.7354084161470382
    Total Energy =                      -1152.8010503142240850
  Basis Set: (AUG-CC-PVTZ AUX)
    Blend: AUG-CC-PVTZ-RI
    Molecular point group: c1

    Geometry (in Angstrom), charge = 0, multiplicity = 1:

       Center              X                  Y                   Z               Mass
    ------------   -----------------  -----------------  -----------------  -----------------
         S            1.123152374398     0.004702639339    -0.872735721056    31.972071174400
         F            1.466377374398    -1.089647360661     1.492473278944    18.998403162730
         F            3.193489374398     0.002758639339     0.720326278944    18.998403162730
         F            1.466406374398     1.093349639339     1.495099278944    18.998403162730
         O            1.493930374398    -1.281964360661    -1.465393721056    15.994914619570
         O            1.493927374398     1.292798639339    -1.462283721056    15.994914619570
         C           -0.602781625602     0.004245639339    -0.496092721056    12.000000000000
         C           -1.262640625602    -1.216741360661    -0.341075721056    12.000000000000
         C           -1.262645625602     1.224854639339    -0.338147721056    12.000000000000
         C           -3.316433625602     0.003482639339     0.135756278944    12.000000000000
         C            1.861622374398     0.002654639339     0.822035278944    12.000000000000
         C           -2.746452325602    -1.270550560661     0.003323578944    12.000000000000
         C           -2.620785625602     1.209788639339    -0.026964721056    12.000000000000
         C           -4.774303625602     0.003027639339     0.511669278944    12.000000000000
         H           -0.726802625602    -2.149950360661    -0.490940721056     1.007825032230
         H           -0.726810625602     2.158422639339    -0.485774721056     1.007825032230
         H           -3.150916625602    -2.146229360661     0.081884278944     1.007825032230
         H           -3.150924625602     2.153319639339     0.087041278944     1.007825032230
         H           -5.281679625602     0.889267639339     0.121267278944     1.007825032230
         H           -5.281692625602    -0.882234360661     0.119070278944     1.007825032230
         H           -4.895912625602     0.001677639339     1.600290278944     1.007825032230

  Basis Set: AUG-CC-PVTZ
    Blend: AUG-CC-PVTZ
  Basis Set: (AUG-CC-PVTZ AUX)
    Blend: AUG-CC-PVTZ-JKFIT
	 Reference Energy          =   -1152.8010503142240850 [Eh]
	 Singles Energy            =      -0.0000000000000000 [Eh]
	 Same-Spin Energy          =      -0.7696395968387526 [Eh]
	 Opposite-Spin Energy      =      -2.2446073342226232 [Eh]
	 Correlation Energy        =      -3.0142469310613755 [Eh]
	 Total Energy              =   -1155.8152972452853646 [Eh]

	 ================> DF-SCS-MP2 Energies <==================
	-----------------------------------------------------------
	 SCS Same-Spin Scale       =       0.3333333333333333 [-]
	 SCS Opposite-Spin Scale   =       1.2000000000000000 [-]
	 SCS Same-Spin Energy      =      -0.2565465322795842 [Eh]
	 SCS Opposite-Spin Energy  =      -2.6935288010671479 [Eh]
	 SCS Correlation Energy    =      -2.9500753333467320 [Eh]
	 SCS Total Energy          =   -1155.7511256475709160 [Eh]
	-----------------------------------------------------------

  Dipole Moment: [D]
     X:    -5.3355      Y:    -0.0627      Z:     2.1151     Total:     5.7398

*** Psi4 exiting successfully. Buy a developer a beer!
