                               Psi4 1.4a3.dev225

  ==> Input File <==

--------------------------------------------------------------------------
#psi4
#
memory 32 gb

molecule  {
0 1
  S        1.2441830     0.0010390    -0.8590750
  F        1.5874080    -1.0933110     1.5061340
  F        3.3145200    -0.0009050     0.7339870
  F        1.5874370     1.0896860     1.5087600
  O        1.6149610    -1.2856280    -1.4517330
  O        1.6149580     1.2891350    -1.4486230
  C       -0.4817510     0.0005820    -0.4824320
  C       -1.1416100    -1.2204050    -0.3274150
  C       -1.1416150     1.2211910    -0.3244870
  C       -3.1954030    -0.0001810     0.1494170
  C        1.9826530    -0.0010090     0.8356960
  C       -2.4997500    -1.2060900    -0.0161970
  C       -2.3048181     1.2082875    -0.0579688
  C       -4.6532730    -0.0006360     0.5253300
  H       -0.6057720    -2.1536140    -0.4772800
  H       -0.6057800     2.1547590    -0.4721140
  H       -3.0298860    -2.1498930     0.0955450
  H       -3.0298940     2.1496560     0.1007020
  H       -5.1606490     0.8856040     0.1349280
  H       -5.1606620    -0.8858980     0.1327310
  H       -4.7748820    -0.0019860     1.6139510
units angstrom
no_reorient  #important for SAPT in psi4, default
symmetry c1  #important for SAPT in psi4, default
}

set PROPERTIES_ORIGIN ["COM"]
properties('MP2/aug-cc-pvtz', properties = ['dipole'])
--------------------------------------------------------------------------

    Molecular point group: c1
  Charge       = 0
  Multiplicity = 1
  Basis Set: AUG-CC-PVTZ
    Blend: AUG-CC-PVTZ
  Basis Set: (AUG-CC-PVTZ AUX)
    Blend: AUG-CC-PVTZ-JKFIT

    Orbital Energies [Eh]
    ---------------------

    Doubly Occupied:

       1A    -92.213657     2A    -26.370372     3A    -26.369982
       4A    -26.367260     5A    -20.572053     6A    -20.571340
       7A    -11.548170     8A    -11.301698     9A    -11.290167
      10A    -11.288932    11A    -11.263321    12A    -11.260398
      13A    -11.259520    14A    -11.249612    15A     -9.182270
      16A     -6.867131    17A     -6.866400    18A     -6.866144
      19A     -1.755482    20A     -1.663937    21A     -1.662862
      22A     -1.463534    23A     -1.356202    24A     -1.212171
      25A     -1.095438    26A     -1.080432    27A     -1.037942
      28A     -0.985272    29A     -0.914614    30A     -0.862096
      31A     -0.849236    32A     -0.848149    33A     -0.843960
      34A     -0.799364    35A     -0.742507    36A     -0.735406
      37A     -0.726692    38A     -0.696153    39A     -0.692409
      40A     -0.689496    41A     -0.676781    42A     -0.668522
      43A     -0.664408    44A     -0.647628    45A     -0.632650
      46A     -0.619303    47A     -0.608334    48A     -0.578499
      49A     -0.557296    50A     -0.546581    51A     -0.521291
      52A     -0.515237    53A     -0.495543    54A     -0.480798
      55A     -0.465519    56A     -0.402145    57A     -0.360441

  @DF-RHF Final Energy: -1152.76752879597598

   => Energetics <=

    Nuclear Repulsion Energy =           1105.6860658551145207
    One-Electron Energy =               -3787.1816833106422564
    Two-Electron Energy =                1528.7280886595517586
    Total Energy =                      -1152.7675287959759771
  Basis Set: (AUG-CC-PVTZ AUX)
    Blend: AUG-CC-PVTZ-RI
    Molecular point group: c1

    Geometry (in Angstrom), charge = 0, multiplicity = 1:

       Center              X                  Y                   Z               Mass
    ------------   -----------------  -----------------  -----------------  -----------------
         S            1.105977824942     0.000937480184    -0.868565615530    31.972071174400
         F            1.449202824942    -1.093412519816     1.496643384470    18.998403162730
         F            3.176314824942    -0.001006519816     0.724496384470    18.998403162730
         F            1.449231824942     1.089584480184     1.499269384470    18.998403162730
         O            1.476755824942    -1.285729519816    -1.461223615530    15.994914619570
         O            1.476752824942     1.289033480184    -1.458113615530    15.994914619570
         C           -0.619956175058     0.000480480184    -0.491922615530    12.000000000000
         C           -1.279815175058    -1.220506519816    -0.336905615530    12.000000000000
         C           -1.279820175058     1.221089480184    -0.333977615530    12.000000000000
         C           -3.333608175058    -0.000282519816     0.139926384470    12.000000000000
         C            1.844447824942    -0.001110519816     0.826205384470    12.000000000000
         C           -2.637955175058    -1.206191519816    -0.025687615530    12.000000000000
         C           -2.443023275058     1.208185980184    -0.067459415530    12.000000000000
         C           -4.791478175058    -0.000737519816     0.515839384470    12.000000000000
         H           -0.743977175058    -2.153715519816    -0.486770615530     1.007825032230
         H           -0.743985175058     2.154657480184    -0.481604615530     1.007825032230
         H           -3.168091175058    -2.149994519816     0.086054384470     1.007825032230
         H           -3.168099175058     2.149554480184     0.091211384470     1.007825032230
         H           -5.298854175058     0.885502480184     0.125437384470     1.007825032230
         H           -5.298867175058    -0.885999519816     0.123240384470     1.007825032230
         H           -4.913087175058    -0.002087519816     1.604460384470     1.007825032230

  Basis Set: AUG-CC-PVTZ
    Blend: AUG-CC-PVTZ
  Basis Set: (AUG-CC-PVTZ AUX)
    Blend: AUG-CC-PVTZ-JKFIT
	 Reference Energy          =   -1152.7675287959759771 [Eh]
	 Singles Energy            =      -0.0000000000000000 [Eh]
	 Same-Spin Energy          =      -0.7692117567564178 [Eh]
	 Opposite-Spin Energy      =      -2.2438753868479950 [Eh]
	 Correlation Energy        =      -3.0130871436044129 [Eh]
	 Total Energy              =   -1155.7806159395804571 [Eh]

	 ================> DF-SCS-MP2 Energies <==================
	-----------------------------------------------------------
	 SCS Same-Spin Scale       =       0.3333333333333333 [-]
	 SCS Opposite-Spin Scale   =       1.2000000000000000 [-]
	 SCS Same-Spin Energy      =      -0.2564039189188059 [Eh]
	 SCS Opposite-Spin Energy  =      -2.6926504642175941 [Eh]
	 SCS Correlation Energy    =      -2.9490543831364002 [Eh]
	 SCS Total Energy          =   -1155.7165831791123765 [Eh]
	-----------------------------------------------------------

  Dipole Moment: [D]
     X:    -5.5314      Y:    -0.1675      Z:     2.1609     Total:     5.9409

*** Psi4 exiting successfully. Buy a developer a beer!
