                               Psi4 1.4a3.dev225

  ==> Input File <==

--------------------------------------------------------------------------
#psi4
#
memory 32 gb

molecule  {
0 1
  S        1.2441830     0.0010390    -0.8590750
  F        1.5874080    -1.0933110     1.5061340
  F        3.3145200    -0.0009050     0.7339870
  F        1.5874370     1.0896860     1.5087600
  O        1.6149610    -1.2856280    -1.4517330
  O        1.6149580     1.2891350    -1.4486230
  C       -0.4817510     0.0005820    -0.4824320
  C       -1.1416100    -1.2204050    -0.3274150
  C       -1.1416150     1.2211910    -0.3244870
  C       -3.1954030    -0.0001810     0.1494170
  C        1.9826530    -0.0010090     0.8356960
  C       -2.4997500    -1.2060900    -0.0161970
  C       -2.4997550     1.2061250    -0.0133040
  C       -4.7016894    -0.0006511     0.5378142
  H       -0.6057720    -2.1536140    -0.4772800
  H       -0.6057800     2.1547590    -0.4721140
  H       -3.0298860    -2.1498930     0.0955450
  H       -3.0298940     2.1496560     0.1007020
  H       -5.1606490     0.8856040     0.1349280
  H       -5.1606620    -0.8858980     0.1327310
  H       -4.7748820    -0.0019860     1.6139510
units angstrom
no_reorient  #important for SAPT in psi4, default
symmetry c1  #important for SAPT in psi4, default
}

set PROPERTIES_ORIGIN ["COM"]
properties('MP2/aug-cc-pvtz', properties = ['dipole'])
--------------------------------------------------------------------------

    Molecular point group: c1
  Charge       = 0
  Multiplicity = 1
  Basis Set: AUG-CC-PVTZ
    Blend: AUG-CC-PVTZ
  Basis Set: (AUG-CC-PVTZ AUX)
    Blend: AUG-CC-PVTZ-JKFIT

    Orbital Energies [Eh]
    ---------------------

    Doubly Occupied:

       1A    -92.216032     2A    -26.371354     3A    -26.371333
       4A    -26.368777     5A    -20.573854     6A    -20.573835
       7A    -11.549976     8A    -11.292908     9A    -11.289199
      10A    -11.284508    11A    -11.284406    12A    -11.265071
      13A    -11.265034    14A    -11.251475    15A     -9.184731
      16A     -6.869590    17A     -6.868862    18A     -6.868573
      19A     -1.756760    20A     -1.665071    21A     -1.664221
      22A     -1.465701    23A     -1.358271    24A     -1.196737
      25A     -1.096601    26A     -1.053321    27A     -1.037862
      28A     -0.980912    29A     -0.918249    30A     -0.868856
      31A     -0.857228    32A     -0.850444    33A     -0.845237
      34A     -0.796627    35A     -0.742842    36A     -0.736511
      37A     -0.725290    38A     -0.695313    39A     -0.693007
      40A     -0.683010    41A     -0.677940    42A     -0.669187
      43A     -0.665378    44A     -0.646957    45A     -0.636608
      46A     -0.625171    47A     -0.609972    48A     -0.578813
      49A     -0.536717    50A     -0.532088    51A     -0.527838
      52A     -0.522631    53A     -0.513955    54A     -0.497063
      55A     -0.467612    56A     -0.375132    57A     -0.372057

  @DF-RHF Final Energy: -1152.82900000471773

   => Energetics <=

    Nuclear Repulsion Energy =           1101.6222433034140522
    One-Electron Energy =               -3779.1170778942014294
    Two-Electron Energy =                1524.6658345860696500
    Total Energy =                      -1152.8290000047177273
  Basis Set: (AUG-CC-PVTZ AUX)
    Blend: AUG-CC-PVTZ-RI
    Molecular point group: c1

    Geometry (in Angstrom), charge = 0, multiplicity = 1:

       Center              X                  Y                   Z               Mass
    ------------   -----------------  -----------------  -----------------  -----------------
         S            1.119013917193     0.001054131138    -0.871627006668    31.972071174400
         F            1.462238917193    -1.093295868862     1.493581993332    18.998403162730
         F            3.189350917193    -0.000889868862     0.721434993332    18.998403162730
         F            1.462267917193     1.089701131138     1.496207993332    18.998403162730
         O            1.489791917193    -1.285612868862    -1.464285006668    15.994914619570
         O            1.489788917193     1.289150131138    -1.461175006668    15.994914619570
         C           -0.606920082807     0.000597131138    -0.494984006668    12.000000000000
         C           -1.266779082807    -1.220389868862    -0.339967006668    12.000000000000
         C           -1.266784082807     1.221206131138    -0.337039006668    12.000000000000
         C           -3.320572082807    -0.000165868862     0.136864993332    12.000000000000
         C            1.857483917193    -0.000993868862     0.823143993332    12.000000000000
         C           -2.624919082807    -1.206074868862    -0.028749006668    12.000000000000
         C           -2.624924082807     1.206140131138    -0.025856006668    12.000000000000
         C           -4.826858482807    -0.000635968862     0.525262193332    12.000000000000
         H           -0.730941082807    -2.153598868862    -0.489832006668     1.007825032230
         H           -0.730949082807     2.154774131138    -0.484666006668     1.007825032230
         H           -3.155055082807    -2.149877868862     0.082992993332     1.007825032230
         H           -3.155063082807     2.149671131138     0.088149993332     1.007825032230
         H           -5.285818082807     0.885619131138     0.122375993332     1.007825032230
         H           -5.285831082807    -0.885882868862     0.120178993332     1.007825032230
         H           -4.900051082807    -0.001970868862     1.601398993332     1.007825032230

  Basis Set: AUG-CC-PVTZ
    Blend: AUG-CC-PVTZ
  Basis Set: (AUG-CC-PVTZ AUX)
    Blend: AUG-CC-PVTZ-JKFIT
	 Reference Energy          =   -1152.8290000047177273 [Eh]
	 Singles Energy            =      -0.0000000000000000 [Eh]
	 Same-Spin Energy          =      -0.7693331379955387 [Eh]
	 Opposite-Spin Energy      =      -2.2424498035288303 [Eh]
	 Correlation Energy        =      -3.0117829415243689 [Eh]
	 Total Energy              =   -1155.8407829462421432 [Eh]

	 ================> DF-SCS-MP2 Energies <==================
	-----------------------------------------------------------
	 SCS Same-Spin Scale       =       0.3333333333333333 [-]
	 SCS Opposite-Spin Scale   =       1.2000000000000000 [-]
	 SCS Same-Spin Energy      =      -0.2564443793318462 [Eh]
	 SCS Opposite-Spin Energy  =      -2.6909397642345962 [Eh]
	 SCS Correlation Energy    =      -2.9473841435664423 [Eh]
	 SCS Total Energy          =   -1155.7763841482842508 [Eh]
	-----------------------------------------------------------

  Dipole Moment: [D]
     X:    -5.4065      Y:    -0.0026      Z:     2.1287     Total:     5.8105

*** Psi4 exiting successfully. Buy a developer a beer!
